{
  "builder_meta": null,
  "nsites": null,
  "elements": null,
  "nelements": null,
  "composition": null,
  "composition_reduced": null,
  "formula_pretty": "Tb3Ir",
  "formula_anonymous": "AB3",
  "chemsys": null,
  "volume": 432.3149207908475,
  "density": 10.278517269556202,
  "density_atomic": 27.01968254942797,
  "symmetry": null,
  "property_name": null,
  "material_id": "mp-1106276",
  "deprecated": null,
  "deprecation_reasons": null,
  "last_updated": null,
  "origins": null,
  "warnings": null,
  "structure": {
    "@module": "pymatgen.core.structure",
    "@class": "Structure",
    "charge": 0,
    "lattice": {
      "matrix": [
        [0.0, 0.0, 6.40424079],
        [7.22162709, 0.0, 0.0],
        [0.0, 9.34754391, 0.0]
      ],
      "pbc": [true, true, true],
      "a": 6.40424079,
      "b": 7.22162709,
      "c": 9.34754391,
      "alpha": 90.0,
      "beta": 90.0,
      "gamma": 90.0,
      "volume": 432.3149207908475
    },
    "properties": {},
    "sites": [
      {
        "species": [{ "element": "Tb", "occu": 1 }],
        "abc": [0.32394273, 0.67442882, 0.06452426],
        "properties": { "magmom": 0.0 },
        "label": "Tb",
        "xyz": [4.870473436788735, 0.6031433536102566, 2.0746072450899566]
      },
      {
        "species": [{ "element": "Tb", "occu": 1 }],
        "abc": [0.17605727000000002, 0.17442882, 0.43547574],
        "properties": { "magmom": 0.0 },
        "label": "Tb",
        "xyz": [1.2596598917887338, 4.0706286013897435, 1.1275131499100435]
      },
      {
        "species": [{ "element": "Tb", "occu": 1 }],
        "abc": [0.67605727, 0.32557118, 0.56452426],
        "properties": { "magmom": 0.0 },
        "label": "Tb",
        "xyz": [2.3511536532112665, 5.276915308610257, 4.329633544910044]
      },
      {
        "species": [{ "element": "Tb", "occu": 1 }],
        "abc": [0.8239427300000001, 0.8255711800000001, 0.93547574],
        "properties": { "magmom": 0.0 },
        "label": "Tb",
        "xyz": [5.9619671982112665, 8.744400556389744, 5.276727640089957]
      },
      {
        "species": [{ "element": "Tb", "occu": 1 }],
        "abc": [0.67605727, 0.32557118, 0.93547574],
        "properties": { "magmom": 0.0 },
        "label": "Tb",
        "xyz": [2.3511536532112665, 8.744400556389744, 4.329633544910044]
      },
      {
        "species": [{ "element": "Tb", "occu": 1 }],
        "abc": [0.8239427300000001, 0.8255711800000001, 0.56452426],
        "properties": { "magmom": 0.0 },
        "label": "Tb",
        "xyz": [5.9619671982112665, 5.276915308610257, 5.276727640089957]
      },
      {
        "species": [{ "element": "Tb", "occu": 1 }],
        "abc": [0.32394273, 0.67442882, 0.43547574],
        "properties": { "magmom": 0.0 },
        "label": "Tb",
        "xyz": [4.870473436788735, 4.0706286013897435, 2.0746072450899566]
      },
      {
        "species": [{ "element": "Tb", "occu": 1 }],
        "abc": [0.17605727000000002, 0.17442882, 0.06452426],
        "properties": { "magmom": 0.0 },
        "label": "Tb",
        "xyz": [1.2596598917887338, 0.6031433536102566, 1.1275131499100435]
      },
      {
        "species": [{ "element": "Tb", "occu": 1 }],
        "abc": [0.86629397, 0.53775198, 0.25],
        "properties": { "magmom": 0.0 },
        "label": "Tb",
        "xyz": [3.883444266469138, 2.3368859775, 5.5479551788050365]
      },
      {
        "species": [{ "element": "Tb", "occu": 1 }],
        "abc": [0.63370603, 0.03775198, 0.25],
        "properties": { "magmom": 0.0 },
        "label": "Tb",
        "xyz": [0.2726307214691382, 2.3368859775, 4.058406006194964]
      },
      {
        "species": [{ "element": "Tb", "occu": 1 }],
        "abc": [0.13370603, 0.46224802000000004, 0.75],
        "properties": { "magmom": 0.0 },
        "label": "Tb",
        "xyz": [3.338182823530862, 7.010657932500001, 0.8562856111949637]
      },
      {
        "species": [{ "element": "Tb", "occu": 1 }],
        "abc": [0.36629397, 0.96224802, 0.75],
        "properties": { "magmom": 0.0 },
        "label": "Tb",
        "xyz": [6.948996368530862, 7.010657932500001, 2.3458347838050364]
      },
      {
        "species": [{ "element": "Ir", "occu": 1 }],
        "abc": [0.04442673, 0.8839663600000001, 0.25],
        "properties": { "magmom": 0.0 },
        "label": "Ir",
        "xyz": [6.383675412024693, 2.3368859775, 0.2845194764323167]
      },
      {
        "species": [{ "element": "Ir", "occu": 1 }],
        "abc": [0.45557327000000003, 0.38396636, 0.25],
        "properties": { "magmom": 0.0 },
        "label": "Ir",
        "xyz": [2.7728618670246923, 2.3368859775, 2.9176009185676834]
      },
      {
        "species": [{ "element": "Ir", "occu": 1 }],
        "abc": [0.95557327, 0.11603364000000001, 0.75],
        "properties": { "magmom": 0.0 },
        "label": "Ir",
        "xyz": [0.8379516779753077, 7.010657932500001, 6.119721313567684]
      },
      {
        "species": [{ "element": "Ir", "occu": 1 }],
        "abc": [0.54442673, 0.61603364, 0.75],
        "properties": { "magmom": 0.0 },
        "label": "Ir",
        "xyz": [4.448765222975308, 7.010657932500001, 3.486639871432317]
      }
    ]
  },
  "task_ids": null,
  "uncorrected_energy_per_atom": null,
  "energy_per_atom": -6.251049416874999,
  "formation_energy_per_atom": -0.5630431543749971,
  "energy_above_hull": 0.0,
  "is_stable": true,
  "equilibrium_reaction_energy_per_atom": null,
  "decomposes_to": null,
  "xas": null,
  "grain_boundaries": null,
  "band_gap": 0.0,
  "cbm": null,
  "vbm": null,
  "efermi": 4.18419192,
  "is_gap_direct": null,
  "is_metal": null,
  "es_source_calc_id": null,
  "bandstructure": null,
  "dos": null,
  "dos_energy_up": null,
  "dos_energy_down": null,
  "is_magnetic": null,
  "ordering": null,
  "total_magnetization": 3.9500000000000005e-5,
  "total_magnetization_normalized_vol": null,
  "total_magnetization_normalized_formula_units": null,
  "num_magnetic_sites": null,
  "num_unique_magnetic_sites": null,
  "types_of_magnetic_species": null,
  "bulk_modulus": null,
  "shear_modulus": null,
  "universal_anisotropy": null,
  "homogeneous_poisson": null,
  "e_total": null,
  "e_ionic": null,
  "e_electronic": null,
  "n": null,
  "e_ij_max": null,
  "weighted_surface_energy_EV_PER_ANG2": null,
  "weighted_surface_energy": null,
  "weighted_work_function": null,
  "surface_anisotropy": null,
  "shape_factor": null,
  "has_reconstructed": null,
  "possible_species": null,
  "has_props": null,
  "theoretical": null,
  "database_IDs": null,
  "fields_not_requested": [
    "builder_meta",
    "nsites",
    "elements",
    "nelements",
    "composition",
    "composition_reduced",
    "chemsys",
    "symmetry",
    "property_name",
    "deprecated",
    "deprecation_reasons",
    "last_updated",
    "origins",
    "warnings",
    "task_ids",
    "uncorrected_energy_per_atom",
    "equilibrium_reaction_energy_per_atom",
    "decomposes_to",
    "xas",
    "grain_boundaries",
    "cbm",
    "vbm",
    "is_gap_direct",
    "is_metal",
    "es_source_calc_id",
    "bandstructure",
    "dos",
    "dos_energy_up",
    "dos_energy_down",
    "is_magnetic",
    "ordering",
    "total_magnetization_normalized_vol",
    "total_magnetization_normalized_formula_units",
    "num_magnetic_sites",
    "num_unique_magnetic_sites",
    "types_of_magnetic_species",
    "bulk_modulus",
    "shear_modulus",
    "universal_anisotropy",
    "homogeneous_poisson",
    "e_total",
    "e_ionic",
    "e_electronic",
    "n",
    "e_ij_max",
    "weighted_surface_energy_EV_PER_ANG2",
    "weighted_surface_energy",
    "weighted_work_function",
    "surface_anisotropy",
    "shape_factor",
    "has_reconstructed",
    "possible_species",
    "has_props",
    "theoretical",
    "database_IDs"
  ]
}
