{
  "builder_meta": null,
  "nsites": null,
  "elements": null,
  "nelements": null,
  "composition": null,
  "composition_reduced": null,
  "formula_pretty": "Tb3In5",
  "formula_anonymous": "A3B5",
  "chemsys": null,
  "volume": 412.8339287768881,
  "density": 8.453782541365191,
  "density_atomic": 25.802120548555507,
  "symmetry": null,
  "property_name": null,
  "material_id": "mp-1188416",
  "deprecated": null,
  "deprecation_reasons": null,
  "last_updated": null,
  "origins": null,
  "warnings": null,
  "structure": {
    "@module": "pymatgen.core.structure",
    "@class": "Structure",
    "charge": 0,
    "lattice": {
      "matrix": [
        [4.93957302, 4.03700725, 4.0060000000000006e-5],
        [-4.93957302, 4.03700725, 4.007e-5],
        [-1.02e-6, 0.00010563, 10.351337000000001]
      ],
      "pbc": [true, true, true],
      "a": 6.3794050786941945,
      "b": 6.3794050786942575,
      "c": 10.351337000539,
      "alpha": 89.99926575265597,
      "beta": 89.99927458557241,
      "gamma": 101.48321296094986,
      "volume": 412.83392877688823
    },
    "properties": {},
    "sites": [
      {
        "species": [{ "element": "Tb", "occu": 1 }],
        "abc": [0.62490377, 0.62490377, 0.24998712],
        "properties": { "magmom": -0.0 },
        "label": "Tb",
        "xyz": [-2.549868624e-7, 5.0455085062241505, 2.5877509983185307]
      },
      {
        "species": [{ "element": "Tb", "occu": 1 }],
        "abc": [0.37508737000000003, 0.37508737000000003, 0.75001331],
        "properties": { "magmom": 0.0 },
        "label": "Tb",
        "xyz": [-7.650135762e-7, 3.028540088052801, 7.763670582046429]
      },
      {
        "species": [{ "element": "Tb", "occu": 1 }],
        "abc": [0.7969777100000001, 0.20302065, 0.50001273],
        "properties": { "magmom": 0.0 },
        "label": "Tb",
        "xyz": [2.933893758601537, 4.037053445652781, 5.175840334484519]
      },
      {
        "species": [{ "element": "Tb", "occu": 1 }],
        "abc": [0.7969847, 0.20301561, 0.99998604],
        "properties": { "magmom": 0.0 },
        "label": "Tb",
        "xyz": [2.9339526716921913, 4.037114129997653, 10.351232557378054]
      },
      {
        "species": [{ "element": "Tb", "occu": 1 }],
        "abc": [0.20302065, 0.7969777100000001, 0.50001273],
        "properties": { "magmom": 0.0 },
        "label": "Tb",
        "xyz": [-2.9338947786275065, 4.037053445652781, 5.17584034042409]
      },
      {
        "species": [{ "element": "Tb", "occu": 1 }],
        "abc": [0.20301561, 0.7969857, 0.99998604],
        "properties": { "magmom": 0.0 },
        "label": "Tb",
        "xyz": [-2.9339596512367327, 4.037118167004904, 10.351232563357817]
      },
      {
        "species": [{ "element": "In", "occu": 1 }],
        "abc": [0.00873592, 0.00873592, 0.24998164],
        "properties": { "magmom": 0.0 },
        "label": "In",
        "xyz": [-2.549812728e-7, 0.0705603503114732, 2.58764489946195]
      },
      {
        "species": [{ "element": "In", "occu": 1 }],
        "abc": [0.99127793, 0.99127793, 0.75001902],
        "properties": { "magmom": 0.0 },
        "label": "In",
        "xyz": [-7.650194003999999e-7, 8.003671604859068, 7.763779063530271]
      },
      {
        "species": [{ "element": "In", "occu": 1 }],
        "abc": [0.30902561, 0.30902561, 0.0461428],
        "properties": { "magmom": -0.0 },
        "label": "In",
        "xyz": [-4.7065655999999996e-8, 2.495082130075309, 0.47766443514572937]
      },
      {
        "species": [{ "element": "In", "occu": 1 }],
        "abc": [0.69094846, 0.69094846, 0.9538108],
        "properties": { "magmom": -0.0 },
        "label": "In",
        "xyz": [-9.72887016e-7, 5.578828635827474, 9.8732723907397]
      },
      {
        "species": [{ "element": "In", "occu": 1 }],
        "abc": [0.30902479, 0.30902479, 0.45385091],
        "properties": { "magmom": -0.0 },
        "label": "In",
        "xyz": [-4.6292792819999997e-7, 2.495118575591078, 4.697988479323094]
      },
      {
        "species": [{ "element": "In", "occu": 1 }],
        "abc": [0.6909482, 0.6909482, 0.54619337],
        "properties": { "magmom": -0.0 },
        "label": "In",
        "xyz": [-5.571172374e-7, 5.5787834799545735, 5.653887005714957]
      },
      {
        "species": [{ "element": "In", "occu": 1 }],
        "abc": [0.07634357, 0.507672799999999, 0.24998287],
        "properties": { "magmom": 0.0 },
        "label": "In",
        "xyz": [-2.1305824822278976, 2.3577047254992367, 2.5876803323697004]
      },
      {
        "species": [{ "element": "In", "occu": 1 }],
        "abc": [0.49235751, 0.92367442, 0.75001888],
        "properties": { "magmom": 0.0 },
        "label": "In",
        "xyz": [-2.130522136725026, 5.716610392135788, 7.763754918718421]
      },
      {
        "species": [{ "element": "In", "occu": 1 }],
        "abc": [0.92367442, 0.49235851, 0.75001888],
        "properties": { "magmom": 0.0 },
        "label": "In",
        "xyz": [2.1305156671134906, 5.716614429143037, 7.763754914445323]
      },
      {
        "species": [{ "element": "In", "occu": 1 }],
        "abc": [0.5076738, 0.07634357, 0.24998287],
        "properties": { "magmom": 0.0 },
        "label": "In",
        "xyz": [2.130586911835867, 2.3577087625064905, 2.587680328096468]
      }
    ]
  },
  "task_ids": null,
  "uncorrected_energy_per_atom": null,
  "energy_per_atom": -26.44348621,
  "formation_energy_per_atom": -0.621954416249998,
  "energy_above_hull": 0.0,
  "is_stable": true,
  "equilibrium_reaction_energy_per_atom": null,
  "decomposes_to": null,
  "xas": null,
  "grain_boundaries": null,
  "band_gap": 0.0,
  "cbm": null,
  "vbm": null,
  "efermi": 6.30289435,
  "is_gap_direct": null,
  "is_metal": null,
  "es_source_calc_id": null,
  "bandstructure": null,
  "dos": null,
  "dos_energy_up": null,
  "dos_energy_down": null,
  "is_magnetic": null,
  "ordering": null,
  "total_magnetization": 3e-7,
  "total_magnetization_normalized_vol": null,
  "total_magnetization_normalized_formula_units": null,
  "num_magnetic_sites": null,
  "num_unique_magnetic_sites": null,
  "types_of_magnetic_species": null,
  "bulk_modulus": null,
  "shear_modulus": null,
  "universal_anisotropy": null,
  "homogeneous_poisson": null,
  "e_total": null,
  "e_ionic": null,
  "e_electronic": null,
  "n": null,
  "e_ij_max": null,
  "weighted_surface_energy_EV_PER_ANG2": null,
  "weighted_surface_energy": null,
  "weighted_work_function": null,
  "surface_anisotropy": null,
  "shape_factor": null,
  "has_reconstructed": null,
  "possible_species": null,
  "has_props": null,
  "theoretical": null,
  "database_IDs": null,
  "fields_not_requested": [
    "builder_meta",
    "nsites",
    "elements",
    "nelements",
    "composition",
    "composition_reduced",
    "chemsys",
    "symmetry",
    "property_name",
    "deprecated",
    "deprecation_reasons",
    "last_updated",
    "origins",
    "warnings",
    "task_ids",
    "uncorrected_energy_per_atom",
    "equilibrium_reaction_energy_per_atom",
    "decomposes_to",
    "xas",
    "grain_boundaries",
    "cbm",
    "vbm",
    "is_gap_direct",
    "is_metal",
    "es_source_calc_id",
    "bandstructure",
    "dos",
    "dos_energy_up",
    "dos_energy_down",
    "is_magnetic",
    "ordering",
    "total_magnetization_normalized_vol",
    "total_magnetization_normalized_formula_units",
    "num_magnetic_sites",
    "num_unique_magnetic_sites",
    "types_of_magnetic_species",
    "bulk_modulus",
    "shear_modulus",
    "universal_anisotropy",
    "homogeneous_poisson",
    "e_total",
    "e_ionic",
    "e_electronic",
    "n",
    "e_ij_max",
    "weighted_surface_energy_EV_PER_ANG2",
    "weighted_surface_energy",
    "weighted_work_function",
    "surface_anisotropy",
    "shape_factor",
    "has_reconstructed",
    "possible_species",
    "has_props",
    "theoretical",
    "database_IDs"
  ]
}
