{
  "builder_meta": null,
  "nsites": null,
  "elements": null,
  "nelements": null,
  "composition": null,
  "composition_reduced": null,
  "formula_pretty": "Tb3Ni",
  "formula_anonymous": "AB3",
  "chemsys": null,
  "volume": 418.9381671974776,
  "density": 8.489729609922913,
  "density_atomic": 26.18363544984235,
  "symmetry": null,
  "property_name": null,
  "material_id": "mp-623751",
  "deprecated": null,
  "deprecation_reasons": null,
  "last_updated": null,
  "origins": null,
  "warnings": null,
  "structure": {
    "@module": "pymatgen.core.structure",
    "@class": "Structure",
    "charge": 0,
    "lattice": {
      "matrix": [
        [6.32150373, 0.0, 0.0],
        [-0.0, 6.82063662, 0.0],
        [0.0, 0.0, 9.71638282]
      ],
      "pbc": [true, true, true],
      "a": 6.32150373,
      "b": 6.82063662,
      "c": 9.71638282,
      "alpha": 90.0,
      "beta": 90.0,
      "gamma": 90.0,
      "volume": 418.9381671974776
    },
    "properties": {},
    "sites": [
      {
        "species": [{ "element": "Tb", "occu": 1 }],
        "abc": [0.14435017, 0.036158050000000004, 0.25],
        "properties": { "magmom": 0.107 },
        "label": "Tb",
        "xyz": [0.9125101380811341, 0.24662091993779103, 2.429095705]
      },
      {
        "species": [{ "element": "Tb", "occu": 1 }],
        "abc": [0.64435017, 0.46384195, 0.75],
        "properties": { "magmom": 0.107 },
        "label": "Tb",
        "xyz": [4.073262003081134, 3.163697390062209, 7.287287115]
      },
      {
        "species": [{ "element": "Tb", "occu": 1 }],
        "abc": [0.3200475, 0.82699329, 0.56801916],
        "properties": { "magmom": 0.105 },
        "label": "Tb",
        "xyz": [2.0231814650271747, 5.64062071826828, 5.519091607654831]
      },
      {
        "species": [{ "element": "Tb", "occu": 1 }],
        "abc": [0.6799525, 0.17300671, 0.43198084000000003],
        "properties": { "magmom": 0.105 },
        "label": "Tb",
        "xyz": [4.298322264972825, 1.1800159017317202, 4.197291212345169]
      },
      {
        "species": [{ "element": "Tb", "occu": 1 }],
        "abc": [0.35564983, 0.53615805, 0.25],
        "properties": { "magmom": 0.107 },
        "label": "Tb",
        "xyz": [2.2482417269188657, 3.6569392299377914, 2.429095705]
      },
      {
        "species": [{ "element": "Tb", "occu": 1 }],
        "abc": [0.8556498300000001, 0.9638419500000001, 0.75],
        "properties": { "magmom": 0.107 },
        "label": "Tb",
        "xyz": [5.4089935919188665, 6.574015700062209, 7.287287115]
      },
      {
        "species": [{ "element": "Tb", "occu": 1 }],
        "abc": [0.820047499999999, 0.67300671, 0.06801916],
        "properties": { "magmom": 0.105 },
        "label": "Tb",
        "xyz": [5.183933330027169, 4.5903342117317205, 0.6609001976548311]
      },
      {
        "species": [{ "element": "Tb", "occu": 1 }],
        "abc": [0.6799525, 0.17300671, 0.06801916],
        "properties": { "magmom": 0.105 },
        "label": "Tb",
        "xyz": [4.298322264972825, 1.1800159017317202, 0.6609001976548311]
      },
      {
        "species": [{ "element": "Tb", "occu": 1 }],
        "abc": [0.3200475, 0.82699329, 0.93198084],
        "properties": { "magmom": 0.105 },
        "label": "Tb",
        "xyz": [2.0231814650271747, 5.64062071826828, 9.055482622345169]
      },
      {
        "species": [{ "element": "Tb", "occu": 1 }],
        "abc": [0.820047499999999, 0.67300671, 0.43198084000000003],
        "properties": { "magmom": 0.105 },
        "label": "Tb",
        "xyz": [5.183933330027169, 4.5903342117317205, 4.197291212345169]
      },
      {
        "species": [{ "element": "Tb", "occu": 1 }],
        "abc": [0.1799525, 0.32699329, 0.93198084],
        "properties": { "magmom": 0.105 },
        "label": "Tb",
        "xyz": [1.1375703999728248, 2.2303024082682796, 9.055482622345169]
      },
      {
        "species": [{ "element": "Tb", "occu": 1 }],
        "abc": [0.1799525, 0.32699329, 0.56801916],
        "properties": { "magmom": 0.105 },
        "label": "Tb",
        "xyz": [1.1375703999728248, 2.2303024082682796, 5.519091607654831]
      },
      {
        "species": [{ "element": "Ni", "occu": 1 }],
        "abc": [0.55612219, 0.8864639, 0.25],
        "properties": { "magmom": 0.068 },
        "label": "Ni",
        "xyz": [3.5155284984207684, 6.046248138648018, 2.429095705]
      },
      {
        "species": [{ "element": "Ni", "occu": 1 }],
        "abc": [0.05612219, 0.613536099999999, 0.75],
        "properties": { "magmom": 0.068 },
        "label": "Ni",
        "xyz": [0.3547766334207687, 4.184706791351975, 7.287287115]
      },
      {
        "species": [{ "element": "Ni", "occu": 1 }],
        "abc": [0.44387781, 0.1135361, 0.75],
        "properties": { "magmom": 0.068 },
        "label": "Ni",
        "xyz": [2.805975231579231, 0.774388481351982, 7.287287115]
      },
      {
        "species": [{ "element": "Ni", "occu": 1 }],
        "abc": [0.94387781, 0.386463899999999, 0.25],
        "properties": { "magmom": 0.068 },
        "label": "Ni",
        "xyz": [5.966727096579231, 2.6359298286480115, 2.429095705]
      }
    ]
  },
  "task_ids": null,
  "uncorrected_energy_per_atom": null,
  "energy_per_atom": -5.157968495624999,
  "formation_energy_per_atom": -0.23453660812499702,
  "energy_above_hull": 0.0,
  "is_stable": true,
  "equilibrium_reaction_energy_per_atom": null,
  "decomposes_to": null,
  "xas": null,
  "grain_boundaries": null,
  "band_gap": 0.0,
  "cbm": null,
  "vbm": null,
  "efermi": 3.90428188,
  "is_gap_direct": null,
  "is_metal": null,
  "es_source_calc_id": null,
  "bandstructure": null,
  "dos": null,
  "dos_energy_up": null,
  "dos_energy_down": null,
  "is_magnetic": null,
  "ordering": null,
  "total_magnetization": 2.209448,
  "total_magnetization_normalized_vol": null,
  "total_magnetization_normalized_formula_units": null,
  "num_magnetic_sites": null,
  "num_unique_magnetic_sites": null,
  "types_of_magnetic_species": null,
  "bulk_modulus": null,
  "shear_modulus": null,
  "universal_anisotropy": null,
  "homogeneous_poisson": null,
  "e_total": null,
  "e_ionic": null,
  "e_electronic": null,
  "n": null,
  "e_ij_max": null,
  "weighted_surface_energy_EV_PER_ANG2": null,
  "weighted_surface_energy": null,
  "weighted_work_function": null,
  "surface_anisotropy": null,
  "shape_factor": null,
  "has_reconstructed": null,
  "possible_species": null,
  "has_props": null,
  "theoretical": null,
  "database_IDs": null,
  "fields_not_requested": [
    "builder_meta",
    "nsites",
    "elements",
    "nelements",
    "composition",
    "composition_reduced",
    "chemsys",
    "symmetry",
    "property_name",
    "deprecated",
    "deprecation_reasons",
    "last_updated",
    "origins",
    "warnings",
    "task_ids",
    "uncorrected_energy_per_atom",
    "equilibrium_reaction_energy_per_atom",
    "decomposes_to",
    "xas",
    "grain_boundaries",
    "cbm",
    "vbm",
    "is_gap_direct",
    "is_metal",
    "es_source_calc_id",
    "bandstructure",
    "dos",
    "dos_energy_up",
    "dos_energy_down",
    "is_magnetic",
    "ordering",
    "total_magnetization_normalized_vol",
    "total_magnetization_normalized_formula_units",
    "num_magnetic_sites",
    "num_unique_magnetic_sites",
    "types_of_magnetic_species",
    "bulk_modulus",
    "shear_modulus",
    "universal_anisotropy",
    "homogeneous_poisson",
    "e_total",
    "e_ionic",
    "e_electronic",
    "n",
    "e_ij_max",
    "weighted_surface_energy_EV_PER_ANG2",
    "weighted_surface_energy",
    "weighted_work_function",
    "surface_anisotropy",
    "shape_factor",
    "has_reconstructed",
    "possible_species",
    "has_props",
    "theoretical",
    "database_IDs"
  ]
}
