{"builder_meta": null, "nsites": null, "elements": null, "nelements": null, "composition": null, "composition_reduced": null, "formula_pretty": "Tb3Nd", "formula_anonymous": "AB3", "chemsys": null, "volume": 271.8909433317617, "density": 7.585576190601171, "density_atomic": 33.986367916470215, "symmetry": null, "property_name": null, "material_id": "mp-978008", "deprecated": null, "deprecation_reasons": null, "last_updated": null, "origins": null, "warnings": null, "structure": {"@module": "pymatgen.core.structure", "@class": "Structure", "charge": 0, "lattice": {"matrix": [[7.32616095, -1.3990000000000002e-05, -0.0], [-3.66309232, 6.34466135, -0.0], [0.0, -0.0, 5.8493865]], "pbc": [true, true, true], "a": 7.3261609500133575, "b": 7.3261840675092795, "c": 5.8493865, "alpha": 90.0, "beta": 90.0, "gamma": 120.00011199668451, "volume": 271.8909433317617}, "properties": {}, "sites": [{"species": [{"element": "Tb", "occu": 1}], "abc": [0.67099851, 0.83549826, 0.25], "properties": {"magmom": 0.399}, "label": "Tb", "xyz": [1.8553358218908214, 5.300944130945096, 1.462346625]}, {"species": [{"element": "Tb", "occu": 1}], "abc": [0.16452409, 0.32899307, 0.25], "properties": {"magmom": 0.399}, "label": "Tb", "xyz": [0.00019797544206312523, 2.087347313954825, 1.462346625]}, {"species": [{"element": "Tb", "occu": 1}], "abc": [0.83551589, 0.16453848000000001, 0.749999], "properties": {"magmom": 0.399}, "label": "Tb", "xyz": [5.518404243990022, 1.0439292457764469, 4.3870340256135]}, {"species": [{"element": "Tb", "occu": 1}], "abc": [0.3290115, 0.16450725, 0.749999], "properties": {"magmom": 0.399}, "label": "Tb", "xyz": [1.8077859593416052, 1.0437381879989023, 4.3870340256135]}, {"species": [{"element": "Tb", "occu": 1}], "abc": [0.8355168900000001, 0.67098041, 0.749999], "properties": {"magmom": 0.399}, "label": "Tb", "xyz": [3.6632680258419947, 4.257131785052862, 4.3870340256135]}, {"species": [{"element": "Tb", "occu": 1}], "abc": [0.16452409, 0.83553102, 0.25], "properties": {"magmom": 0.399}, "label": "Tb", "xyz": [-1.8552972989914809, 5.301159067628058, 1.462346625]}, {"species": [{"element": "Nd", "occu": 1}], "abc": [0.66662214, 0.33331157, 0.25], "properties": {"magmom": 0.28500000000000003}, "label": "Nd", "xyz": [3.6628300382392904, 2.114739709643081, 1.462346625]}, {"species": [{"element": "Nd", "occu": 1}], "abc": [0.33328789000000003, 0.66664495, 0.749999], "properties": {"magmom": 0.28500000000000003}, "label": "Nd", "xyz": [-0.0002612716858880759, 4.229631785740102, 4.3870340256135]}]}, "task_ids": null, "uncorrected_energy_per_atom": null, "energy_per_atom": -30.76958890875, "formation_energy_per_atom": 0.004738949374999001, "energy_above_hull": 0.004738949374999001, "is_stable": false, "equilibrium_reaction_energy_per_atom": null, "decomposes_to": null, "xas": null, "grain_boundaries": null, "band_gap": 0.0, "cbm": null, "vbm": null, "efermi": 3.22919872, "is_gap_direct": null, "is_metal": null, "es_source_calc_id": null, "bandstructure": null, "dos": null, "dos_energy_up": null, "dos_energy_down": null, "is_magnetic": null, "ordering": null, "total_magnetization": 4.8141884, "total_magnetization_normalized_vol": null, "total_magnetization_normalized_formula_units": null, "num_magnetic_sites": null, "num_unique_magnetic_sites": null, "types_of_magnetic_species": null, "bulk_modulus": null, "shear_modulus": null, "universal_anisotropy": null, "homogeneous_poisson": null, "e_total": null, "e_ionic": null, "e_electronic": null, "n": null, "e_ij_max": null, "weighted_surface_energy_EV_PER_ANG2": null, "weighted_surface_energy": null, "weighted_work_function": null, "surface_anisotropy": null, "shape_factor": null, "has_reconstructed": null, "possible_species": null, "has_props": null, "theoretical": null, "database_IDs": null, "fields_not_requested": ["builder_meta", "nsites", "elements", "nelements", "composition", "composition_reduced", "chemsys", "symmetry", "property_name", "deprecated", "deprecation_reasons", "last_updated", "origins", "warnings", "task_ids", "uncorrected_energy_per_atom", "equilibrium_reaction_energy_per_atom", "decomposes_to", "xas", "grain_boundaries", "cbm", "vbm", "is_gap_direct", "is_metal", "es_source_calc_id", "bandstructure", "dos", "dos_energy_up", "dos_energy_down", "is_magnetic", "ordering", "total_magnetization_normalized_vol", "total_magnetization_normalized_formula_units", "num_magnetic_sites", "num_unique_magnetic_sites", "types_of_magnetic_species", "bulk_modulus", "shear_modulus", "universal_anisotropy", "homogeneous_poisson", "e_total", "e_ionic", "e_electronic", "n", "e_ij_max", "weighted_surface_energy_EV_PER_ANG2", "weighted_surface_energy", "weighted_work_function", "surface_anisotropy", "shape_factor", "has_reconstructed", "possible_species", "has_props", "theoretical", "database_IDs"]}