{"builder_meta": null, "nsites": null, "elements": null, "nelements": null, "composition": null, "composition_reduced": null, "formula_pretty": "Tb3Ni2", "formula_anonymous": "A2B3", "chemsys": null, "volume": 223.91883010649454, "density": 8.812395311981218, "density_atomic": 22.391883010649455, "symmetry": null, "property_name": null, "material_id": "mp-1079480", "deprecated": null, "deprecation_reasons": null, "last_updated": null, "origins": null, "warnings": null, "structure": {"@module": "pymatgen.core.structure", "@class": "Structure", "charge": 0, "lattice": {"matrix": [[1.830385559999999, 6.6167697, -0.03773927], [-1.830385559999999, 6.6167697, -0.03773927], [-0.0, 2.54645739, 9.22973329]], "pbc": [true, true, true], "a": 6.865375212877642, "b": 6.865375212877642, "c": 9.574571627160134, "alpha": 75.46149603568769, "beta": 75.46149603568769, "gamma": 30.92541883838451, "volume": 223.91883010649437}, "properties": {}, "sites": [{"species": [{"element": "Tb", "occu": 1}], "abc": [0.13116627, 0.13116627, 0.00124958], "properties": {"magmom": -0.032}, "label": "Tb", "xyz": [0.0, 1.7389760042214342, 0.0016330515676724004]}, {"species": [{"element": "Tb", "occu": 1}], "abc": [0.86883373, 0.86883373, 0.99875042], "properties": {"magmom": -0.032}, "label": "Tb", "xyz": [0.0, 14.041020785778564, 9.152621698432329]}, {"species": [{"element": "Tb", "occu": 1}], "abc": [0.40264205000000003, 0.40264205000000003, 0.6749218], "properties": {"magmom": 0.088}, "label": "Tb", "xyz": [0.0, 7.047039038053873, 6.198957371530116]}, {"species": [{"element": "Tb", "occu": 1}], "abc": [0.59735795, 0.59735795, 0.3250782], "properties": {"magmom": 0.088}, "label": "Tb", "xyz": [0.0, 8.732957751946127, 2.9552973784698846]}, {"species": [{"element": "Tb", "occu": 1}], "abc": [0.14478912, 0.14478912, 0.63547416], "properties": {"magmom": 0.122}, "label": "Tb", "xyz": [0.0, 3.5342803950973702, 5.854328538101302]}, {"species": [{"element": "Tb", "occu": 1}], "abc": [0.85521088, 0.85521088, 0.36452584], "properties": {"magmom": 0.122}, "label": "Tb", "xyz": [0.0, 12.24571639490263, 3.2999262118986987]}, {"species": [{"element": "Ni", "occu": 1}], "abc": [0.53490718, 0.53490718, 0.85692641], "properties": {"magmom": 0.035}, "label": "Ni", "xyz": [0.0, 9.260841831303562, 7.8688282004752725]}, {"species": [{"element": "Ni", "occu": 1}], "abc": [0.46509282, 0.46509282, 0.14307359], "properties": {"magmom": 0.035}, "label": "Ni", "xyz": [0.0, 6.519154958696438, 1.2854265495247283]}, {"species": [{"element": "Ni", "occu": 1}], "abc": [0.74294061, 0.74294061, 0.77617176], "properties": {"magmom": 0.004}, "label": "Ni", "xyz": [0.0, 11.808222148456341, 7.1077822594803814]}, {"species": [{"element": "Ni", "occu": 1}], "abc": [0.25705939, 0.25705939, 0.22382824], "properties": {"magmom": 0.004}, "label": "Ni", "xyz": [0.0, 3.9717746415436594, 2.046472490519619]}]}, "task_ids": null, "uncorrected_energy_per_atom": null, "energy_per_atom": -5.438760930000001, "formation_energy_per_atom": -0.343988084, "energy_above_hull": 0.011405888749999002, "is_stable": false, "equilibrium_reaction_energy_per_atom": null, "decomposes_to": null, "xas": null, "grain_boundaries": null, "band_gap": 0.0, "cbm": null, "vbm": null, "efermi": 4.58355947, "is_gap_direct": null, "is_metal": null, "es_source_calc_id": null, "bandstructure": null, "dos": null, "dos_energy_up": null, "dos_energy_down": null, "is_magnetic": null, "ordering": null, "total_magnetization": 0.6162436, "total_magnetization_normalized_vol": null, "total_magnetization_normalized_formula_units": null, "num_magnetic_sites": null, "num_unique_magnetic_sites": null, "types_of_magnetic_species": null, "bulk_modulus": null, "shear_modulus": null, "universal_anisotropy": null, "homogeneous_poisson": null, "e_total": null, "e_ionic": null, "e_electronic": null, "n": null, "e_ij_max": null, "weighted_surface_energy_EV_PER_ANG2": null, "weighted_surface_energy": null, "weighted_work_function": null, "surface_anisotropy": null, "shape_factor": null, "has_reconstructed": null, "possible_species": null, "has_props": null, "theoretical": null, "database_IDs": null, "fields_not_requested": ["builder_meta", "nsites", "elements", "nelements", "composition", "composition_reduced", "chemsys", "symmetry", "property_name", "deprecated", "deprecation_reasons", "last_updated", "origins", "warnings", "task_ids", "uncorrected_energy_per_atom", "equilibrium_reaction_energy_per_atom", "decomposes_to", "xas", "grain_boundaries", "cbm", "vbm", "is_gap_direct", "is_metal", "es_source_calc_id", "bandstructure", "dos", "dos_energy_up", "dos_energy_down", "is_magnetic", "ordering", "total_magnetization_normalized_vol", "total_magnetization_normalized_formula_units", "num_magnetic_sites", "num_unique_magnetic_sites", "types_of_magnetic_species", "bulk_modulus", "shear_modulus", "universal_anisotropy", "homogeneous_poisson", "e_total", "e_ionic", "e_electronic", "n", "e_ij_max", "weighted_surface_energy_EV_PER_ANG2", "weighted_surface_energy", "weighted_work_function", "surface_anisotropy", "shape_factor", "has_reconstructed", "possible_species", "has_props", "theoretical", "database_IDs"]}