{
  "builder_meta": null,
  "nsites": null,
  "elements": null,
  "nelements": null,
  "composition": null,
  "composition_reduced": null,
  "formula_pretty": "Tb3Os",
  "formula_anonymous": "AB3",
  "chemsys": null,
  "volume": 427.5970307460322,
  "density": 10.36105982074882,
  "density_atomic": 26.724814421627013,
  "symmetry": null,
  "property_name": null,
  "material_id": "mp-1189565",
  "deprecated": null,
  "deprecation_reasons": null,
  "last_updated": null,
  "origins": null,
  "warnings": null,
  "structure": {
    "@module": "pymatgen.core.structure",
    "@class": "Structure",
    "charge": 0,
    "lattice": {
      "matrix": [
        [-0.0, 0.0, 6.37249566],
        [7.38185027, 0.0, 0.0],
        [0.0, 9.08991664, 0.0]
      ],
      "pbc": [true, true, true],
      "a": 6.37249566,
      "b": 7.38185027,
      "c": 9.08991664,
      "alpha": 90.0,
      "beta": 90.0,
      "gamma": 90.0,
      "volume": 427.5970307460322
    },
    "properties": {},
    "sites": [
      {
        "species": [{ "element": "Tb", "occu": 1 }],
        "abc": [0.32992029, 0.67324829, 0.0639559],
        "properties": { "magmom": -0.0 },
        "label": "Tb",
        "xyz": [4.969818071313538, 0.581353799636176, 2.1024156161709415]
      },
      {
        "species": [{ "element": "Tb", "occu": 1 }],
        "abc": [0.17007971, 0.17324829, 0.4360441],
        "properties": { "magmom": -0.0 },
        "label": "Tb",
        "xyz": [1.2788929363135384, 3.963604520363824, 1.0838322138290586]
      },
      {
        "species": [{ "element": "Tb", "occu": 1 }],
        "abc": [0.67007971, 0.32675171000000003, 0.5639559],
        "properties": { "magmom": -0.0 },
        "label": "Tb",
        "xyz": [2.412032198686462, 5.126312119636176, 4.270080043829059]
      },
      {
        "species": [{ "element": "Tb", "occu": 1 }],
        "abc": [0.82992029, 0.82675171, 0.936044099999999],
        "properties": { "magmom": -0.0 },
        "label": "Tb",
        "xyz": [6.102957333686462, 8.508562840363815, 5.288663446170942]
      },
      {
        "species": [{ "element": "Tb", "occu": 1 }],
        "abc": [0.67007971, 0.32675171000000003, 0.936044099999999],
        "properties": { "magmom": -0.0 },
        "label": "Tb",
        "xyz": [2.412032198686462, 8.508562840363815, 4.270080043829059]
      },
      {
        "species": [{ "element": "Tb", "occu": 1 }],
        "abc": [0.82992029, 0.82675171, 0.5639559],
        "properties": { "magmom": -0.0 },
        "label": "Tb",
        "xyz": [6.102957333686462, 5.126312119636176, 5.288663446170942]
      },
      {
        "species": [{ "element": "Tb", "occu": 1 }],
        "abc": [0.32992029, 0.67324829, 0.4360441],
        "properties": { "magmom": -0.0 },
        "label": "Tb",
        "xyz": [4.969818071313538, 3.963604520363824, 2.1024156161709415]
      },
      {
        "species": [{ "element": "Tb", "occu": 1 }],
        "abc": [0.17007971, 0.17324829, 0.0639559],
        "properties": { "magmom": -0.0 },
        "label": "Tb",
        "xyz": [1.2788929363135384, 0.581353799636176, 1.0838322138290586]
      },
      {
        "species": [{ "element": "Tb", "occu": 1 }],
        "abc": [0.87100479, 0.54245383, 0.25],
        "properties": { "magmom": -0.0 },
        "label": "Tb",
        "xyz": [4.004312951448035, 2.27247916, 5.550474244114212]
      },
      {
        "species": [{ "element": "Tb", "occu": 1 }],
        "abc": [0.62899521, 0.04245383, 0.25],
        "properties": { "magmom": -0.0 },
        "label": "Tb",
        "xyz": [0.3133878164480341, 2.27247916, 4.0082692458857885]
      },
      {
        "species": [{ "element": "Tb", "occu": 1 }],
        "abc": [0.12899521, 0.45754617000000003, 0.75],
        "properties": { "magmom": -0.0 },
        "label": "Tb",
        "xyz": [3.3775373185519664, 6.817437480000001, 0.8220214158857886]
      },
      {
        "species": [{ "element": "Tb", "occu": 1 }],
        "abc": [0.37100479000000003, 0.95754617, 0.75],
        "properties": { "magmom": -0.0 },
        "label": "Tb",
        "xyz": [7.068462453551966, 6.817437480000001, 2.3642264141142117]
      },
      {
        "species": [{ "element": "Os", "occu": 1 }],
        "abc": [0.03572593, 0.88489764, 0.25],
        "properties": { "magmom": 0.0 },
        "label": "Os",
        "xyz": [6.532181882756364, 2.27247916, 0.22766333387446383]
      },
      {
        "species": [{ "element": "Os", "occu": 1 }],
        "abc": [0.46427407, 0.38489764, 0.25],
        "properties": { "magmom": 0.0 },
        "label": "Os",
        "xyz": [2.8412567477563626, 2.27247916, 2.9585844961255363]
      },
      {
        "species": [{ "element": "Os", "occu": 1 }],
        "abc": [0.96427407, 0.11510236, 0.75],
        "properties": { "magmom": 0.0 },
        "label": "Os",
        "xyz": [0.8496683872436372, 6.817437480000001, 6.144832326125536]
      },
      {
        "species": [{ "element": "Os", "occu": 1 }],
        "abc": [0.53572593, 0.61510236, 0.75],
        "properties": { "magmom": 0.0 },
        "label": "Os",
        "xyz": [4.540593522243637, 6.817437480000001, 3.413911163874464]
      }
    ]
  },
  "task_ids": null,
  "uncorrected_energy_per_atom": null,
  "energy_per_atom": -36.965971273125,
  "formation_energy_per_atom": -0.29983844812500104,
  "energy_above_hull": 0.0,
  "is_stable": true,
  "equilibrium_reaction_energy_per_atom": null,
  "decomposes_to": null,
  "xas": null,
  "grain_boundaries": null,
  "band_gap": 0.0,
  "cbm": null,
  "vbm": null,
  "efermi": 3.96463655,
  "is_gap_direct": null,
  "is_metal": null,
  "es_source_calc_id": null,
  "bandstructure": null,
  "dos": null,
  "dos_energy_up": null,
  "dos_energy_down": null,
  "is_magnetic": null,
  "ordering": null,
  "total_magnetization": 6e-7,
  "total_magnetization_normalized_vol": null,
  "total_magnetization_normalized_formula_units": null,
  "num_magnetic_sites": null,
  "num_unique_magnetic_sites": null,
  "types_of_magnetic_species": null,
  "bulk_modulus": null,
  "shear_modulus": null,
  "universal_anisotropy": null,
  "homogeneous_poisson": null,
  "e_total": null,
  "e_ionic": null,
  "e_electronic": null,
  "n": null,
  "e_ij_max": null,
  "weighted_surface_energy_EV_PER_ANG2": null,
  "weighted_surface_energy": null,
  "weighted_work_function": null,
  "surface_anisotropy": null,
  "shape_factor": null,
  "has_reconstructed": null,
  "possible_species": null,
  "has_props": null,
  "theoretical": null,
  "database_IDs": null,
  "fields_not_requested": [
    "builder_meta",
    "nsites",
    "elements",
    "nelements",
    "composition",
    "composition_reduced",
    "chemsys",
    "symmetry",
    "property_name",
    "deprecated",
    "deprecation_reasons",
    "last_updated",
    "origins",
    "warnings",
    "task_ids",
    "uncorrected_energy_per_atom",
    "equilibrium_reaction_energy_per_atom",
    "decomposes_to",
    "xas",
    "grain_boundaries",
    "cbm",
    "vbm",
    "is_gap_direct",
    "is_metal",
    "es_source_calc_id",
    "bandstructure",
    "dos",
    "dos_energy_up",
    "dos_energy_down",
    "is_magnetic",
    "ordering",
    "total_magnetization_normalized_vol",
    "total_magnetization_normalized_formula_units",
    "num_magnetic_sites",
    "num_unique_magnetic_sites",
    "types_of_magnetic_species",
    "bulk_modulus",
    "shear_modulus",
    "universal_anisotropy",
    "homogeneous_poisson",
    "e_total",
    "e_ionic",
    "e_electronic",
    "n",
    "e_ij_max",
    "weighted_surface_energy_EV_PER_ANG2",
    "weighted_surface_energy",
    "weighted_work_function",
    "surface_anisotropy",
    "shape_factor",
    "has_reconstructed",
    "possible_species",
    "has_props",
    "theoretical",
    "database_IDs"
  ]
}
