{"builder_meta": null, "nsites": null, "elements": null, "nelements": null, "composition": null, "composition_reduced": null, "formula_pretty": "Tb3Pd4", "formula_anonymous": "A3B4", "chemsys": null, "volume": 289.01355841184386, "density": 10.370195330276319, "density_atomic": 20.64382560084599, "symmetry": null, "property_name": null, "material_id": "mp-1104088", "deprecated": null, "deprecation_reasons": null, "last_updated": null, "origins": null, "warnings": null, "structure": {"@module": "pymatgen.core.structure", "@class": "Structure", "charge": 0, "lattice": {"matrix": [[0.00101778, -0.00031256000000000003, -5.7238444699999995], [0.00845895, -7.64073024, 1.90749721], [-6.6130448699999995, 3.82791577, 1.909311929999999]], "pbc": [true, true, true], "a": 5.723844569021722, "b": 7.875238139919538, "c": 7.875961759740097, "alpha": 114.43973936045182, "beta": 104.03995916362214, "gamma": 104.01414121188905, "volume": 289.0135584118438}, "properties": {}, "sites": [{"species": [{"element": "Tb", "occu": 1}], "abc": [0.40567534, 0.12721635, 0.37868692], "properties": {"magmom": 0.0}, "label": "Tb", "xyz": [-2.502784588650722, 0.47742902260903386, -1.356326264692031]}, {"species": [{"element": "Tb", "occu": 1}], "abc": [0.02663569, 0.62105934, 0.74869891], "properties": {"magmom": 0.0}, "label": "Tb", "xyz": [-4.9458988667734305, -1.8793988406528968, 2.4617101722243024]}, {"species": [{"element": "Tb", "occu": 1}], "abc": [0.27806973, 0.2513646, 0.8725148500000001], "properties": {"magmom": 0.0}, "label": "Tb", "xyz": [-5.76757055839835, 1.4192173399138721, 0.5537523990650326]}, {"species": [{"element": "Tb", "occu": 1}], "abc": [0.59432193, 0.87278087, 0.62130939], "properties": {"magmom": 0.0}, "label": "Tb", "xyz": [-4.100759175508126, -4.29054893553487, -0.5507057874158319]}, {"species": [{"element": "Tb", "occu": 1}], "abc": [0.9733673500000001, 0.3789417, 0.25130507], "properties": {"magmom": 0.0}, "label": "Tb", "xyz": [-1.6576955812537928, -1.9337209015519696, -4.368753319852913]}, {"species": [{"element": "Tb", "occu": 1}], "abc": [0.7219325400000001, 0.74863784, 0.12748623], "properties": {"magmom": 0.0}, "label": "Tb", "xyz": [-0.8360047007399108, -5.232358879856137, -2.4607940058419038]}, {"species": [{"element": "Pd", "occu": 1}], "abc": [0.99999832, 1.33e-06, 0.99999686], "properties": {"magmom": -0.0}, "label": "Pd", "xyz": [-6.612006315498574, 3.8275810286983636, -3.814526382209462]}, {"species": [{"element": "Pd", "occu": 1}], "abc": [0.50000055, 1.859999999999999e-06, 0.99999763], "properties": {"magmom": 0.0}, "label": "Pd", "xyz": [-6.612520290790231, 3.8277362059094706, -0.952614430238923]}, {"species": [{"element": "Pd", "occu": 1}], "abc": [0.226054999999999, 0.67502535, 0.16537829], "properties": {"magmom": -0.0}, "label": "Pd", "xyz": [-1.0877139723515898, -4.524703095955751, 0.309464052198429]}, {"species": [{"element": "Pd", "occu": 1}], "abc": [0.06057697, 0.8348251800000001, 0.51039799], "properties": {"magmom": -0.0}, "label": "Pd", "xyz": [-3.368161410942923, -4.424932416979884, 2.2202025182989122]}, {"species": [{"element": "Pd", "occu": 1}], "abc": [0.55047725, 0.48951981, 0.32476715], "properties": {"magmom": -0.0}, "label": "Pd", "xyz": [-2.142998646919716, -2.4972795774523586, -1.5970066974914783]}, {"species": [{"element": "Pd", "occu": 1}], "abc": [0.77394531, 0.32497398, 0.8346238500000001], "properties": {"magmom": -0.0}, "label": "Pd", "xyz": [-5.515868324916417, 0.7115893768878663, -2.21649834868581]}, {"species": [{"element": "Pd", "occu": 1}], "abc": [0.9394202700000001, 0.16517273, 0.48960374], "properties": {"magmom": -0.0}, "label": "Pd", "xyz": [-3.2354181901129797, 0.6118279792630335, -4.127222734047706]}, {"species": [{"element": "Pd", "occu": 1}], "abc": [0.44952574, 0.51047705, 0.67523512], "properties": {"magmom": -0.0}, "label": "Pd", "xyz": [-4.460584528210079, -1.315814772220444, -0.3100474022066466]}]}, "task_ids": null, "uncorrected_energy_per_atom": null, "energy_per_atom": -27.46389419357143, "formation_energy_per_atom": -0.9608774950000011, "energy_above_hull": 0.0, "is_stable": true, "equilibrium_reaction_energy_per_atom": null, "decomposes_to": null, "xas": null, "grain_boundaries": null, "band_gap": 0.0, "cbm": null, "vbm": null, "efermi": 4.66390831, "is_gap_direct": null, "is_metal": null, "es_source_calc_id": null, "bandstructure": null, "dos": null, "dos_energy_up": null, "dos_energy_down": null, "is_magnetic": null, "ordering": null, "total_magnetization": 3e-06, "total_magnetization_normalized_vol": null, "total_magnetization_normalized_formula_units": null, "num_magnetic_sites": null, "num_unique_magnetic_sites": null, "types_of_magnetic_species": null, "bulk_modulus": null, "shear_modulus": null, "universal_anisotropy": null, "homogeneous_poisson": null, "e_total": null, "e_ionic": null, "e_electronic": null, "n": null, "e_ij_max": null, "weighted_surface_energy_EV_PER_ANG2": null, "weighted_surface_energy": null, "weighted_work_function": null, "surface_anisotropy": null, "shape_factor": null, "has_reconstructed": null, "possible_species": null, "has_props": null, "theoretical": null, "database_IDs": null, "fields_not_requested": ["builder_meta", "nsites", "elements", "nelements", "composition", "composition_reduced", "chemsys", "symmetry", "property_name", "deprecated", "deprecation_reasons", "last_updated", "origins", "warnings", "task_ids", "uncorrected_energy_per_atom", "equilibrium_reaction_energy_per_atom", "decomposes_to", "xas", "grain_boundaries", "cbm", "vbm", "is_gap_direct", "is_metal", "es_source_calc_id", "bandstructure", "dos", "dos_energy_up", "dos_energy_down", "is_magnetic", "ordering", "total_magnetization_normalized_vol", "total_magnetization_normalized_formula_units", "num_magnetic_sites", "num_unique_magnetic_sites", "types_of_magnetic_species", "bulk_modulus", "shear_modulus", "universal_anisotropy", "homogeneous_poisson", "e_total", "e_ionic", "e_electronic", "n", "e_ij_max", "weighted_surface_energy_EV_PER_ANG2", "weighted_surface_energy", "weighted_work_function", "surface_anisotropy", "shape_factor", "has_reconstructed", "possible_species", "has_props", "theoretical", "database_IDs"]}