{
  "builder_meta": null,
  "nsites": null,
  "elements": null,
  "nelements": null,
  "composition": null,
  "composition_reduced": null,
  "formula_pretty": "Tb3Pr",
  "formula_anonymous": "AB3",
  "chemsys": null,
  "volume": 274.4541721739676,
  "density": 7.474383839950402,
  "density_atomic": 34.30677152174595,
  "symmetry": null,
  "property_name": null,
  "material_id": "mp-1187318",
  "deprecated": null,
  "deprecation_reasons": null,
  "last_updated": null,
  "origins": null,
  "warnings": null,
  "structure": {
    "@module": "pymatgen.core.structure",
    "@class": "Structure",
    "charge": 0,
    "lattice": {
      "matrix": [
        [3.67406463, -6.36366734, 0.0],
        [3.67406574, 6.36366841, -0.0],
        [-0.0, -0.0, 5.86928879]
      ],
      "pbc": [true, true, true],
      "a": 7.348129892673354,
      "b": 7.348131374320526,
      "c": 5.86928879,
      "alpha": 90.0,
      "beta": 90.0,
      "gamma": 120.00000237241555,
      "volume": 274.4541721739676
    },
    "properties": {},
    "sites": [
      {
        "species": [{ "element": "Tb", "occu": 1 }],
        "abc": [0.16372368, 0.32744736, 0.25],
        "properties": { "magmom": 0.41000000000000003 },
        "label": "Tb",
        "xyz": [1.804594508810885, 1.0418833855692866, 1.4673221975]
      },
      {
        "species": [{ "element": "Tb", "occu": 1 }],
        "abc": [0.67255264, 0.8362763200000001, 0.25],
        "properties": { "magmom": 0.41000000000000003 },
        "label": "Tb",
        "xyz": [5.543536042922401, 1.041883930016274, 1.4673221975]
      },
      {
        "species": [{ "element": "Tb", "occu": 1 }],
        "abc": [0.16372368, 0.8362763200000001, 0.25],
        "properties": { "magmom": 0.41000000000000003 },
        "label": "Tb",
        "xyz": [3.6740655582667157, 4.279902164414441, 1.4673221975]
      },
      {
        "species": [{ "element": "Tb", "occu": 1 }],
        "abc": [0.8362763200000001, 0.67255264, 0.75],
        "properties": { "magmom": 0.41000000000000003 },
        "label": "Tb",
        "xyz": [5.543535861189116, -1.0418823155692865, 4.4019665925]
      },
      {
        "species": [{ "element": "Tb", "occu": 1 }],
        "abc": [0.32744736, 0.16372368, 0.75],
        "properties": { "magmom": 0.41000000000000003 },
        "label": "Tb",
        "xyz": [1.8045943270776004, -1.0418828600162735, 4.4019665925]
      },
      {
        "species": [{ "element": "Tb", "occu": 1 }],
        "abc": [0.8362763200000001, 0.16372368, 0.75],
        "properties": { "magmom": 0.41000000000000003 },
        "label": "Tb",
        "xyz": [3.6740648117332855, -4.27990109441444, 4.4019665925]
      },
      {
        "species": [{ "element": "Pr", "occu": 1 }],
        "abc": [0.333333, 0.666667, 0.75],
        "properties": { "magmom": 0.28700000000000003 },
        "label": "Pr",
        "xyz": [3.67406537000037, 2.1212274024452498, 4.4019665925]
      },
      {
        "species": [{ "element": "Pr", "occu": 1 }],
        "abc": [0.666667, 0.333333, 0.25],
        "properties": { "magmom": 0.28700000000000003 },
        "label": "Pr",
        "xyz": [3.67406499999963, -2.12122633244525, 1.4673221975]
      }
    ]
  },
  "task_ids": null,
  "uncorrected_energy_per_atom": null,
  "energy_per_atom": -30.75871856625,
  "formation_energy_per_atom": 0.012096138333333001,
  "energy_above_hull": 0.012096138333333001,
  "is_stable": false,
  "equilibrium_reaction_energy_per_atom": null,
  "decomposes_to": null,
  "xas": null,
  "grain_boundaries": null,
  "band_gap": 0.0,
  "cbm": null,
  "vbm": null,
  "efermi": 3.24542451,
  "is_gap_direct": null,
  "is_metal": null,
  "es_source_calc_id": null,
  "bandstructure": null,
  "dos": null,
  "dos_energy_up": null,
  "dos_energy_down": null,
  "is_magnetic": null,
  "ordering": null,
  "total_magnetization": 4.9730223,
  "total_magnetization_normalized_vol": null,
  "total_magnetization_normalized_formula_units": null,
  "num_magnetic_sites": null,
  "num_unique_magnetic_sites": null,
  "types_of_magnetic_species": null,
  "bulk_modulus": null,
  "shear_modulus": null,
  "universal_anisotropy": null,
  "homogeneous_poisson": null,
  "e_total": null,
  "e_ionic": null,
  "e_electronic": null,
  "n": null,
  "e_ij_max": null,
  "weighted_surface_energy_EV_PER_ANG2": null,
  "weighted_surface_energy": null,
  "weighted_work_function": null,
  "surface_anisotropy": null,
  "shape_factor": null,
  "has_reconstructed": null,
  "possible_species": null,
  "has_props": null,
  "theoretical": null,
  "database_IDs": null,
  "fields_not_requested": [
    "builder_meta",
    "nsites",
    "elements",
    "nelements",
    "composition",
    "composition_reduced",
    "chemsys",
    "symmetry",
    "property_name",
    "deprecated",
    "deprecation_reasons",
    "last_updated",
    "origins",
    "warnings",
    "task_ids",
    "uncorrected_energy_per_atom",
    "equilibrium_reaction_energy_per_atom",
    "decomposes_to",
    "xas",
    "grain_boundaries",
    "cbm",
    "vbm",
    "is_gap_direct",
    "is_metal",
    "es_source_calc_id",
    "bandstructure",
    "dos",
    "dos_energy_up",
    "dos_energy_down",
    "is_magnetic",
    "ordering",
    "total_magnetization_normalized_vol",
    "total_magnetization_normalized_formula_units",
    "num_magnetic_sites",
    "num_unique_magnetic_sites",
    "types_of_magnetic_species",
    "bulk_modulus",
    "shear_modulus",
    "universal_anisotropy",
    "homogeneous_poisson",
    "e_total",
    "e_ionic",
    "e_electronic",
    "n",
    "e_ij_max",
    "weighted_surface_energy_EV_PER_ANG2",
    "weighted_surface_energy",
    "weighted_work_function",
    "surface_anisotropy",
    "shape_factor",
    "has_reconstructed",
    "possible_species",
    "has_props",
    "theoretical",
    "database_IDs"
  ]
}
