{"builder_meta": null, "nsites": null, "elements": null, "nelements": null, "composition": null, "composition_reduced": null, "formula_pretty": "Tb3Pt", "formula_anonymous": "AB3", "chemsys": null, "volume": 444.6044577595815, "density": 10.037235037495854, "density_atomic": 27.787778609973845, "symmetry": null, "property_name": null, "material_id": "mp-1208453", "deprecated": null, "deprecation_reasons": null, "last_updated": null, "origins": null, "warnings": null, "structure": {"@module": "pymatgen.core.structure", "@class": "Structure", "charge": 0, "lattice": {"matrix": [[0.0, 0.0, 6.48857138], [7.05222579, 0.0, -0.0], [0.0, 9.71624635, 0.0]], "pbc": [true, true, true], "a": 6.48857138, "b": 7.05222579, "c": 9.71624635, "alpha": 90.0, "beta": 90.0, "gamma": 90.0, "volume": 444.6044577595815}, "properties": {}, "sites": [{"species": [{"element": "Tb", "occu": 1}], "abc": [0.63711735, 0.02893115, 0.25], "properties": {"magmom": 0.078}, "label": "Tb", "xyz": [0.2040290021643585, 2.4290615875, 4.133981402911443]}, {"species": [{"element": "Tb", "occu": 1}], "abc": [0.36288265000000003, 0.97106885, 0.75], "properties": {"magmom": 0.078}, "label": "Tb", "xyz": [6.848196787835641, 7.287184762500001, 2.354589977088557]}, {"species": [{"element": "Tb", "occu": 1}], "abc": [0.13711735, 0.47106885, 0.75], "properties": {"magmom": 0.078}, "label": "Tb", "xyz": [3.322083892835641, 7.287184762500001, 0.889695712911443]}, {"species": [{"element": "Tb", "occu": 1}], "abc": [0.86288265, 0.52893115, 0.25], "properties": {"magmom": 0.078}, "label": "Tb", "xyz": [3.7301418971643585, 2.4290615875, 5.598875667088556]}, {"species": [{"element": "Tb", "occu": 1}], "abc": [0.18008033, 0.17501711, 0.06296093], "properties": {"magmom": 0.091}, "label": "Tb", "xyz": [1.2342601768332668, 0.6117439063051056, 1.1684640753389555]}, {"species": [{"element": "Tb", "occu": 1}], "abc": [0.81991967, 0.82498289, 0.93703907], "properties": {"magmom": 0.091}, "label": "Tb", "xyz": [5.8179656131667326, 9.104502443694894, 5.320107304661044]}, {"species": [{"element": "Tb", "occu": 1}], "abc": [0.68008033, 0.32498289, 0.93703907], "properties": {"magmom": 0.091}, "label": "Tb", "xyz": [2.291852718166733, 9.104502443694894, 4.412749765338956]}, {"species": [{"element": "Tb", "occu": 1}], "abc": [0.81991967, 0.82498289, 0.56296093], "properties": {"magmom": 0.091}, "label": "Tb", "xyz": [5.8179656131667326, 5.4698670813051065, 5.320107304661044]}, {"species": [{"element": "Tb", "occu": 1}], "abc": [0.31991967, 0.67501711, 0.06296093], "properties": {"magmom": 0.091}, "label": "Tb", "xyz": [4.760373071833267, 0.6117439063051056, 2.0758216146610446]}, {"species": [{"element": "Tb", "occu": 1}], "abc": [0.18008033, 0.17501711, 0.43703907000000003], "properties": {"magmom": 0.091}, "label": "Tb", "xyz": [1.2342601768332668, 4.246379268694895, 1.1684640753389555]}, {"species": [{"element": "Tb", "occu": 1}], "abc": [0.31991967, 0.67501711, 0.43703907000000003], "properties": {"magmom": 0.091}, "label": "Tb", "xyz": [4.760373071833267, 4.246379268694895, 2.0758216146610446]}, {"species": [{"element": "Tb", "occu": 1}], "abc": [0.68008033, 0.32498289, 0.56296093], "properties": {"magmom": 0.091}, "label": "Tb", "xyz": [2.291852718166733, 5.4698670813051065, 4.412749765338956]}, {"species": [{"element": "Pt", "occu": 1}], "abc": [0.44643548, 0.38394318, 0.25], "properties": {"magmom": 0.0}, "label": "Pt", "xyz": [2.707653995890612, 2.4290615875, 2.896728478544562]}, {"species": [{"element": "Pt", "occu": 1}], "abc": [0.55356452, 0.6160568200000001, 0.75], "properties": {"magmom": 0.0}, "label": "Pt", "xyz": [4.344571794109388, 7.287184762500001, 3.5918429014554376]}, {"species": [{"element": "Pt", "occu": 1}], "abc": [0.94643548, 0.11605682, 0.75], "properties": {"magmom": 0.0}, "label": "Pt", "xyz": [0.8184588991093877, 7.287184762500001, 6.1410141685445625]}, {"species": [{"element": "Pt", "occu": 1}], "abc": [0.053564520000000004, 0.88394318, 0.25], "properties": {"magmom": 0.0}, "label": "Pt", "xyz": [6.233766890890612, 2.4290615875, 0.3475572114554376]}]}, "task_ids": null, "uncorrected_energy_per_atom": null, "energy_per_atom": -37.07818775125, "formation_energy_per_atom": -0.786432913749997, "energy_above_hull": 0.0, "is_stable": true, "equilibrium_reaction_energy_per_atom": null, "decomposes_to": null, "xas": null, "grain_boundaries": null, "band_gap": 0.0, "cbm": null, "vbm": null, "efermi": 4.00782797, "is_gap_direct": null, "is_metal": null, "es_source_calc_id": null, "bandstructure": null, "dos": null, "dos_energy_up": null, "dos_energy_down": null, "is_magnetic": null, "ordering": null, "total_magnetization": 1.768035499999999, "total_magnetization_normalized_vol": null, "total_magnetization_normalized_formula_units": null, "num_magnetic_sites": null, "num_unique_magnetic_sites": null, "types_of_magnetic_species": null, "bulk_modulus": null, "shear_modulus": null, "universal_anisotropy": null, "homogeneous_poisson": null, "e_total": null, "e_ionic": null, "e_electronic": null, "n": null, "e_ij_max": null, "weighted_surface_energy_EV_PER_ANG2": null, "weighted_surface_energy": null, "weighted_work_function": null, "surface_anisotropy": null, "shape_factor": null, "has_reconstructed": null, "possible_species": null, "has_props": null, "theoretical": null, "database_IDs": null, "fields_not_requested": ["builder_meta", "nsites", "elements", "nelements", "composition", "composition_reduced", "chemsys", "symmetry", "property_name", "deprecated", "deprecation_reasons", "last_updated", "origins", "warnings", "task_ids", "uncorrected_energy_per_atom", "equilibrium_reaction_energy_per_atom", "decomposes_to", "xas", "grain_boundaries", "cbm", "vbm", "is_gap_direct", "is_metal", "es_source_calc_id", "bandstructure", "dos", "dos_energy_up", "dos_energy_down", "is_magnetic", "ordering", "total_magnetization_normalized_vol", "total_magnetization_normalized_formula_units", "num_magnetic_sites", "num_unique_magnetic_sites", "types_of_magnetic_species", "bulk_modulus", "shear_modulus", "universal_anisotropy", "homogeneous_poisson", "e_total", "e_ionic", "e_electronic", "n", "e_ij_max", "weighted_surface_energy_EV_PER_ANG2", "weighted_surface_energy", "weighted_work_function", "surface_anisotropy", "shape_factor", "has_reconstructed", "possible_species", "has_props", "theoretical", "database_IDs"]}