{"builder_meta": null, "nsites": null, "elements": null, "nelements": null, "composition": null, "composition_reduced": null, "formula_pretty": "Tb3Pt4", "formula_anonymous": "A3B4", "chemsys": null, "volume": 288.34863529570447, "density": 14.47888711509161, "density_atomic": 20.59633109255032, "symmetry": null, "property_name": null, "material_id": "mp-1104864", "deprecated": null, "deprecation_reasons": null, "last_updated": null, "origins": null, "warnings": null, "structure": {"@module": "pymatgen.core.structure", "@class": "Structure", "charge": 0, "lattice": {"matrix": [[0.001491699999999, 0.00081643, -5.70925093], [0.006442499999999, -7.63823836, 1.904160249999999], [-6.61640191, 3.82423304, 1.90425267]], "pbc": [true, true, true], "a": 5.709251183249227, "b": 7.872010734727297, "c": 7.875767315638612, "alpha": 114.41555507846338, "beta": 104.00085380052698, "gamma": 104.00629362845292, "volume": 288.3486352957045}, "properties": {}, "sites": [{"species": [{"element": "Tb", "occu": 1}], "abc": [0.40535983000000003, 0.12442216, 0.3764479], "properties": {"magmom": -0.0}, "label": "Tb", "xyz": [-2.489324339551279, 0.48958932959856527, -1.360529336430109]}, {"species": [{"element": "Tb", "occu": 1}], "abc": [0.028647970000000002, 0.6234387100000001, 0.74814137], "properties": {"magmom": -0.0}, "label": "Tb", "xyz": [-4.945944751351994, -1.900883135023903, 2.4482189618881227]}, {"species": [{"element": "Tb", "occu": 1}], "abc": [0.28041826000000003, 0.25185697, 0.87542893], "properties": {"magmom": 0.0}, "label": "Tb", "xyz": [-5.79014875607359, 1.4243296106704901, 0.5456356966132034]}, {"species": [{"element": "Tb", "occu": 1}], "abc": [0.59464017, 0.87557684, 0.623552099999999], "properties": {"magmom": -0.0}, "label": "Tb", "xyz": [-4.119143376891217, -4.302770581360209, -0.5403105777301438]}, {"species": [{"element": "Tb", "occu": 1}], "abc": [0.97135203, 0.37656129, 0.25185763], "properties": {"magmom": -0.0}, "label": "Tb", "xyz": [-1.6625163422460987, -1.912309579209136, -4.349058876140793]}, {"species": [{"element": "Tb", "occu": 1}], "abc": [0.71958274, 0.7481440300000001, 0.12457207000000001], "properties": {"magmom": 0.0}, "label": "Tb", "xyz": [-0.8183255623941224, -5.2375223138593805, -2.446475607451214]}, {"species": [{"element": "Pt", "occu": 1}], "abc": [1e-06, -0.0, 0.0], "properties": {"magmom": -0.0}, "label": "Pt", "xyz": [1.4916999999989999e-09, 8.1643e-10, -5.709250929999999e-06]}, {"species": [{"element": "Pt", "occu": 1}], "abc": [0.499998999999999, -0.0, 0.0], "properties": {"magmom": 0.0}, "label": "Pt", "xyz": [0.0007458485082994985, 0.0004082141835699992, -2.8546197557490642]}, {"species": [{"element": "Pt", "occu": 1}], "abc": [0.22588716, 0.67164246, 0.16531281], "properties": {"magmom": 0.0}, "label": "Pt", "xyz": [-1.089111979406346, -4.497786071185485, 0.30406575606685843]}, {"species": [{"element": "Pt", "occu": 1}], "abc": [0.06018101, 0.83453349, 0.50647738], "properties": {"magmom": -0.0}, "label": "Pt", "xyz": [-3.345591650381855, -4.437429051832046, 2.209957914800537]}, {"species": [{"element": "Pt", "occu": 1}], "abc": [0.5538987400000001, 0.49344728, 0.32832833], "properties": {"magmom": -0.0}, "label": "Pt", "xyz": [-2.1683469048672532, -2.513011675631339, -1.5975241013850674]}, {"species": [{"element": "Pt", "occu": 1}], "abc": [0.77411284, 0.32835754, 0.83468719], "properties": {"magmom": 0.0}, "label": "Pt", "xyz": [-5.519355730593657, 0.6845971811854845, -2.2049037660668587]}, {"species": [{"element": "Pt", "occu": 1}], "abc": [0.93981899, 0.16546651, 0.49352262], "properties": {"magmom": -0.0}, "label": "Pt", "xyz": [-3.2628760596181476, 0.624240161832047, -4.110795924800538]}, {"species": [{"element": "Pt", "occu": 1}], "abc": [0.44610226000000003, 0.50655272, 0.67167167], "properties": {"magmom": -0.0}, "label": "Pt", "xyz": [-4.44012080364105, -1.3001772135522298, -0.3033196178658635]}]}, "task_ids": null, "uncorrected_energy_per_atom": null, "energy_per_atom": -44.14432133857143, "formation_energy_per_atom": -1.34001133142857, "energy_above_hull": 0.0, "is_stable": true, "equilibrium_reaction_energy_per_atom": null, "decomposes_to": null, "xas": null, "grain_boundaries": null, "band_gap": 0.0, "cbm": null, "vbm": null, "efermi": 5.32383694, "is_gap_direct": null, "is_metal": null, "es_source_calc_id": null, "bandstructure": null, "dos": null, "dos_energy_up": null, "dos_energy_down": null, "is_magnetic": null, "ordering": null, "total_magnetization": 0.0, "total_magnetization_normalized_vol": null, "total_magnetization_normalized_formula_units": null, "num_magnetic_sites": null, "num_unique_magnetic_sites": null, "types_of_magnetic_species": null, "bulk_modulus": null, "shear_modulus": null, "universal_anisotropy": null, "homogeneous_poisson": null, "e_total": null, "e_ionic": null, "e_electronic": null, "n": null, "e_ij_max": null, "weighted_surface_energy_EV_PER_ANG2": null, "weighted_surface_energy": null, "weighted_work_function": null, "surface_anisotropy": null, "shape_factor": null, "has_reconstructed": null, "possible_species": null, "has_props": null, "theoretical": null, "database_IDs": null, "fields_not_requested": ["builder_meta", "nsites", "elements", "nelements", "composition", "composition_reduced", "chemsys", "symmetry", "property_name", "deprecated", "deprecation_reasons", "last_updated", "origins", "warnings", "task_ids", "uncorrected_energy_per_atom", "equilibrium_reaction_energy_per_atom", "decomposes_to", "xas", "grain_boundaries", "cbm", "vbm", "is_gap_direct", "is_metal", "es_source_calc_id", "bandstructure", "dos", "dos_energy_up", "dos_energy_down", "is_magnetic", "ordering", "total_magnetization_normalized_vol", "total_magnetization_normalized_formula_units", "num_magnetic_sites", "num_unique_magnetic_sites", "types_of_magnetic_species", "bulk_modulus", "shear_modulus", "universal_anisotropy", "homogeneous_poisson", "e_total", "e_ionic", "e_electronic", "n", "e_ij_max", "weighted_surface_energy_EV_PER_ANG2", "weighted_surface_energy", "weighted_work_function", "surface_anisotropy", "shape_factor", "has_reconstructed", "possible_species", "has_props", "theoretical", "database_IDs"]}