{
  "builder_meta": null,
  "nsites": null,
  "elements": null,
  "nelements": null,
  "composition": null,
  "composition_reduced": null,
  "formula_pretty": "Tb3Ru",
  "formula_anonymous": "AB3",
  "chemsys": null,
  "volume": 426.2771883987575,
  "density": 9.003868530801203,
  "density_atomic": 26.642324274922345,
  "symmetry": null,
  "property_name": null,
  "material_id": "mp-1189033",
  "deprecated": null,
  "deprecation_reasons": null,
  "last_updated": null,
  "origins": null,
  "warnings": null,
  "structure": {
    "@module": "pymatgen.core.structure",
    "@class": "Structure",
    "charge": 0,
    "lattice": {
      "matrix": [
        [-0.0, 1.05e-6, 6.36404193],
        [7.28476811, -0.00013673, -0.0],
        [-0.00017366000000000001, 9.19482205, 2.09e-6]
      ],
      "pbc": [true, true, true],
      "a": 6.364041930000087,
      "b": 7.284768111283163,
      "c": 9.194822051640172,
      "alpha": 90.00215753085018,
      "beta": 89.99997752336256,
      "gamma": 90.00000000017744,
      "volume": 426.2771883987576
    },
    "properties": {},
    "sites": [
      {
        "species": [{ "element": "Tb", "occu": 1 }],
        "abc": [0.32867304, 0.67547334, 0.06548753],
        "properties": { "magmom": 0.0 },
        "label": "Tb",
        "xyz": [4.920655273822728, 0.6020541724809504, 2.091689144689505]
      },
      {
        "species": [{ "element": "Tb", "occu": 1 }],
        "abc": [0.17133407, 0.17547096, 0.43451182],
        "properties": { "magmom": 0.0 },
        "label": "Tb",
        "xyz": [1.2781897963164246, 3.995235051278044, 1.090378113647259]
      },
      {
        "species": [{ "element": "Tb", "occu": 1 }],
        "abc": [0.67133848, 0.32455562, 0.56549578],
        "properties": { "magmom": 0.0 },
        "label": "Tb",
        "xyz": [2.3642142265001236, 5.199589395541431, 4.272427417828646]
      },
      {
        "species": [{ "element": "Tb", "occu": 1 }],
        "abc": [0.82866786, 0.8245538, 0.9345047400000001],
        "properties": { "magmom": 0.0 },
        "label": "Tb",
        "xyz": [6.006520941126169, 8.592492918041698, 5.273678960198276]
      },
      {
        "species": [{ "element": "Tb", "occu": 1 }],
        "abc": [0.67133214, 0.3245528, 0.9345047400000001],
        "properties": { "magmom": 0.0 },
        "label": "Tb",
        "xyz": [2.3641296013580595, 8.59256111797592, 4.272387841031536]
      },
      {
        "species": [{ "element": "Tb", "occu": 1 }],
        "abc": [0.82866052, 0.82455662, 0.56549478],
        "properties": { "magmom": 0.0 },
        "label": "Tb",
        "xyz": [6.006605566441894, 5.199512000770793, 5.273631476899694]
      },
      {
        "species": [{ "element": "Tb", "occu": 1 }],
        "abc": [0.32866593, 0.67546996, 0.43451182],
        "properties": { "magmom": 0.0 },
        "label": "Tb",
        "xyz": [4.920566566548314, 3.995166851613227, 2.0916446676121487]
      },
      {
        "species": [{ "element": "Tb", "occu": 1 }],
        "abc": [0.17132696, 0.17547334, 0.06548753],
        "properties": { "magmom": 0.0 },
        "label": "Tb",
        "xyz": [1.2782712188227277, 0.6021223722675664, 1.0903320940483705]
      },
      {
        "species": [{ "element": "Tb", "occu": 1 }],
        "abc": [0.86687453, 0.544643099999999, 0.25001012],
        "properties": { "magmom": 0.0 },
        "label": "Tb",
        "xyz": [3.967555269454095, 2.2987250052663395, 5.516826379490194]
      },
      {
        "species": [{ "element": "Tb", "occu": 1 }],
        "abc": [0.63312647, 0.0446431, 0.25001012],
        "properties": { "magmom": 0.0 },
        "label": "Tb",
        "xyz": [0.3251712144541018, 2.2987931248308766, 4.029243924594038]
      },
      {
        "species": [{ "element": "Tb", "occu": 1 }],
        "abc": [0.13311373, 0.45533882000000003, 0.74999009],
        "properties": { "magmom": -0.0 },
        "label": "Tb",
        "xyz": [3.316907471902001, 6.895963298106044, 0.8471429266579871]
      },
      {
        "species": [{ "element": "Tb", "occu": 1 }],
        "abc": [0.36688727, 0.95533882, 0.74999009],
        "properties": { "magmom": -0.0 },
        "label": "Tb",
        "xyz": [6.959291526902001, 6.895895178568261, 2.334887537342519]
      },
      {
        "species": [{ "element": "Ru", "occu": 1 }],
        "abc": [0.03393992, 0.88690376, 0.249999399999999],
        "properties": { "magmom": -0.0 },
        "label": "Ru",
        "xyz": [6.46084481259129, 2.2985787648925724, 0.21599559647959157]
      },
      {
        "species": [{ "element": "Ru", "occu": 1 }],
        "abc": [0.46606008, 0.38690376, 0.249999399999999],
        "properties": { "magmom": -0.0 },
        "label": "Ru",
        "xyz": [2.8184607575912892, 2.2986475836187403, 2.9660264135179]
      },
      {
        "species": [{ "element": "Ru", "occu": 1 }],
        "abc": [0.96601225, 0.1130626, 0.7500005200000001],
        "properties": { "magmom": 0.0 },
        "label": "Ru",
        "xyz": [0.8235045778233827, 6.896106874071032, 6.14774403139473]
      },
      {
        "species": [{ "element": "Ru", "occu": 1 }],
        "abc": [0.5339867500000001, 0.6130626, 0.7500005200000001],
        "properties": { "magmom": 0.0 },
        "label": "Ru",
        "xyz": [4.465888632823383, 6.896038055444257, 3.3983156345655146]
      }
    ]
  },
  "task_ids": null,
  "uncorrected_energy_per_atom": null,
  "energy_per_atom": -6.100688833749999,
  "formation_energy_per_atom": -0.30369048124999704,
  "energy_above_hull": 0.0,
  "is_stable": true,
  "equilibrium_reaction_energy_per_atom": null,
  "decomposes_to": null,
  "xas": null,
  "grain_boundaries": null,
  "band_gap": 0.0,
  "cbm": null,
  "vbm": null,
  "efermi": 3.95885169,
  "is_gap_direct": null,
  "is_metal": null,
  "es_source_calc_id": null,
  "bandstructure": null,
  "dos": null,
  "dos_energy_up": null,
  "dos_energy_down": null,
  "is_magnetic": null,
  "ordering": null,
  "total_magnetization": 8e-7,
  "total_magnetization_normalized_vol": null,
  "total_magnetization_normalized_formula_units": null,
  "num_magnetic_sites": null,
  "num_unique_magnetic_sites": null,
  "types_of_magnetic_species": null,
  "bulk_modulus": null,
  "shear_modulus": null,
  "universal_anisotropy": null,
  "homogeneous_poisson": null,
  "e_total": null,
  "e_ionic": null,
  "e_electronic": null,
  "n": null,
  "e_ij_max": null,
  "weighted_surface_energy_EV_PER_ANG2": null,
  "weighted_surface_energy": null,
  "weighted_work_function": null,
  "surface_anisotropy": null,
  "shape_factor": null,
  "has_reconstructed": null,
  "possible_species": null,
  "has_props": null,
  "theoretical": null,
  "database_IDs": null,
  "fields_not_requested": [
    "builder_meta",
    "nsites",
    "elements",
    "nelements",
    "composition",
    "composition_reduced",
    "chemsys",
    "symmetry",
    "property_name",
    "deprecated",
    "deprecation_reasons",
    "last_updated",
    "origins",
    "warnings",
    "task_ids",
    "uncorrected_energy_per_atom",
    "equilibrium_reaction_energy_per_atom",
    "decomposes_to",
    "xas",
    "grain_boundaries",
    "cbm",
    "vbm",
    "is_gap_direct",
    "is_metal",
    "es_source_calc_id",
    "bandstructure",
    "dos",
    "dos_energy_up",
    "dos_energy_down",
    "is_magnetic",
    "ordering",
    "total_magnetization_normalized_vol",
    "total_magnetization_normalized_formula_units",
    "num_magnetic_sites",
    "num_unique_magnetic_sites",
    "types_of_magnetic_species",
    "bulk_modulus",
    "shear_modulus",
    "universal_anisotropy",
    "homogeneous_poisson",
    "e_total",
    "e_ionic",
    "e_electronic",
    "n",
    "e_ij_max",
    "weighted_surface_energy_EV_PER_ANG2",
    "weighted_surface_energy",
    "weighted_work_function",
    "surface_anisotropy",
    "shape_factor",
    "has_reconstructed",
    "possible_species",
    "has_props",
    "theoretical",
    "database_IDs"
  ]
}
