{
  "builder_meta": null,
  "nsites": null,
  "elements": null,
  "nelements": null,
  "composition": null,
  "composition_reduced": null,
  "formula_pretty": "Tb3Rh",
  "formula_anonymous": "AB3",
  "chemsys": null,
  "volume": 432.36639014995774,
  "density": 8.905260740811865,
  "density_atomic": 27.02289938437236,
  "symmetry": null,
  "property_name": null,
  "material_id": "mp-1105609",
  "deprecated": null,
  "deprecation_reasons": null,
  "last_updated": null,
  "origins": null,
  "warnings": null,
  "structure": {
    "@module": "pymatgen.core.structure",
    "@class": "Structure",
    "charge": 0,
    "lattice": {
      "matrix": [
        [0.0, 0.0, 6.33838957],
        [7.12786967, 0.0, -0.0],
        [0.0, 9.57002888, 0.0]
      ],
      "pbc": [true, true, true],
      "a": 6.33838957,
      "b": 7.12786967,
      "c": 9.57002888,
      "alpha": 90.0,
      "beta": 90.0,
      "gamma": 90.0,
      "volume": 432.36639014995774
    },
    "properties": {},
    "sites": [
      {
        "species": [{ "element": "Tb", "occu": 1 }],
        "abc": [0.32541368, 0.6736047900000001, 0.06482999],
        "properties": { "magmom": -0.101 },
        "label": "Tb",
        "xyz": [4.80136715220772, 0.6204248765901113, 2.0625986752473175]
      },
      {
        "species": [{ "element": "Tb", "occu": 1 }],
        "abc": [0.17458632000000002, 0.17360479, 0.43517001],
        "properties": { "magmom": -0.101 },
        "label": "Tb",
        "xyz": [1.2374323172077193, 4.164589563409889, 1.1065961097526826]
      },
      {
        "species": [{ "element": "Tb", "occu": 1 }],
        "abc": [0.67458632, 0.32639521, 0.56482999],
        "properties": { "magmom": -0.101 },
        "label": "Tb",
        "xyz": [2.3265025177922807, 5.405439316590112, 4.275790894752682]
      },
      {
        "species": [{ "element": "Tb", "occu": 1 }],
        "abc": [0.82541368, 0.82639521, 0.93517001],
        "properties": { "magmom": -0.101 },
        "label": "Tb",
        "xyz": [5.890437352792281, 8.94960400340989, 5.231793460247318]
      },
      {
        "species": [{ "element": "Tb", "occu": 1 }],
        "abc": [0.67458632, 0.32639521, 0.93517001],
        "properties": { "magmom": -0.101 },
        "label": "Tb",
        "xyz": [2.3265025177922807, 8.94960400340989, 4.275790894752682]
      },
      {
        "species": [{ "element": "Tb", "occu": 1 }],
        "abc": [0.82541368, 0.82639521, 0.56482999],
        "properties": { "magmom": -0.101 },
        "label": "Tb",
        "xyz": [5.890437352792281, 5.405439316590112, 5.231793460247318]
      },
      {
        "species": [{ "element": "Tb", "occu": 1 }],
        "abc": [0.32541368, 0.6736047900000001, 0.43517001],
        "properties": { "magmom": -0.101 },
        "label": "Tb",
        "xyz": [4.80136715220772, 4.164589563409889, 2.0625986752473175]
      },
      {
        "species": [{ "element": "Tb", "occu": 1 }],
        "abc": [0.17458632000000002, 0.17360479, 0.06482999],
        "properties": { "magmom": -0.101 },
        "label": "Tb",
        "xyz": [1.2374323172077193, 0.6204248765901113, 1.1065961097526826]
      },
      {
        "species": [{ "element": "Tb", "occu": 1 }],
        "abc": [0.86001601, 0.53794766, 0.25],
        "properties": { "magmom": -0.093 },
        "label": "Tb",
        "xyz": [3.8344208097614727, 2.39250722, 5.451116507817017]
      },
      {
        "species": [{ "element": "Tb", "occu": 1 }],
        "abc": [0.6399839900000001, 0.03794766, 0.25],
        "properties": { "magmom": -0.093 },
        "label": "Tb",
        "xyz": [0.2704859747614722, 2.39250722, 4.056467847182985]
      },
      {
        "species": [{ "element": "Tb", "occu": 1 }],
        "abc": [0.13998399, 0.46205234, 0.75],
        "properties": { "magmom": -0.093 },
        "label": "Tb",
        "xyz": [3.2934488602385277, 7.17752166, 0.8872730621829844]
      },
      {
        "species": [{ "element": "Tb", "occu": 1 }],
        "abc": [0.36001601, 0.9620523400000001, 0.75],
        "properties": { "magmom": -0.093 },
        "label": "Tb",
        "xyz": [6.8573836952385285, 7.17752166, 2.2819217228170157]
      },
      {
        "species": [{ "element": "Rh", "occu": 1 }],
        "abc": [0.05750427, 0.88086387, 0.25],
        "properties": { "magmom": -0.038 },
        "label": "Rh",
        "xyz": [6.278682862371823, 2.39250722, 0.36448446519846395]
      },
      {
        "species": [{ "element": "Rh", "occu": 1 }],
        "abc": [0.44249573000000003, 0.38086387, 0.25],
        "properties": { "magmom": -0.038 },
        "label": "Rh",
        "xyz": [2.7147480273718227, 2.39250722, 2.8047103198015364]
      },
      {
        "species": [{ "element": "Rh", "occu": 1 }],
        "abc": [0.94249573, 0.11913613, 0.75],
        "properties": { "magmom": -0.038 },
        "label": "Rh",
        "xyz": [0.8491868076281771, 7.17752166, 5.973905104801537]
      },
      {
        "species": [{ "element": "Rh", "occu": 1 }],
        "abc": [0.55750427, 0.61913613, 0.75],
        "properties": { "magmom": -0.038 },
        "label": "Rh",
        "xyz": [4.413121642628177, 7.17752166, 3.5336792501984644]
      }
    ]
  },
  "task_ids": null,
  "uncorrected_energy_per_atom": null,
  "energy_per_atom": -5.824854321250001,
  "formation_energy_per_atom": -0.505379636249999,
  "energy_above_hull": 0.0,
  "is_stable": true,
  "equilibrium_reaction_energy_per_atom": null,
  "decomposes_to": null,
  "xas": null,
  "grain_boundaries": null,
  "band_gap": 0.0,
  "cbm": null,
  "vbm": null,
  "efermi": 3.89144312,
  "is_gap_direct": null,
  "is_metal": null,
  "es_source_calc_id": null,
  "bandstructure": null,
  "dos": null,
  "dos_energy_up": null,
  "dos_energy_down": null,
  "is_magnetic": null,
  "ordering": null,
  "total_magnetization": 2.0812904,
  "total_magnetization_normalized_vol": null,
  "total_magnetization_normalized_formula_units": null,
  "num_magnetic_sites": null,
  "num_unique_magnetic_sites": null,
  "types_of_magnetic_species": null,
  "bulk_modulus": null,
  "shear_modulus": null,
  "universal_anisotropy": null,
  "homogeneous_poisson": null,
  "e_total": null,
  "e_ionic": null,
  "e_electronic": null,
  "n": null,
  "e_ij_max": null,
  "weighted_surface_energy_EV_PER_ANG2": null,
  "weighted_surface_energy": null,
  "weighted_work_function": null,
  "surface_anisotropy": null,
  "shape_factor": null,
  "has_reconstructed": null,
  "possible_species": null,
  "has_props": null,
  "theoretical": null,
  "database_IDs": null,
  "fields_not_requested": [
    "builder_meta",
    "nsites",
    "elements",
    "nelements",
    "composition",
    "composition_reduced",
    "chemsys",
    "symmetry",
    "property_name",
    "deprecated",
    "deprecation_reasons",
    "last_updated",
    "origins",
    "warnings",
    "task_ids",
    "uncorrected_energy_per_atom",
    "equilibrium_reaction_energy_per_atom",
    "decomposes_to",
    "xas",
    "grain_boundaries",
    "cbm",
    "vbm",
    "is_gap_direct",
    "is_metal",
    "es_source_calc_id",
    "bandstructure",
    "dos",
    "dos_energy_up",
    "dos_energy_down",
    "is_magnetic",
    "ordering",
    "total_magnetization_normalized_vol",
    "total_magnetization_normalized_formula_units",
    "num_magnetic_sites",
    "num_unique_magnetic_sites",
    "types_of_magnetic_species",
    "bulk_modulus",
    "shear_modulus",
    "universal_anisotropy",
    "homogeneous_poisson",
    "e_total",
    "e_ionic",
    "e_electronic",
    "n",
    "e_ij_max",
    "weighted_surface_energy_EV_PER_ANG2",
    "weighted_surface_energy",
    "weighted_work_function",
    "surface_anisotropy",
    "shape_factor",
    "has_reconstructed",
    "possible_species",
    "has_props",
    "theoretical",
    "database_IDs"
  ]
}
