{
  "builder_meta": null,
  "nsites": null,
  "elements": null,
  "nelements": null,
  "composition": null,
  "composition_reduced": null,
  "formula_pretty": "Tb3Se4",
  "formula_anonymous": "A3B4",
  "chemsys": null,
  "volume": 328.1562288074661,
  "density": 8.021605566483972,
  "density_atomic": 23.439730629104723,
  "symmetry": null,
  "property_name": null,
  "material_id": "mp-568808",
  "deprecated": null,
  "deprecation_reasons": null,
  "last_updated": null,
  "origins": null,
  "warnings": null,
  "structure": {
    "@module": "pymatgen.core.structure",
    "@class": "Structure",
    "charge": 0,
    "lattice": {
      "matrix": [
        [7.09563475, -2e-8, -2.5086857],
        [-3.547818399999999, 6.14499922, -2.5086857],
        [0.0, 1e-8, 7.52605813]
      ],
      "pbc": [true, true, true],
      "a": 7.526057164730551,
      "b": 7.5260570523059185,
      "c": 7.52605813,
      "alpha": 109.47122069693357,
      "beta": 109.47122046026209,
      "gamma": 109.47122904649453,
      "volume": 328.1562288074661
    },
    "properties": {},
    "sites": [
      {
        "species": [{ "element": "Tb", "occu": 1 }],
        "abc": [0.125, 0.75, 0.875],
        "properties": { "magmom": 0.0 },
        "label": "Tb",
        "xyz": [-1.773909456249999, 4.60874942125, 4.39020087625]
      },
      {
        "species": [{ "element": "Tb", "occu": 1 }],
        "abc": [0.625, 0.375, 0.25],
        "properties": { "magmom": 0.0 },
        "label": "Tb",
        "xyz": [3.1043398187500006, 2.3043746975, -0.6271711675]
      },
      {
        "species": [{ "element": "Tb", "occu": 1 }],
        "abc": [0.375, 0.25, 0.625],
        "properties": { "magmom": 0.0 },
        "label": "Tb",
        "xyz": [1.7739084312500002, 1.53624980375, 3.1358577687499998]
      },
      {
        "species": [{ "element": "Tb", "occu": 1 }],
        "abc": [0.75, 0.875, 0.125],
        "properties": { "magmom": 0.0 },
        "label": "Tb",
        "xyz": [2.2173849625000006, 5.376874303749999, -3.13585699625]
      },
      {
        "species": [{ "element": "Tb", "occu": 1 }],
        "abc": [0.25, 0.625, 0.375],
        "properties": { "magmom": 0.0 },
        "label": "Tb",
        "xyz": [-0.44347781249999896, 3.8406245112499997, 0.6271718112500002]
      },
      {
        "species": [{ "element": "Tb", "occu": 1 }],
        "abc": [0.875, 0.125, 0.75],
        "properties": { "magmom": 0.0 },
        "label": "Tb",
        "xyz": [5.76520310625, 0.7681248924999999, 3.1358578975]
      },
      {
        "species": [{ "element": "Se", "occu": 1 }],
        "abc": [0.64316978, 0.64316978, 0.64316978],
        "properties": { "magmom": -0.0 },
        "label": "Se",
        "xyz": [2.2818482613099045, 3.9522777899958736, 1.6135114922230196]
      },
      {
        "species": [{ "element": "Se", "occu": 1 }],
        "abc": [-0.0, 0.85683022, 0.5],
        "properties": { "magmom": -0.0 },
        "label": "Se",
        "xyz": [-3.039878020192047, 5.265221038572428, 1.613511344758146]
      },
      {
        "species": [{ "element": "Se", "occu": 1 }],
        "abc": [0.85683022, 0.5, -0.0],
        "properties": { "magmom": -0.0 },
        "label": "Se",
        "xyz": [4.305845083882145, 3.0724995928633954, -3.403860570241854]
      },
      {
        "species": [{ "element": "Se", "occu": 1 }],
        "abc": [-0.0, 0.35683022000000003, 0.5],
        "properties": { "magmom": -0.0 },
        "label": "Se",
        "xyz": [-1.2659688201920476, 2.1927214285724284, 2.867854194758146]
      },
      {
        "species": [{ "element": "Se", "occu": 1 }],
        "abc": [0.5, 0.0, 0.85683022],
        "properties": { "magmom": -0.0 },
        "label": "Se",
        "xyz": [3.547817375, -1.4316978000000005e-9, 5.1942111932606885]
      },
      {
        "species": [{ "element": "Se", "occu": 1 }],
        "abc": [0.5, 0.0, 0.35683022000000003],
        "properties": { "magmom": -0.0 },
        "label": "Se",
        "xyz": [3.547817375, -6.4316978e-9, 1.431182128260689]
      },
      {
        "species": [{ "element": "Se", "occu": 1 }],
        "abc": [0.35683022000000003, 0.5, -0.0],
        "properties": { "magmom": -0.0 },
        "label": "Se",
        "xyz": [0.7580277088821461, 3.0724996028633957, -2.149517720241854]
      },
      {
        "species": [{ "element": "Se", "occu": 1 }],
        "abc": [0.14316978, 0.14316978, 0.14316978],
        "properties": { "magmom": -0.0 },
        "label": "Se",
        "xyz": [0.5079400863099033, 0.8797781849958737, 0.3591681272230193]
      }
    ]
  },
  "task_ids": null,
  "uncorrected_energy_per_atom": null,
  "energy_per_atom": -6.041991445714286,
  "formation_energy_per_atom": -2.056671905624999,
  "energy_above_hull": 0.05226242035714301,
  "is_stable": false,
  "equilibrium_reaction_energy_per_atom": null,
  "decomposes_to": null,
  "xas": null,
  "grain_boundaries": null,
  "band_gap": 0.0,
  "cbm": null,
  "vbm": null,
  "efermi": 5.88790486,
  "is_gap_direct": null,
  "is_metal": null,
  "es_source_calc_id": null,
  "bandstructure": null,
  "dos": null,
  "dos_energy_up": null,
  "dos_energy_down": null,
  "is_magnetic": null,
  "ordering": null,
  "total_magnetization": 2.7e-6,
  "total_magnetization_normalized_vol": null,
  "total_magnetization_normalized_formula_units": null,
  "num_magnetic_sites": null,
  "num_unique_magnetic_sites": null,
  "types_of_magnetic_species": null,
  "bulk_modulus": null,
  "shear_modulus": null,
  "universal_anisotropy": null,
  "homogeneous_poisson": null,
  "e_total": null,
  "e_ionic": null,
  "e_electronic": null,
  "n": null,
  "e_ij_max": null,
  "weighted_surface_energy_EV_PER_ANG2": null,
  "weighted_surface_energy": null,
  "weighted_work_function": null,
  "surface_anisotropy": null,
  "shape_factor": null,
  "has_reconstructed": null,
  "possible_species": null,
  "has_props": null,
  "theoretical": null,
  "database_IDs": null,
  "fields_not_requested": [
    "builder_meta",
    "nsites",
    "elements",
    "nelements",
    "composition",
    "composition_reduced",
    "chemsys",
    "symmetry",
    "property_name",
    "deprecated",
    "deprecation_reasons",
    "last_updated",
    "origins",
    "warnings",
    "task_ids",
    "uncorrected_energy_per_atom",
    "equilibrium_reaction_energy_per_atom",
    "decomposes_to",
    "xas",
    "grain_boundaries",
    "cbm",
    "vbm",
    "is_gap_direct",
    "is_metal",
    "es_source_calc_id",
    "bandstructure",
    "dos",
    "dos_energy_up",
    "dos_energy_down",
    "is_magnetic",
    "ordering",
    "total_magnetization_normalized_vol",
    "total_magnetization_normalized_formula_units",
    "num_magnetic_sites",
    "num_unique_magnetic_sites",
    "types_of_magnetic_species",
    "bulk_modulus",
    "shear_modulus",
    "universal_anisotropy",
    "homogeneous_poisson",
    "e_total",
    "e_ionic",
    "e_electronic",
    "n",
    "e_ij_max",
    "weighted_surface_energy_EV_PER_ANG2",
    "weighted_surface_energy",
    "weighted_work_function",
    "surface_anisotropy",
    "shape_factor",
    "has_reconstructed",
    "possible_species",
    "has_props",
    "theoretical",
    "database_IDs"
  ]
}
