{
  "builder_meta": null,
  "nsites": null,
  "elements": null,
  "nelements": null,
  "composition": null,
  "composition_reduced": null,
  "formula_pretty": "Tb3Si",
  "formula_anonymous": "AB3",
  "chemsys": null,
  "volume": 199.70050618683288,
  "density": 8.395996014300588,
  "density_atomic": 24.96256327335411,
  "symmetry": null,
  "property_name": null,
  "material_id": "mp-972310",
  "deprecated": null,
  "deprecation_reasons": null,
  "last_updated": null,
  "origins": null,
  "warnings": null,
  "structure": {
    "@module": "pymatgen.core.structure",
    "@class": "Structure",
    "charge": 0,
    "lattice": {
      "matrix": [
        [3.361733, -5.822692, 0.0],
        [3.361733, 5.822692, 0.0],
        [0.0, 0.0, 5.10108]
      ],
      "pbc": [true, true, true],
      "a": 6.723465690412423,
      "b": 6.723465690412423,
      "c": 5.10108,
      "alpha": 90.0,
      "beta": 90.0,
      "gamma": 119.9999969536322,
      "volume": 199.70050618683288
    },
    "properties": {},
    "sites": [
      {
        "species": [{ "element": "Tb", "occu": 1 }],
        "abc": [0.177555, 0.35511000000000004, 0.25],
        "properties": { "magmom": -0.0 },
        "label": "Tb",
        "xyz": [1.790677508445, 1.0338480780600003, 1.27527]
      },
      {
        "species": [{ "element": "Tb", "occu": 1 }],
        "abc": [0.6448900000000001, 0.822445, 0.25],
        "properties": { "magmom": -0.0 },
        "label": "Tb",
        "xyz": [4.932788491555, 1.0338480780599992, 1.27527]
      },
      {
        "species": [{ "element": "Tb", "occu": 1 }],
        "abc": [0.177555, 0.822445, 0.25],
        "properties": { "magmom": -0.0 },
        "label": "Tb",
        "xyz": [3.3617329999999996, 3.7549958438799997, 1.27527]
      },
      {
        "species": [{ "element": "Tb", "occu": 1 }],
        "abc": [0.822445, 0.6448900000000001, 0.75],
        "properties": { "magmom": -0.0 },
        "label": "Tb",
        "xyz": [4.932788491555, -1.0338480780599992, 3.8258099999999997]
      },
      {
        "species": [{ "element": "Tb", "occu": 1 }],
        "abc": [0.35511000000000004, 0.177555, 0.75],
        "properties": { "magmom": -0.0 },
        "label": "Tb",
        "xyz": [1.790677508445, -1.0338480780600003, 3.8258099999999997]
      },
      {
        "species": [{ "element": "Tb", "occu": 1 }],
        "abc": [0.822445, 0.177555, 0.75],
        "properties": { "magmom": -0.0 },
        "label": "Tb",
        "xyz": [3.3617329999999996, -3.7549958438799997, 3.8258099999999997]
      },
      {
        "species": [{ "element": "Si", "occu": 1 }],
        "abc": [0.333333, 0.666667, 0.75],
        "properties": { "magmom": 0.0 },
        "label": "Si",
        "xyz": [3.361733, 1.940901215128, 3.8258099999999997]
      },
      {
        "species": [{ "element": "Si", "occu": 1 }],
        "abc": [0.666667, 0.333333, 0.25],
        "properties": { "magmom": 0.0 },
        "label": "Si",
        "xyz": [3.361733, -1.940901215128, 1.27527]
      }
    ]
  },
  "task_ids": null,
  "uncorrected_energy_per_atom": null,
  "energy_per_atom": -25.928493177500005,
  "formation_energy_per_atom": -0.315226416250006,
  "energy_above_hull": 0.197555937916664,
  "is_stable": false,
  "equilibrium_reaction_energy_per_atom": null,
  "decomposes_to": null,
  "xas": null,
  "grain_boundaries": null,
  "band_gap": 0.0,
  "cbm": null,
  "vbm": null,
  "efermi": 4.7350461500000005,
  "is_gap_direct": null,
  "is_metal": null,
  "es_source_calc_id": null,
  "bandstructure": null,
  "dos": null,
  "dos_energy_up": null,
  "dos_energy_down": null,
  "is_magnetic": null,
  "ordering": null,
  "total_magnetization": 0.002244,
  "total_magnetization_normalized_vol": null,
  "total_magnetization_normalized_formula_units": null,
  "num_magnetic_sites": null,
  "num_unique_magnetic_sites": null,
  "types_of_magnetic_species": null,
  "bulk_modulus": null,
  "shear_modulus": null,
  "universal_anisotropy": null,
  "homogeneous_poisson": null,
  "e_total": null,
  "e_ionic": null,
  "e_electronic": null,
  "n": null,
  "e_ij_max": null,
  "weighted_surface_energy_EV_PER_ANG2": null,
  "weighted_surface_energy": null,
  "weighted_work_function": null,
  "surface_anisotropy": null,
  "shape_factor": null,
  "has_reconstructed": null,
  "possible_species": null,
  "has_props": null,
  "theoretical": null,
  "database_IDs": null,
  "fields_not_requested": [
    "builder_meta",
    "nsites",
    "elements",
    "nelements",
    "composition",
    "composition_reduced",
    "chemsys",
    "symmetry",
    "property_name",
    "deprecated",
    "deprecation_reasons",
    "last_updated",
    "origins",
    "warnings",
    "task_ids",
    "uncorrected_energy_per_atom",
    "equilibrium_reaction_energy_per_atom",
    "decomposes_to",
    "xas",
    "grain_boundaries",
    "cbm",
    "vbm",
    "is_gap_direct",
    "is_metal",
    "es_source_calc_id",
    "bandstructure",
    "dos",
    "dos_energy_up",
    "dos_energy_down",
    "is_magnetic",
    "ordering",
    "total_magnetization_normalized_vol",
    "total_magnetization_normalized_formula_units",
    "num_magnetic_sites",
    "num_unique_magnetic_sites",
    "types_of_magnetic_species",
    "bulk_modulus",
    "shear_modulus",
    "universal_anisotropy",
    "homogeneous_poisson",
    "e_total",
    "e_ionic",
    "e_electronic",
    "n",
    "e_ij_max",
    "weighted_surface_energy_EV_PER_ANG2",
    "weighted_surface_energy",
    "weighted_work_function",
    "surface_anisotropy",
    "shape_factor",
    "has_reconstructed",
    "possible_species",
    "has_props",
    "theoretical",
    "database_IDs"
  ]
}
