{"builder_meta": null, "nsites": null, "elements": null, "nelements": null, "composition": null, "composition_reduced": null, "formula_pretty": "Tb3Th", "formula_anonymous": "AB3", "chemsys": null, "volume": 261.1182492984885, "density": 9.015176256538444, "density_atomic": 32.63978116231106, "symmetry": null, "property_name": null, "material_id": "mp-1187328", "deprecated": null, "deprecation_reasons": null, "last_updated": null, "origins": null, "warnings": null, "structure": {"@module": "pymatgen.core.structure", "@class": "Structure", "charge": 0, "lattice": {"matrix": [[3.6107789500000003, -6.25405089, 0.0], [3.6107789500000003, 6.25405089, 0.0], [0.0, 0.0, 5.7815584]], "pbc": [true, true, true], "a": 7.221556422300729, "b": 7.221556422300729, "c": 5.7815584, "alpha": 90.0, "beta": 90.0, "gamma": 119.9999864622258, "volume": 261.1182492984885}, "properties": {}, "sites": [{"species": [{"element": "Tb", "occu": 1}], "abc": [0.16790382, 0.33580664, 0.25], "properties": {"magmom": -0.0}, "label": "Tb", "xyz": [1.818787125862817, 1.0500727808545098, 1.4453896]}, {"species": [{"element": "Tb", "occu": 1}], "abc": [0.6641933600000001, 0.83209618, 0.25], "properties": {"magmom": -0.0}, "label": "Tb", "xyz": [5.402770774137183, 1.0500727808545092, 1.4453896]}, {"species": [{"element": "Tb", "occu": 1}], "abc": [0.16790382, 0.83209618, 0.25], "properties": {"magmom": -0.0}, "label": "Tb", "xyz": [3.6107789500000003, 4.153892820189201, 1.4453896]}, {"species": [{"element": "Tb", "occu": 1}], "abc": [0.83209618, 0.6641933600000001, 0.75], "properties": {"magmom": -0.0}, "label": "Tb", "xyz": [5.402770774137183, -1.0500727808545092, 4.336168799999999]}, {"species": [{"element": "Tb", "occu": 1}], "abc": [0.33580664, 0.16790382, 0.75], "properties": {"magmom": -0.0}, "label": "Tb", "xyz": [1.818787125862817, -1.0500727808545098, 4.336168799999999]}, {"species": [{"element": "Tb", "occu": 1}], "abc": [0.83209618, 0.16790382, 0.75], "properties": {"magmom": -0.0}, "label": "Tb", "xyz": [3.6107789500000003, -4.153892820189201, 4.336168799999999]}, {"species": [{"element": "Th", "occu": 1}], "abc": [0.333333, 0.666667, 0.75], "properties": {"magmom": 0.0}, "label": "Th", "xyz": [3.6107789500000003, 2.0846877993672606, 4.336168799999999]}, {"species": [{"element": "Th", "occu": 1}], "abc": [0.666667, 0.333333, 0.25], "properties": {"magmom": 0.0}, "label": "Th", "xyz": [3.6107789500000003, -2.0846877993672606, 1.4453896]}]}, "task_ids": null, "uncorrected_energy_per_atom": null, "energy_per_atom": -41.7409439775, "formation_energy_per_atom": 0.047697172500001, "energy_above_hull": 0.047697172500001, "is_stable": false, "equilibrium_reaction_energy_per_atom": null, "decomposes_to": null, "xas": null, "grain_boundaries": null, "band_gap": 0.0, "cbm": null, "vbm": null, "efermi": 4.28952397, "is_gap_direct": null, "is_metal": null, "es_source_calc_id": null, "bandstructure": null, "dos": null, "dos_energy_up": null, "dos_energy_down": null, "is_magnetic": null, "ordering": null, "total_magnetization": 0.002822, "total_magnetization_normalized_vol": null, "total_magnetization_normalized_formula_units": null, "num_magnetic_sites": null, "num_unique_magnetic_sites": null, "types_of_magnetic_species": null, "bulk_modulus": null, "shear_modulus": null, "universal_anisotropy": null, "homogeneous_poisson": null, "e_total": null, "e_ionic": null, "e_electronic": null, "n": null, "e_ij_max": null, "weighted_surface_energy_EV_PER_ANG2": null, "weighted_surface_energy": null, "weighted_work_function": null, "surface_anisotropy": null, "shape_factor": null, "has_reconstructed": null, "possible_species": null, "has_props": null, "theoretical": null, "database_IDs": null, "fields_not_requested": ["builder_meta", "nsites", "elements", "nelements", "composition", "composition_reduced", "chemsys", "symmetry", "property_name", "deprecated", "deprecation_reasons", "last_updated", "origins", "warnings", "task_ids", "uncorrected_energy_per_atom", "equilibrium_reaction_energy_per_atom", "decomposes_to", "xas", "grain_boundaries", "cbm", "vbm", "is_gap_direct", "is_metal", "es_source_calc_id", "bandstructure", "dos", "dos_energy_up", "dos_energy_down", "is_magnetic", "ordering", "total_magnetization_normalized_vol", "total_magnetization_normalized_formula_units", "num_magnetic_sites", "num_unique_magnetic_sites", "types_of_magnetic_species", "bulk_modulus", "shear_modulus", "universal_anisotropy", "homogeneous_poisson", "e_total", "e_ionic", "e_electronic", "n", "e_ij_max", "weighted_surface_energy_EV_PER_ANG2", "weighted_surface_energy", "weighted_work_function", "surface_anisotropy", "shape_factor", "has_reconstructed", "possible_species", "has_props", "theoretical", "database_IDs"]}