{
  "builder_meta": null,
  "nsites": null,
  "elements": null,
  "nelements": null,
  "composition": null,
  "composition_reduced": null,
  "formula_pretty": "Tb3Tl5",
  "formula_anonymous": "A3B5",
  "chemsys": null,
  "volume": 441.0419090564819,
  "density": 11.28526553597276,
  "density_atomic": 27.56511931603012,
  "symmetry": null,
  "property_name": null,
  "material_id": "mp-1189902",
  "deprecated": null,
  "deprecation_reasons": null,
  "last_updated": null,
  "origins": null,
  "warnings": null,
  "structure": {
    "@module": "pymatgen.core.structure",
    "@class": "Structure",
    "charge": 0,
    "lattice": {
      "matrix": [
        [5.181877, 4.024219, 0.0],
        [-5.181877, 4.024219, 0.0],
        [0.0, 0.0, 10.575019]
      ],
      "pbc": [true, true, true],
      "a": 6.560959366059967,
      "b": 6.560959366059967,
      "c": 10.575019,
      "alpha": 90.0,
      "beta": 90.0,
      "gamma": 104.334541293125,
      "volume": 441.0419090564819
    },
    "properties": {},
    "sites": [
      {
        "species": [{ "element": "Tb", "occu": 1 }],
        "abc": [0.614240999999999, 0.614240999999999, 0.25],
        "properties": { "magmom": 0.0 },
        "label": "Tb",
        "xyz": [0.0, 4.943680605557993, 2.64375475]
      },
      {
        "species": [{ "element": "Tb", "occu": 1 }],
        "abc": [0.385758999999999, 0.385758999999999, 0.75],
        "properties": { "magmom": 0.0 },
        "label": "Tb",
        "xyz": [0.0, 3.1047573944419926, 7.93126425]
      },
      {
        "species": [{ "element": "Tb", "occu": 1 }],
        "abc": [0.793721, 0.206279, 0.5],
        "properties": { "magmom": 0.0 },
        "label": "Tb",
        "xyz": [3.0440521886339997, 4.024219, 5.2875095]
      },
      {
        "species": [{ "element": "Tb", "occu": 1 }],
        "abc": [0.793721, 0.206279, 0.0],
        "properties": { "magmom": 0.0 },
        "label": "Tb",
        "xyz": [3.0440521886339997, 4.024219, 0.0]
      },
      {
        "species": [{ "element": "Tb", "occu": 1 }],
        "abc": [0.206279, 0.793721, 0.5],
        "properties": { "magmom": 0.0 },
        "label": "Tb",
        "xyz": [-3.0440521886339997, 4.024219, 5.2875095]
      },
      {
        "species": [{ "element": "Tb", "occu": 1 }],
        "abc": [0.206279, 0.793721, 0.0],
        "properties": { "magmom": 0.0 },
        "label": "Tb",
        "xyz": [-3.0440521886339997, 4.024219, 0.0]
      },
      {
        "species": [{ "element": "Tl", "occu": 1 }],
        "abc": [0.997294999999999, 0.997294999999999, 0.25],
        "properties": { "magmom": 0.0 },
        "label": "Tl",
        "xyz": [0.0, 8.026666975209993, 2.64375475]
      },
      {
        "species": [{ "element": "Tl", "occu": 1 }],
        "abc": [0.002705, 0.002705, 0.75],
        "properties": { "magmom": 0.0 },
        "label": "Tl",
        "xyz": [0.0, 0.021771024790000003, 7.93126425]
      },
      {
        "species": [{ "element": "Tl", "occu": 1 }],
        "abc": [0.300035999999999, 0.300035999999999, 0.045552999999999004],
        "properties": { "magmom": 0.0 },
        "label": "Tl",
        "xyz": [0.0, 2.4148211437679925, 0.4817238405069894]
      },
      {
        "species": [{ "element": "Tl", "occu": 1 }],
        "abc": [0.699963999999999, 0.699963999999999, 0.954446999999999],
        "properties": { "magmom": 0.0 },
        "label": "Tl",
        "xyz": [0.0, 5.633616856231993, 10.093295159492989]
      },
      {
        "species": [{ "element": "Tl", "occu": 1 }],
        "abc": [0.300035999999999, 0.300035999999999, 0.454447],
        "properties": { "magmom": 0.0 },
        "label": "Tl",
        "xyz": [0.0, 2.4148211437679925, 4.805785659493]
      },
      {
        "species": [{ "element": "Tl", "occu": 1 }],
        "abc": [0.699963999999999, 0.699963999999999, 0.545553],
        "properties": { "magmom": 0.0 },
        "label": "Tl",
        "xyz": [0.0, 5.633616856231993, 5.769233340506999]
      },
      {
        "species": [{ "element": "Tl", "occu": 1 }],
        "abc": [0.053430000000000005, 0.511726, 0.25],
        "properties": { "magmom": 0.0 },
        "label": "Tl",
        "xyz": [-2.374833501592, 2.274311513164, 2.64375475]
      },
      {
        "species": [{ "element": "Tl", "occu": 1 }],
        "abc": [0.488274, 0.94657, 0.75],
        "properties": { "magmom": 0.0 },
        "label": "Tl",
        "xyz": [-2.3748335015919997, 5.774126486836001, 7.93126425]
      },
      {
        "species": [{ "element": "Tl", "occu": 1 }],
        "abc": [0.94657, 0.488274, 0.75],
        "properties": { "magmom": 0.0 },
        "label": "Tl",
        "xyz": [2.3748335015919997, 5.774126486836001, 7.93126425]
      },
      {
        "species": [{ "element": "Tl", "occu": 1 }],
        "abc": [0.511726, 0.053430000000000005, 0.25],
        "properties": { "magmom": 0.0 },
        "label": "Tl",
        "xyz": [2.374833501592, 2.274311513164, 2.64375475]
      }
    ]
  },
  "task_ids": null,
  "uncorrected_energy_per_atom": null,
  "energy_per_atom": -3.514147924375,
  "formation_energy_per_atom": -0.292778992708337,
  "energy_above_hull": 0.0,
  "is_stable": true,
  "equilibrium_reaction_energy_per_atom": null,
  "decomposes_to": null,
  "xas": null,
  "grain_boundaries": null,
  "band_gap": 0.0,
  "cbm": null,
  "vbm": null,
  "efermi": 5.96177682,
  "is_gap_direct": null,
  "is_metal": null,
  "es_source_calc_id": null,
  "bandstructure": null,
  "dos": null,
  "dos_energy_up": null,
  "dos_energy_down": null,
  "is_magnetic": null,
  "ordering": null,
  "total_magnetization": 0.006233499999999,
  "total_magnetization_normalized_vol": null,
  "total_magnetization_normalized_formula_units": null,
  "num_magnetic_sites": null,
  "num_unique_magnetic_sites": null,
  "types_of_magnetic_species": null,
  "bulk_modulus": null,
  "shear_modulus": null,
  "universal_anisotropy": null,
  "homogeneous_poisson": null,
  "e_total": null,
  "e_ionic": null,
  "e_electronic": null,
  "n": null,
  "e_ij_max": null,
  "weighted_surface_energy_EV_PER_ANG2": null,
  "weighted_surface_energy": null,
  "weighted_work_function": null,
  "surface_anisotropy": null,
  "shape_factor": null,
  "has_reconstructed": null,
  "possible_species": null,
  "has_props": null,
  "theoretical": null,
  "database_IDs": null,
  "fields_not_requested": [
    "builder_meta",
    "nsites",
    "elements",
    "nelements",
    "composition",
    "composition_reduced",
    "chemsys",
    "symmetry",
    "property_name",
    "deprecated",
    "deprecation_reasons",
    "last_updated",
    "origins",
    "warnings",
    "task_ids",
    "uncorrected_energy_per_atom",
    "equilibrium_reaction_energy_per_atom",
    "decomposes_to",
    "xas",
    "grain_boundaries",
    "cbm",
    "vbm",
    "is_gap_direct",
    "is_metal",
    "es_source_calc_id",
    "bandstructure",
    "dos",
    "dos_energy_up",
    "dos_energy_down",
    "is_magnetic",
    "ordering",
    "total_magnetization_normalized_vol",
    "total_magnetization_normalized_formula_units",
    "num_magnetic_sites",
    "num_unique_magnetic_sites",
    "types_of_magnetic_species",
    "bulk_modulus",
    "shear_modulus",
    "universal_anisotropy",
    "homogeneous_poisson",
    "e_total",
    "e_ionic",
    "e_electronic",
    "n",
    "e_ij_max",
    "weighted_surface_energy_EV_PER_ANG2",
    "weighted_surface_energy",
    "weighted_work_function",
    "surface_anisotropy",
    "shape_factor",
    "has_reconstructed",
    "possible_species",
    "has_props",
    "theoretical",
    "database_IDs"
  ]
}
