{"builder_meta": null, "nsites": null, "elements": null, "nelements": null, "composition": null, "composition_reduced": null, "formula_pretty": "Tb3Y", "formula_anonymous": "AB3", "chemsys": null, "volume": 129.29435910549117, "density": 7.265103448574353, "density_atomic": 32.32358977637279, "symmetry": null, "property_name": null, "material_id": "mp-1187322", "deprecated": null, "deprecation_reasons": null, "last_updated": null, "origins": null, "warnings": null, "structure": {"@module": "pymatgen.core.structure", "@class": "Structure", "charge": 0, "lattice": {"matrix": [[-2.5294844100000002, 2.5294844100000002, 5.05190962], [2.5294844100000002, -2.5294844100000002, 5.05190962], [2.5294844100000002, 2.5294844100000002, -5.05190962]], "pbc": [true, true, true], "a": 6.190183645863396, "b": 6.190183645863396, "c": 6.190183645863396, "alpha": 131.7626044703507, "beta": 131.7626044703507, "gamma": 70.60422671458466, "volume": 129.2943591054912}, "properties": {}, "sites": [{"species": [{"element": "Tb", "occu": 1}], "abc": [0.75, 0.25, 0.5], "properties": {"magmom": -0.0}, "label": "Tb", "xyz": [0.0, 2.5294844100000002, 2.52595481]}, {"species": [{"element": "Tb", "occu": 1}], "abc": [0.25, 0.75, 0.5], "properties": {"magmom": -0.0}, "label": "Tb", "xyz": [2.5294844100000002, 0.0, 2.52595481]}, {"species": [{"element": "Tb", "occu": 1}], "abc": [0.5, 0.5, -0.0], "properties": {"magmom": -0.0}, "label": "Tb", "xyz": [0.0, 0.0, 5.05190962]}, {"species": [{"element": "Y", "occu": 1}], "abc": [-0.0, -0.0, -0.0], "properties": {"magmom": 0.0}, "label": "Y", "xyz": [0.0, 0.0, 0.0]}]}, "task_ids": null, "uncorrected_energy_per_atom": null, "energy_per_atom": -28.4510335575, "formation_energy_per_atom": 0.047192294999998004, "energy_above_hull": 0.047192294999998004, "is_stable": false, "equilibrium_reaction_energy_per_atom": null, "decomposes_to": null, "xas": null, "grain_boundaries": null, "band_gap": 0.0, "cbm": null, "vbm": null, "efermi": 3.42913871, "is_gap_direct": null, "is_metal": null, "es_source_calc_id": null, "bandstructure": null, "dos": null, "dos_energy_up": null, "dos_energy_down": null, "is_magnetic": null, "ordering": null, "total_magnetization": 1e-07, "total_magnetization_normalized_vol": null, "total_magnetization_normalized_formula_units": null, "num_magnetic_sites": null, "num_unique_magnetic_sites": null, "types_of_magnetic_species": null, "bulk_modulus": null, "shear_modulus": null, "universal_anisotropy": null, "homogeneous_poisson": null, "e_total": null, "e_ionic": null, "e_electronic": null, "n": null, "e_ij_max": null, "weighted_surface_energy_EV_PER_ANG2": null, "weighted_surface_energy": null, "weighted_work_function": null, "surface_anisotropy": null, "shape_factor": null, "has_reconstructed": null, "possible_species": null, "has_props": null, "theoretical": null, "database_IDs": null, "fields_not_requested": ["builder_meta", "nsites", "elements", "nelements", "composition", "composition_reduced", "chemsys", "symmetry", "property_name", "deprecated", "deprecation_reasons", "last_updated", "origins", "warnings", "task_ids", "uncorrected_energy_per_atom", "equilibrium_reaction_energy_per_atom", "decomposes_to", "xas", "grain_boundaries", "cbm", "vbm", "is_gap_direct", "is_metal", "es_source_calc_id", "bandstructure", "dos", "dos_energy_up", "dos_energy_down", "is_magnetic", "ordering", "total_magnetization_normalized_vol", "total_magnetization_normalized_formula_units", "num_magnetic_sites", "num_unique_magnetic_sites", "types_of_magnetic_species", "bulk_modulus", "shear_modulus", "universal_anisotropy", "homogeneous_poisson", "e_total", "e_ionic", "e_electronic", "n", "e_ij_max", "weighted_surface_energy_EV_PER_ANG2", "weighted_surface_energy", "weighted_work_function", "surface_anisotropy", "shape_factor", "has_reconstructed", "possible_species", "has_props", "theoretical", "database_IDs"]}