{"builder_meta": null, "nsites": null, "elements": null, "nelements": null, "composition": null, "composition_reduced": null, "formula_pretty": "Tb4Al", "formula_anonymous": "AB4", "chemsys": null, "volume": 350.45227817702545, "density": 6.279947238686426, "density_atomic": 35.045227817702546, "symmetry": null, "property_name": null, "material_id": "mp-1208467", "deprecated": null, "deprecation_reasons": null, "last_updated": null, "origins": null, "warnings": null, "structure": {"@module": "pymatgen.core.structure", "@class": "Structure", "charge": 0, "lattice": {"matrix": [[-5.595853, -5.595853, 0.0], [-5.595853, 0.0, -5.595853], [0.0, -5.595853, -5.595853]], "pbc": [true, true, true], "a": 7.913731205646171, "b": 7.913731205646171, "c": 7.913731205646171, "alpha": 59.99999999999999, "beta": 59.99999999999999, "gamma": 59.99999999999999, "volume": 350.45227817702545}, "properties": {}, "sites": [{"species": [{"element": "Tb", "occu": 1}], "abc": [0.606731999999999, 0.606731999999999, 0.606731999999999], "properties": {"magmom": 0.116}, "label": "Tb", "xyz": [-6.7903661647919895, -6.7903661647919895, -6.7903661647919895]}, {"species": [{"element": "Tb", "occu": 1}], "abc": [0.179805, 0.606731999999999, 0.606731999999999], "properties": {"magmom": 0.116}, "label": "Tb", "xyz": [-4.401345431060995, -4.401345431060995, -6.7903661647919895]}, {"species": [{"element": "Tb", "occu": 1}], "abc": [0.606731999999999, 0.179805, 0.606731999999999], "properties": {"magmom": 0.116}, "label": "Tb", "xyz": [-4.401345431060995, -6.7903661647919895, -4.401345431060995]}, {"species": [{"element": "Tb", "occu": 1}], "abc": [0.570195, 0.143268, 0.143268], "properties": {"magmom": 0.116}, "label": "Tb", "xyz": [-3.992434068939, -3.992434068939, -1.603413335208]}, {"species": [{"element": "Tb", "occu": 1}], "abc": [0.143268, 0.143268, 0.143268], "properties": {"magmom": 0.116}, "label": "Tb", "xyz": [-1.603413335208, -1.603413335208, -1.603413335208]}, {"species": [{"element": "Tb", "occu": 1}], "abc": [0.606731999999999, 0.606731999999999, 0.179805], "properties": {"magmom": 0.116}, "label": "Tb", "xyz": [-6.7903661647919895, -4.401345431060995, -4.401345431060995]}, {"species": [{"element": "Tb", "occu": 1}], "abc": [0.143268, 0.570195, 0.143268], "properties": {"magmom": 0.116}, "label": "Tb", "xyz": [-3.992434068939, -1.603413335208, -3.992434068939]}, {"species": [{"element": "Tb", "occu": 1}], "abc": [0.143268, 0.143268, 0.570195], "properties": {"magmom": 0.116}, "label": "Tb", "xyz": [-1.603413335208, -3.992434068939, -3.992434068939]}, {"species": [{"element": "Al", "occu": 1}], "abc": [0.0, 0.0, 0.0], "properties": {"magmom": 0.01}, "label": "Al", "xyz": [0.0, 0.0, 0.0]}, {"species": [{"element": "Al", "occu": 1}], "abc": [0.75, 0.75, 0.75], "properties": {"magmom": 0.01}, "label": "Al", "xyz": [-8.3937795, -8.3937795, -8.3937795]}]}, "task_ids": null, "uncorrected_energy_per_atom": null, "energy_per_atom": -25.859977028499998, "formation_energy_per_atom": 0.46758995750000104, "energy_above_hull": 0.6736160965000011, "is_stable": false, "equilibrium_reaction_energy_per_atom": null, "decomposes_to": null, "xas": null, "grain_boundaries": null, "band_gap": 0.0, "cbm": null, "vbm": null, "efermi": 2.4332598500000002, "is_gap_direct": null, "is_metal": null, "es_source_calc_id": null, "bandstructure": null, "dos": null, "dos_energy_up": null, "dos_energy_down": null, "is_magnetic": null, "ordering": null, "total_magnetization": 1.4791708, "total_magnetization_normalized_vol": null, "total_magnetization_normalized_formula_units": null, "num_magnetic_sites": null, "num_unique_magnetic_sites": null, "types_of_magnetic_species": null, "bulk_modulus": null, "shear_modulus": null, "universal_anisotropy": null, "homogeneous_poisson": null, "e_total": null, "e_ionic": null, "e_electronic": null, "n": null, "e_ij_max": null, "weighted_surface_energy_EV_PER_ANG2": null, "weighted_surface_energy": null, "weighted_work_function": null, "surface_anisotropy": null, "shape_factor": null, "has_reconstructed": null, "possible_species": null, "has_props": null, "theoretical": null, "database_IDs": null, "fields_not_requested": ["builder_meta", "nsites", "elements", "nelements", "composition", "composition_reduced", "chemsys", "symmetry", "property_name", "deprecated", "deprecation_reasons", "last_updated", "origins", "warnings", "task_ids", "uncorrected_energy_per_atom", "equilibrium_reaction_energy_per_atom", "decomposes_to", "xas", "grain_boundaries", "cbm", "vbm", "is_gap_direct", "is_metal", "es_source_calc_id", "bandstructure", "dos", "dos_energy_up", "dos_energy_down", "is_magnetic", "ordering", "total_magnetization_normalized_vol", "total_magnetization_normalized_formula_units", "num_magnetic_sites", "num_unique_magnetic_sites", "types_of_magnetic_species", "bulk_modulus", "shear_modulus", "universal_anisotropy", "homogeneous_poisson", "e_total", "e_ionic", "e_electronic", "n", "e_ij_max", "weighted_surface_energy_EV_PER_ANG2", "weighted_surface_energy", "weighted_work_function", "surface_anisotropy", "shape_factor", "has_reconstructed", "possible_species", "has_props", "theoretical", "database_IDs"]}