{"builder_meta": null, "nsites": null, "elements": null, "nelements": null, "composition": null, "composition_reduced": null, "formula_pretty": "Tb4Bi3", "formula_anonymous": "A3B4", "chemsys": null, "volume": 413.9150463199425, "density": 10.130906731197895, "density_atomic": 29.565360451424464, "symmetry": null, "property_name": null, "material_id": "mp-570759", "deprecated": null, "deprecation_reasons": null, "last_updated": null, "origins": null, "warnings": null, "structure": {"@module": "pymatgen.core.structure", "@class": "Structure", "charge": 0, "lattice": {"matrix": [[-4.69480557, 4.69479227, 4.69476075], [4.69483712, -4.69483298, 4.69483298], [4.69477402, 4.69480145, -4.69480145]], "pbc": [true, true, true], "a": 8.13160822336488, "b": 8.131691644640817, "c": 8.131618806160995, "alpha": 109.47135462380707, "beta": 109.47108931972262, "gamma": 109.47145213839454, "volume": 413.9150463199426}, "properties": {}, "sites": [{"species": [{"element": "Tb", "occu": 1}], "abc": [0.49999033, 0.99999536, 0.35493924], "properties": {"magmom": 0.004}, "label": "Tb", "xyz": [4.01381747235617, -0.6810912010023262, 5.375776914024622]}, {"species": [{"element": "Tb", "occu": 1}], "abc": [0.50000967, 5.03e-06, 0.8549489100000001], "properties": {"magmom": 0.004}, "label": "Tb", "xyz": [1.6663673623561706, 6.361233300975281, -1.6663659939975775]}, {"species": [{"element": "Tb", "occu": 1}], "abc": [0.64506085, 0.64505036, 0.64506168], "properties": {"magmom": 0.004}, "label": "Tb", "xyz": [3.028389919389982, 3.028459498974192, 3.0283735532270755]}, {"species": [{"element": "Tb", "occu": 1}], "abc": [1.418e-05, 0.35495198, 0.50000507], "properties": {"magmom": 0.004}, "label": "Tb", "xyz": [4.013785971682797, 0.68105083777744, -0.6809176939156163]}, {"species": [{"element": "Tb", "occu": 1}], "abc": [0.1450544, 0.14506386000000002, 0.14505266], "properties": {"magmom": 0.004}, "label": "Tb", "xyz": [0.6810384493253684, 0.6809431202097421, 0.6810528593745457]}, {"species": [{"element": "Tb", "occu": 1}], "abc": [0.8549456, 0.50000947, 0.99999827], "properties": {"magmom": 0.004}, "label": "Tb", "xyz": [3.028425553221479, 6.3611243720756825, 1.6664326683400281]}, {"species": [{"element": "Tb", "occu": 1}], "abc": [0.99998582, 0.8549388, 0.49999189], "properties": {"magmom": 0.004}, "label": "Tb", "xyz": [1.6664083512939358, 3.028293473884228, 6.36112640225395]}, {"species": [{"element": "Tb", "occu": 1}], "abc": [0.35493915, 0.49998851, 8.3e-07], "properties": {"magmom": 0.004}, "label": "Tb", "xyz": [0.6809982145528622, -0.6809930719434859, 4.0137130397422185]}, {"species": [{"element": "Bi", "occu": 1}], "abc": [0.12498825000000001, 0.74999525, 0.8750051400000001], "properties": {"magmom": -0.0}, "label": "Bi", "xyz": [7.04226140587759, 1.173666835426935, -8.303517491992096e-05]}, {"species": [{"element": "Bi", "occu": 1}], "abc": [0.87501175, 0.12500701, 0.75001689], "properties": {"magmom": -0.0}, "label": "Bi", "xyz": [3.732282596224934e-05, 7.0422917494764725, 1.173677470271512]}, {"species": [{"element": "Bi", "occu": 1}], "abc": [0.62499157, 0.37500985000000003, 0.25000135], "properties": {"magmom": -0.0}, "label": "Bi", "xyz": [9.610305151408483e-05, 2.3473036805282685, 3.5210878030397734]}, {"species": [{"element": "Bi", "occu": 1}], "abc": [0.37500843, 0.25001828, 0.62500878], "properties": {"magmom": -0.0}, "label": "Bi", "xyz": [2.347478418277494, 3.5210847384086925, 7.67980232661003e-05]}, {"species": [{"element": "Bi", "occu": 1}], "abc": [0.75000544, 0.87498584, 0.12498736], "properties": {"magmom": -0.0}, "label": "Bi", "xyz": [1.1735736944204676, -1.7975353824306595e-06, 7.042217641703811]}, {"species": [{"element": "Bi", "occu": 1}], "abc": [0.24999456, 0.6249804, 0.37498193], "properties": {"magmom": -0.0}, "label": "Bi", "xyz": [3.5209607513682073, -4.0357255742362597e-05, 2.347377533087314]}]}, "task_ids": null, "uncorrected_energy_per_atom": null, "energy_per_atom": -43.81536189642857, "formation_energy_per_atom": -0.8992822057142901, "energy_above_hull": 0.058240534642862, "is_stable": false, "equilibrium_reaction_energy_per_atom": null, "decomposes_to": null, "xas": null, "grain_boundaries": null, "band_gap": 0.0, "cbm": null, "vbm": null, "efermi": 5.28133351, "is_gap_direct": null, "is_metal": null, "es_source_calc_id": null, "bandstructure": null, "dos": null, "dos_energy_up": null, "dos_energy_down": null, "is_magnetic": null, "ordering": null, "total_magnetization": 0.0410452, "total_magnetization_normalized_vol": null, "total_magnetization_normalized_formula_units": null, "num_magnetic_sites": null, "num_unique_magnetic_sites": null, "types_of_magnetic_species": null, "bulk_modulus": null, "shear_modulus": null, "universal_anisotropy": null, "homogeneous_poisson": null, "e_total": null, "e_ionic": null, "e_electronic": null, "n": null, "e_ij_max": null, "weighted_surface_energy_EV_PER_ANG2": null, "weighted_surface_energy": null, "weighted_work_function": null, "surface_anisotropy": null, "shape_factor": null, "has_reconstructed": null, "possible_species": null, "has_props": null, "theoretical": null, "database_IDs": null, "fields_not_requested": ["builder_meta", "nsites", "elements", "nelements", "composition", "composition_reduced", "chemsys", "symmetry", "property_name", "deprecated", "deprecation_reasons", "last_updated", "origins", "warnings", "task_ids", "uncorrected_energy_per_atom", "equilibrium_reaction_energy_per_atom", "decomposes_to", "xas", "grain_boundaries", "cbm", "vbm", "is_gap_direct", "is_metal", "es_source_calc_id", "bandstructure", "dos", "dos_energy_up", "dos_energy_down", "is_magnetic", "ordering", "total_magnetization_normalized_vol", "total_magnetization_normalized_formula_units", "num_magnetic_sites", "num_unique_magnetic_sites", "types_of_magnetic_species", "bulk_modulus", "shear_modulus", "universal_anisotropy", "homogeneous_poisson", "e_total", "e_ionic", "e_electronic", "n", "e_ij_max", "weighted_surface_energy_EV_PER_ANG2", "weighted_surface_energy", "weighted_work_function", "surface_anisotropy", "shape_factor", "has_reconstructed", "possible_species", "has_props", "theoretical", "database_IDs"]}