{
  "builder_meta": null,
  "nsites": null,
  "elements": null,
  "nelements": null,
  "composition": null,
  "composition_reduced": null,
  "formula_pretty": "Tb4C5",
  "formula_anonymous": "A4B5",
  "chemsys": null,
  "volume": 292.10060008315946,
  "density": 7.910481470421222,
  "density_atomic": 16.227811115731082,
  "symmetry": null,
  "property_name": null,
  "material_id": "mp-15237",
  "deprecated": null,
  "deprecation_reasons": null,
  "last_updated": null,
  "origins": null,
  "warnings": null,
  "structure": {
    "@module": "pymatgen.core.structure",
    "@class": "Structure",
    "charge": 0,
    "lattice": {
      "matrix": [
        [3.68039986, 0.0, 0.0],
        [0.0, 6.6084079, 0.0],
        [0.0, 0.0, 12.00993348]
      ],
      "pbc": [true, true, true],
      "a": 3.68039986,
      "b": 6.6084079,
      "c": 12.00993348,
      "alpha": 90.0,
      "beta": 90.0,
      "gamma": 90.0,
      "volume": 292.10060008315946
    },
    "properties": {},
    "sites": [
      {
        "species": [{ "element": "Tb", "occu": 1 }],
        "abc": [-0.0, 0.25574383, 0.54228869],
        "properties": { "magmom": -0.0 },
        "label": "Tb",
        "xyz": [0.0, 1.6900595465482569, 6.512851093856342]
      },
      {
        "species": [{ "element": "Tb", "occu": 1 }],
        "abc": [-0.0, 0.74425617, 0.45771131],
        "properties": { "magmom": -0.0 },
        "label": "Tb",
        "xyz": [0.0, 4.9183483534517425, 5.497082386143659]
      },
      {
        "species": [{ "element": "Tb", "occu": 1 }],
        "abc": [0.0, 0.75574383, 0.95771131],
        "properties": { "magmom": -0.0 },
        "label": "Tb",
        "xyz": [0.0, 4.994263496548257, 11.502049126143659]
      },
      {
        "species": [{ "element": "Tb", "occu": 1 }],
        "abc": [-0.0, 0.24425617, 0.042288690000000004],
        "properties": { "magmom": -0.0 },
        "label": "Tb",
        "xyz": [0.0, 1.614144403451743, 0.5078843538563412]
      },
      {
        "species": [{ "element": "Tb", "occu": 1 }],
        "abc": [0.5, 0.10790625000000001, 0.80410566],
        "properties": { "magmom": 0.0 },
        "label": "Tb",
        "xyz": [1.84019993, 0.713088514959375, 9.657255487491499]
      },
      {
        "species": [{ "element": "Tb", "occu": 1 }],
        "abc": [0.5, 0.89209375, 0.19589434],
        "properties": { "magmom": 0.0 },
        "label": "Tb",
        "xyz": [1.84019993, 5.895319385040625, 2.3526779925085033]
      },
      {
        "species": [{ "element": "Tb", "occu": 1 }],
        "abc": [0.5, 0.60790625, 0.6958943400000001],
        "properties": { "magmom": 0.0 },
        "label": "Tb",
        "xyz": [1.84019993, 4.017292464959374, 8.357644732508504]
      },
      {
        "species": [{ "element": "Tb", "occu": 1 }],
        "abc": [0.5, 0.39209375, 0.30410566],
        "properties": { "magmom": 0.0 },
        "label": "Tb",
        "xyz": [1.84019993, 2.591115435040625, 3.652288747491497]
      },
      {
        "species": [{ "element": "C", "occu": 1 }],
        "abc": [0.5, 0.5, 0.5],
        "properties": { "magmom": 0.0 },
        "label": "C",
        "xyz": [1.84019993, 3.30420395, 6.00496674]
      },
      {
        "species": [{ "element": "C", "occu": 1 }],
        "abc": [0.5, 0.0, -0.0],
        "properties": { "magmom": 0.0 },
        "label": "C",
        "xyz": [1.84019993, 0.0, 0.0]
      },
      {
        "species": [{ "element": "C", "occu": 1 }],
        "abc": [-0.0, 0.3621409, 0.73498486],
        "properties": { "magmom": -0.0 },
        "label": "C",
        "xyz": [0.0, 2.3931747844731097, 8.827119277407112]
      },
      {
        "species": [{ "element": "C", "occu": 1 }],
        "abc": [0.0, 0.6378591, 0.26501514],
        "properties": { "magmom": -0.0 },
        "label": "C",
        "xyz": [0.0, 4.21523311552689, 3.1828142025928874]
      },
      {
        "species": [{ "element": "C", "occu": 1 }],
        "abc": [-0.0, 0.8621409, 0.76501514],
        "properties": { "magmom": -0.0 },
        "label": "C",
        "xyz": [0.0, 5.6973787344731095, 9.18778094259289]
      },
      {
        "species": [{ "element": "C", "occu": 1 }],
        "abc": [-0.0, 0.137859099999999, 0.23498486000000002],
        "properties": { "magmom": -0.0 },
        "label": "C",
        "xyz": [0.0, 0.9110291655268834, 2.822152537407113]
      },
      {
        "species": [{ "element": "C", "occu": 1 }],
        "abc": [-0.0, 0.40200519, 0.84315618],
        "properties": { "magmom": 0.0 },
        "label": "C",
        "xyz": [0.0, 2.656614273437001, 10.126249635050907]
      },
      {
        "species": [{ "element": "C", "occu": 1 }],
        "abc": [0.0, 0.59799481, 0.15684382],
        "properties": { "magmom": 0.0 },
        "label": "C",
        "xyz": [0.0, 3.9517936265629987, 1.8836838449490936]
      },
      {
        "species": [{ "element": "C", "occu": 1 }],
        "abc": [-0.0, 0.09799481, 0.34315618000000003],
        "properties": { "magmom": 0.0 },
        "label": "C",
        "xyz": [0.0, 0.6475896765629989, 4.121282895050907]
      },
      {
        "species": [{ "element": "C", "occu": 1 }],
        "abc": [-0.0, 0.90200519, 0.65684382],
        "properties": { "magmom": 0.0 },
        "label": "C",
        "xyz": [0.0, 5.960818223437001, 7.888650584949094]
      }
    ]
  },
  "task_ids": null,
  "uncorrected_energy_per_atom": null,
  "energy_per_atom": -7.495048190555555,
  "formation_energy_per_atom": -0.30673908435185104,
  "energy_above_hull": 0.0,
  "is_stable": true,
  "equilibrium_reaction_energy_per_atom": null,
  "decomposes_to": null,
  "xas": null,
  "grain_boundaries": null,
  "band_gap": 0.0,
  "cbm": null,
  "vbm": null,
  "efermi": 4.18825079,
  "is_gap_direct": null,
  "is_metal": null,
  "es_source_calc_id": null,
  "bandstructure": null,
  "dos": null,
  "dos_energy_up": null,
  "dos_energy_down": null,
  "is_magnetic": null,
  "ordering": null,
  "total_magnetization": 0.0,
  "total_magnetization_normalized_vol": null,
  "total_magnetization_normalized_formula_units": null,
  "num_magnetic_sites": null,
  "num_unique_magnetic_sites": null,
  "types_of_magnetic_species": null,
  "bulk_modulus": null,
  "shear_modulus": null,
  "universal_anisotropy": null,
  "homogeneous_poisson": null,
  "e_total": null,
  "e_ionic": null,
  "e_electronic": null,
  "n": null,
  "e_ij_max": null,
  "weighted_surface_energy_EV_PER_ANG2": null,
  "weighted_surface_energy": null,
  "weighted_work_function": null,
  "surface_anisotropy": null,
  "shape_factor": null,
  "has_reconstructed": null,
  "possible_species": null,
  "has_props": null,
  "theoretical": null,
  "database_IDs": null,
  "fields_not_requested": [
    "builder_meta",
    "nsites",
    "elements",
    "nelements",
    "composition",
    "composition_reduced",
    "chemsys",
    "symmetry",
    "property_name",
    "deprecated",
    "deprecation_reasons",
    "last_updated",
    "origins",
    "warnings",
    "task_ids",
    "uncorrected_energy_per_atom",
    "equilibrium_reaction_energy_per_atom",
    "decomposes_to",
    "xas",
    "grain_boundaries",
    "cbm",
    "vbm",
    "is_gap_direct",
    "is_metal",
    "es_source_calc_id",
    "bandstructure",
    "dos",
    "dos_energy_up",
    "dos_energy_down",
    "is_magnetic",
    "ordering",
    "total_magnetization_normalized_vol",
    "total_magnetization_normalized_formula_units",
    "num_magnetic_sites",
    "num_unique_magnetic_sites",
    "types_of_magnetic_species",
    "bulk_modulus",
    "shear_modulus",
    "universal_anisotropy",
    "homogeneous_poisson",
    "e_total",
    "e_ionic",
    "e_electronic",
    "n",
    "e_ij_max",
    "weighted_surface_energy_EV_PER_ANG2",
    "weighted_surface_energy",
    "weighted_work_function",
    "surface_anisotropy",
    "shape_factor",
    "has_reconstructed",
    "possible_species",
    "has_props",
    "theoretical",
    "database_IDs"
  ]
}
