{"builder_meta": null, "nsites": null, "elements": null, "nelements": null, "composition": null, "composition_reduced": null, "formula_pretty": "Tb4Co3", "formula_anonymous": "A3B4", "chemsys": null, "volume": 447.93736115529276, "density": 9.03601537342453, "density_atomic": 21.330350531204417, "symmetry": null, "property_name": null, "material_id": "mp-1217743", "deprecated": null, "deprecation_reasons": null, "last_updated": null, "origins": null, "warnings": null, "structure": {"@module": "pymatgen.core.structure", "@class": "Structure", "charge": 0, "lattice": {"matrix": [[5.6595576, -9.79873676, -0.00010175], [5.65924136, 9.79843762, -0.00010731], [-7.496000000000001e-05, -2.029999999999998e-06, 4.03881053]], "pbc": [true, true, true], "a": 11.315733928024558, "b": 11.315316724479317, "c": 4.038810530696136, "alpha": 90.00110015951614, "beta": 90.00102212212262, "gamma": 119.98085883668661, "volume": 447.93736115529276}, "properties": {}, "sites": [{"species": [{"element": "Tb", "occu": 1}], "abc": [0.61960796, 0.48569157, 0.7499521], "properties": {"magmom": 0.34}, "label": "Tb", "xyz": [6.2552965437764145, -1.312358265638509, 3.0287992738033065]}, {"species": [{"element": "Tb", "occu": 1}], "abc": [0.51434399, 0.13396595, 0.7499467400000001], "properties": {"magmom": 0.34}, "label": "Tb", "xyz": [3.6690488666828855, -3.7272658802109153, 3.0288260800640954]}, {"species": [{"element": "Tb", "occu": 1}], "abc": [0.86602941, 0.38036437, 0.74995518], "properties": {"magmom": 0.34}, "label": "Tb", "xyz": [7.053860887123066, -4.759019185101528, 3.0287979426190335]}, {"species": [{"element": "Tb", "occu": 1}], "abc": [0.38039204, 0.51430843, 0.2500479], "properties": {"magmom": 0.34}, "label": "Tb", "xyz": [5.063427456223586, 1.3120570956385091, 1.0098021961966939]}, {"species": [{"element": "Tb", "occu": 1}], "abc": [0.48565601, 0.86603405, 0.25005326], "properties": {"magmom": 0.34}, "label": "Tb", "xyz": [7.649675133317115, 3.7269647102109142, 1.009775389935905]}, {"species": [{"element": "Tb", "occu": 1}], "abc": [0.13397059, 0.61963563, 0.25004482], "properties": {"magmom": 0.34}, "label": "Tb", "xyz": [4.2648631128769345, 4.758718015101527, 1.009803527380967]}, {"species": [{"element": "Tb", "occu": 1}], "abc": [0.78281392, 0.03360908, 0.75094784], "properties": {"magmom": 0.167}, "label": "Tb", "xyz": [4.620526074879256, -7.341272584722225, 3.032852785766021]}, {"species": [{"element": "Tb", "occu": 1}], "abc": [0.96640791, 0.7491713600000001, 0.75090481], "properties": {"magmom": 0.167}, "label": "Tb", "xyz": [9.70912649015551, -2.1288693995579733, 3.0325835280721654]}, {"species": [{"element": "Tb", "occu": 1}], "abc": [0.2508333, 0.21725232, 0.7509203600000001], "properties": {"magmom": 0.167}, "label": "Tb", "xyz": [2.6490325352578497, -0.3291176963901604, 3.032776221524657]}, {"species": [{"element": "Tb", "occu": 1}], "abc": [0.21718608, 0.96639092, 0.24905216], "properties": {"magmom": 0.167}, "label": "Tb", "xyz": [6.698197925120746, 7.340971414722224, 1.0057486842339796]}, {"species": [{"element": "Tb", "occu": 1}], "abc": [0.03359209, 0.25082864, 0.24909519], "properties": {"magmom": 0.167}, "label": "Tb", "xyz": [1.609597509844492, 2.1285682295579726, 1.0060179419278348]}, {"species": [{"element": "Tb", "occu": 1}], "abc": [0.7491667, 0.7827476800000001, 0.24907964000000002], "properties": {"magmom": 0.167}, "label": "Tb", "xyz": [8.669691464742153, 0.32881652639016035, 1.0058252484753434]}, {"species": [{"element": "Co", "occu": 1}], "abc": [0.3333193, 0.66661901, 0.74700428], "properties": {"magmom": -0.993}, "label": "Co", "xyz": [5.658941654855105, 3.2657151916449996, 3.0169033018943305]}, {"species": [{"element": "Co", "occu": 1}], "abc": [0.6666807, 0.33338099, 0.25299572], "properties": {"magmom": -0.993}, "label": "Co", "xyz": [5.659782345144896, -3.2660163616450006, 1.0216981681056698]}, {"species": [{"element": "Co", "occu": 1}], "abc": [0.2843333, 0.83953412, 0.74900418], "properties": {"magmom": -0.791}, "label": "Co", "xyz": [6.360270758629952, 5.440014025401001, 3.0249669478783234]}, {"species": [{"element": "Co", "occu": 1}], "abc": [0.16035641, 0.444689299999999, 0.74902743], "properties": {"magmom": -0.788}, "label": "Co", "xyz": [3.424094270737506, 2.7859685964371415, 3.0251158356693377]}, {"species": [{"element": "Co", "occu": 1}], "abc": [0.55523793, 0.7155373700000001, 0.74901915], "properties": {"magmom": -0.788}, "label": "Co", "xyz": [7.191743578993908, 1.5705164489776784, 3.025013150417097]}, {"species": [{"element": "Co", "occu": 1}], "abc": [0.7156667, 0.16046588, 0.25099582], "properties": {"magmom": -0.791}, "label": "Co", "xyz": [4.95845324137005, -5.440315195401001, 1.0136345221216767]}, {"species": [{"element": "Co", "occu": 1}], "abc": [0.83964359, 0.555310699999999, 0.25097257], "properties": {"magmom": -0.788}, "label": "Co", "xyz": [7.894629729262484, -2.7862697664371616, 1.0134856343306626]}, {"species": [{"element": "Co", "occu": 1}], "abc": [0.44476207, 0.28446263, 0.25098085], "properties": {"magmom": -0.788}, "label": "Co", "xyz": [4.126980421006093, -1.5708176189776786, 1.0135883195829025]}, {"species": [{"element": "Co", "occu": 1}], "abc": [0.0, 0.0, 0.5], "properties": {"magmom": 1.335}, "label": "Co", "xyz": [-3.748000000000001e-05, -1.014999999999999e-06, 2.019405265]}]}, "task_ids": null, "uncorrected_energy_per_atom": null, "energy_per_atom": -5.844600173809527, "formation_energy_per_atom": -0.137213794761907, "energy_above_hull": 0.014821237661061, "is_stable": false, "equilibrium_reaction_energy_per_atom": null, "decomposes_to": null, "xas": null, "grain_boundaries": null, "band_gap": 0.0, "cbm": null, "vbm": null, "efermi": 3.93657048, "is_gap_direct": null, "is_metal": null, "es_source_calc_id": null, "bandstructure": null, "dos": null, "dos_energy_up": null, "dos_energy_down": null, "is_magnetic": null, "ordering": null, "total_magnetization": 1.0515533, "total_magnetization_normalized_vol": null, "total_magnetization_normalized_formula_units": null, "num_magnetic_sites": null, "num_unique_magnetic_sites": null, "types_of_magnetic_species": null, "bulk_modulus": null, "shear_modulus": null, "universal_anisotropy": null, "homogeneous_poisson": null, "e_total": null, "e_ionic": null, "e_electronic": null, "n": null, "e_ij_max": null, "weighted_surface_energy_EV_PER_ANG2": null, "weighted_surface_energy": null, "weighted_work_function": null, "surface_anisotropy": null, "shape_factor": null, "has_reconstructed": null, "possible_species": null, "has_props": null, "theoretical": null, "database_IDs": null, "fields_not_requested": ["builder_meta", "nsites", "elements", "nelements", "composition", "composition_reduced", "chemsys", "symmetry", "property_name", "deprecated", "deprecation_reasons", "last_updated", "origins", "warnings", "task_ids", "uncorrected_energy_per_atom", "equilibrium_reaction_energy_per_atom", "decomposes_to", "xas", "grain_boundaries", "cbm", "vbm", "is_gap_direct", "is_metal", "es_source_calc_id", "bandstructure", "dos", "dos_energy_up", "dos_energy_down", "is_magnetic", "ordering", "total_magnetization_normalized_vol", "total_magnetization_normalized_formula_units", "num_magnetic_sites", "num_unique_magnetic_sites", "types_of_magnetic_species", "bulk_modulus", "shear_modulus", "universal_anisotropy", "homogeneous_poisson", "e_total", "e_ionic", "e_electronic", "n", "e_ij_max", "weighted_surface_energy_EV_PER_ANG2", "weighted_surface_energy", "weighted_work_function", "surface_anisotropy", "shape_factor", "has_reconstructed", "possible_species", "has_props", "theoretical", "database_IDs"]}