{
  "builder_meta": null,
  "nsites": null,
  "elements": null,
  "nelements": null,
  "composition": null,
  "composition_reduced": null,
  "formula_pretty": "Tb4Co",
  "formula_anonymous": "AB4",
  "chemsys": null,
  "volume": 295.6572472504276,
  "density": 7.802737072988836,
  "density_atomic": 29.56572472504276,
  "symmetry": null,
  "property_name": null,
  "material_id": "mp-1208529",
  "deprecated": null,
  "deprecation_reasons": null,
  "last_updated": null,
  "origins": null,
  "warnings": null,
  "structure": {
    "@module": "pymatgen.core.structure",
    "@class": "Structure",
    "charge": 0,
    "lattice": {
      "matrix": [
        [0.0, 5.28753, 5.28753],
        [5.28753, 0.0, 5.28753],
        [5.28753, 5.28753, 0.0]
      ],
      "pbc": [true, true, true],
      "a": 7.477696637454612,
      "b": 7.477696637454612,
      "c": 7.477696637454612,
      "alpha": 59.99999999999999,
      "beta": 59.99999999999999,
      "gamma": 59.99999999999999,
      "volume": 295.6572472504276
    },
    "properties": {},
    "sites": [
      {
        "species": [{ "element": "Tb", "occu": 1 }],
        "abc": [0.385131, 0.385131, 0.385131],
        "properties": { "magmom": 0.085 },
        "label": "Tb",
        "xyz": [4.0727834328600006, 4.0727834328600006, 4.0727834328600006]
      },
      {
        "species": [{ "element": "Tb", "occu": 1 }],
        "abc": [0.385131, 0.385131, 0.844606],
        "properties": { "magmom": 0.085 },
        "label": "Tb",
        "xyz": [6.5022712796099995, 6.5022712796099995, 4.0727834328600006]
      },
      {
        "species": [{ "element": "Tb", "occu": 1 }],
        "abc": [0.385131, 0.844606, 0.385131],
        "properties": { "magmom": 0.085 },
        "label": "Tb",
        "xyz": [6.5022712796099995, 4.0727834328600006, 6.5022712796099995]
      },
      {
        "species": [{ "element": "Tb", "occu": 1 }],
        "abc": [0.864869, 0.864869, 0.405394],
        "properties": { "magmom": 0.085 },
        "label": "Tb",
        "xyz": [6.71655372039, 6.71655372039, 9.146041567140001]
      },
      {
        "species": [{ "element": "Tb", "occu": 1 }],
        "abc": [0.864869, 0.864869, 0.864869],
        "properties": { "magmom": 0.085 },
        "label": "Tb",
        "xyz": [9.146041567140001, 9.146041567140001, 9.146041567140001]
      },
      {
        "species": [{ "element": "Tb", "occu": 1 }],
        "abc": [0.844606, 0.385131, 0.385131],
        "properties": { "magmom": 0.084 },
        "label": "Tb",
        "xyz": [4.0727834328600006, 6.5022712796099995, 6.5022712796099995]
      },
      {
        "species": [{ "element": "Tb", "occu": 1 }],
        "abc": [0.864869, 0.405394, 0.864869],
        "properties": { "magmom": 0.085 },
        "label": "Tb",
        "xyz": [6.71655372039, 9.146041567140001, 6.71655372039]
      },
      {
        "species": [{ "element": "Tb", "occu": 1 }],
        "abc": [0.405394, 0.864869, 0.864869],
        "properties": { "magmom": 0.084 },
        "label": "Tb",
        "xyz": [9.146041567140001, 6.71655372039, 6.71655372039]
      },
      {
        "species": [{ "element": "Co", "occu": 1 }],
        "abc": [0.0, 0.0, 0.0],
        "properties": { "magmom": 0.128 },
        "label": "Co",
        "xyz": [0.0, 0.0, 0.0]
      },
      {
        "species": [{ "element": "Co", "occu": 1 }],
        "abc": [0.25, 0.25, 0.25],
        "properties": { "magmom": 0.128 },
        "label": "Co",
        "xyz": [2.643765, 2.643765, 2.643765]
      }
    ]
  },
  "task_ids": null,
  "uncorrected_energy_per_atom": null,
  "energy_per_atom": -4.830753915,
  "formation_energy_per_atom": 0.306220327666667,
  "energy_above_hull": 0.412632647666666,
  "is_stable": false,
  "equilibrium_reaction_energy_per_atom": null,
  "decomposes_to": null,
  "xas": null,
  "grain_boundaries": null,
  "band_gap": 0.0,
  "cbm": null,
  "vbm": null,
  "efermi": 3.05048237,
  "is_gap_direct": null,
  "is_metal": null,
  "es_source_calc_id": null,
  "bandstructure": null,
  "dos": null,
  "dos_energy_up": null,
  "dos_energy_down": null,
  "is_magnetic": null,
  "ordering": null,
  "total_magnetization": 1.2938001,
  "total_magnetization_normalized_vol": null,
  "total_magnetization_normalized_formula_units": null,
  "num_magnetic_sites": null,
  "num_unique_magnetic_sites": null,
  "types_of_magnetic_species": null,
  "bulk_modulus": null,
  "shear_modulus": null,
  "universal_anisotropy": null,
  "homogeneous_poisson": null,
  "e_total": null,
  "e_ionic": null,
  "e_electronic": null,
  "n": null,
  "e_ij_max": null,
  "weighted_surface_energy_EV_PER_ANG2": null,
  "weighted_surface_energy": null,
  "weighted_work_function": null,
  "surface_anisotropy": null,
  "shape_factor": null,
  "has_reconstructed": null,
  "possible_species": null,
  "has_props": null,
  "theoretical": null,
  "database_IDs": null,
  "fields_not_requested": [
    "builder_meta",
    "nsites",
    "elements",
    "nelements",
    "composition",
    "composition_reduced",
    "chemsys",
    "symmetry",
    "property_name",
    "deprecated",
    "deprecation_reasons",
    "last_updated",
    "origins",
    "warnings",
    "task_ids",
    "uncorrected_energy_per_atom",
    "equilibrium_reaction_energy_per_atom",
    "decomposes_to",
    "xas",
    "grain_boundaries",
    "cbm",
    "vbm",
    "is_gap_direct",
    "is_metal",
    "es_source_calc_id",
    "bandstructure",
    "dos",
    "dos_energy_up",
    "dos_energy_down",
    "is_magnetic",
    "ordering",
    "total_magnetization_normalized_vol",
    "total_magnetization_normalized_formula_units",
    "num_magnetic_sites",
    "num_unique_magnetic_sites",
    "types_of_magnetic_species",
    "bulk_modulus",
    "shear_modulus",
    "universal_anisotropy",
    "homogeneous_poisson",
    "e_total",
    "e_ionic",
    "e_electronic",
    "n",
    "e_ij_max",
    "weighted_surface_energy_EV_PER_ANG2",
    "weighted_surface_energy",
    "weighted_work_function",
    "surface_anisotropy",
    "shape_factor",
    "has_reconstructed",
    "possible_species",
    "has_props",
    "theoretical",
    "database_IDs"
  ]
}
