{
  "builder_meta": null,
  "nsites": null,
  "elements": null,
  "nelements": null,
  "composition": null,
  "composition_reduced": null,
  "formula_pretty": "Tb4Ir",
  "formula_anonymous": "AB4",
  "chemsys": null,
  "volume": 323.9142827968323,
  "density": 8.488608994245991,
  "density_atomic": 32.39142827968323,
  "symmetry": null,
  "property_name": null,
  "material_id": "mp-1208454",
  "deprecated": null,
  "deprecation_reasons": null,
  "last_updated": null,
  "origins": null,
  "warnings": null,
  "structure": {
    "@module": "pymatgen.core.structure",
    "@class": "Structure",
    "charge": 0,
    "lattice": {
      "matrix": [
        [-5.450881, -5.450881, 0.0],
        [-5.450881, 0.0, -5.450881],
        [0.0, -5.450881, -5.450881]
      ],
      "pbc": [true, true, true],
      "a": 7.708709837081819,
      "b": 7.708709837081819,
      "c": 7.708709837081819,
      "alpha": 59.99999999999999,
      "beta": 59.99999999999999,
      "gamma": 59.99999999999999,
      "volume": 323.9142827968323
    },
    "properties": {},
    "sites": [
      {
        "species": [{ "element": "Tb", "occu": 1 }],
        "abc": [0.611522, 0.611522, 0.611522],
        "properties": { "magmom": 0.001 },
        "label": "Tb",
        "xyz": [-6.666667301764, -6.666667301764, -6.666667301764]
      },
      {
        "species": [{ "element": "Tb", "occu": 1 }],
        "abc": [0.165434, 0.611522, 0.611522],
        "properties": { "magmom": 0.001 },
        "label": "Tb",
        "xyz": [-4.235094698236, -4.235094698236, -6.666667301764]
      },
      {
        "species": [{ "element": "Tb", "occu": 1 }],
        "abc": [0.611522, 0.165434, 0.611522],
        "properties": { "magmom": 0.001 },
        "label": "Tb",
        "xyz": [-4.235094698236, -6.666667301764, -4.235094698236]
      },
      {
        "species": [{ "element": "Tb", "occu": 1 }],
        "abc": [0.584565999999999, 0.138478, 0.138478],
        "properties": { "magmom": 0.001 },
        "label": "Tb",
        "xyz": [-3.941226801763994, -3.941226801763994, -1.509654198236]
      },
      {
        "species": [{ "element": "Tb", "occu": 1 }],
        "abc": [0.138478, 0.138478, 0.138478],
        "properties": { "magmom": 0.001 },
        "label": "Tb",
        "xyz": [-1.509654198236, -1.509654198236, -1.509654198236]
      },
      {
        "species": [{ "element": "Tb", "occu": 1 }],
        "abc": [0.611522, 0.611522, 0.165434],
        "properties": { "magmom": 0.001 },
        "label": "Tb",
        "xyz": [-6.666667301764, -4.235094698236, -4.235094698236]
      },
      {
        "species": [{ "element": "Tb", "occu": 1 }],
        "abc": [0.138478, 0.584565999999999, 0.138478],
        "properties": { "magmom": 0.001 },
        "label": "Tb",
        "xyz": [-3.941226801763994, -1.509654198236, -3.941226801763994]
      },
      {
        "species": [{ "element": "Tb", "occu": 1 }],
        "abc": [0.138478, 0.138478, 0.584565999999999],
        "properties": { "magmom": 0.001 },
        "label": "Tb",
        "xyz": [-1.509654198236, -3.941226801763994, -3.941226801763994]
      },
      {
        "species": [{ "element": "Ir", "occu": 1 }],
        "abc": [0.0, 0.0, 0.0],
        "properties": { "magmom": -0.0 },
        "label": "Ir",
        "xyz": [0.0, 0.0, 0.0]
      },
      {
        "species": [{ "element": "Ir", "occu": 1 }],
        "abc": [0.75, 0.75, 0.75],
        "properties": { "magmom": -0.0 },
        "label": "Ir",
        "xyz": [-8.1763215, -8.1763215, -8.1763215]
      }
    ]
  },
  "task_ids": null,
  "uncorrected_energy_per_atom": null,
  "energy_per_atom": -5.369730431,
  "formation_energy_per_atom": 0.108247303666667,
  "energy_above_hull": 0.558681827166665,
  "is_stable": false,
  "equilibrium_reaction_energy_per_atom": null,
  "decomposes_to": null,
  "xas": null,
  "grain_boundaries": null,
  "band_gap": 0.0,
  "cbm": null,
  "vbm": null,
  "efermi": 3.11904441,
  "is_gap_direct": null,
  "is_metal": null,
  "es_source_calc_id": null,
  "bandstructure": null,
  "dos": null,
  "dos_energy_up": null,
  "dos_energy_down": null,
  "is_magnetic": null,
  "ordering": null,
  "total_magnetization": 0.012826599999999001,
  "total_magnetization_normalized_vol": null,
  "total_magnetization_normalized_formula_units": null,
  "num_magnetic_sites": null,
  "num_unique_magnetic_sites": null,
  "types_of_magnetic_species": null,
  "bulk_modulus": null,
  "shear_modulus": null,
  "universal_anisotropy": null,
  "homogeneous_poisson": null,
  "e_total": null,
  "e_ionic": null,
  "e_electronic": null,
  "n": null,
  "e_ij_max": null,
  "weighted_surface_energy_EV_PER_ANG2": null,
  "weighted_surface_energy": null,
  "weighted_work_function": null,
  "surface_anisotropy": null,
  "shape_factor": null,
  "has_reconstructed": null,
  "possible_species": null,
  "has_props": null,
  "theoretical": null,
  "database_IDs": null,
  "fields_not_requested": [
    "builder_meta",
    "nsites",
    "elements",
    "nelements",
    "composition",
    "composition_reduced",
    "chemsys",
    "symmetry",
    "property_name",
    "deprecated",
    "deprecation_reasons",
    "last_updated",
    "origins",
    "warnings",
    "task_ids",
    "uncorrected_energy_per_atom",
    "equilibrium_reaction_energy_per_atom",
    "decomposes_to",
    "xas",
    "grain_boundaries",
    "cbm",
    "vbm",
    "is_gap_direct",
    "is_metal",
    "es_source_calc_id",
    "bandstructure",
    "dos",
    "dos_energy_up",
    "dos_energy_down",
    "is_magnetic",
    "ordering",
    "total_magnetization_normalized_vol",
    "total_magnetization_normalized_formula_units",
    "num_magnetic_sites",
    "num_unique_magnetic_sites",
    "types_of_magnetic_species",
    "bulk_modulus",
    "shear_modulus",
    "universal_anisotropy",
    "homogeneous_poisson",
    "e_total",
    "e_ionic",
    "e_electronic",
    "n",
    "e_ij_max",
    "weighted_surface_energy_EV_PER_ANG2",
    "weighted_surface_energy",
    "weighted_work_function",
    "surface_anisotropy",
    "shape_factor",
    "has_reconstructed",
    "possible_species",
    "has_props",
    "theoretical",
    "database_IDs"
  ]
}
