{
  "builder_meta": null,
  "nsites": null,
  "elements": null,
  "nelements": null,
  "composition": null,
  "composition_reduced": null,
  "formula_pretty": "Tb4Mn",
  "formula_anonymous": "AB4",
  "chemsys": null,
  "volume": 292.088275685823,
  "density": 7.852651919456043,
  "density_atomic": 29.2088275685823,
  "symmetry": null,
  "property_name": null,
  "material_id": "mp-1208526",
  "deprecated": null,
  "deprecation_reasons": null,
  "last_updated": null,
  "origins": null,
  "warnings": null,
  "structure": {
    "@module": "pymatgen.core.structure",
    "@class": "Structure",
    "charge": 0,
    "lattice": {
      "matrix": [
        [0.0, 5.266168, 5.266168],
        [5.266168, 0.0, 5.266168],
        [5.266168, 5.266168, 0.0]
      ],
      "pbc": [true, true, true],
      "a": 7.4474862073351975,
      "b": 7.4474862073351975,
      "c": 7.4474862073351975,
      "alpha": 59.99999999999999,
      "beta": 59.99999999999999,
      "gamma": 59.99999999999999,
      "volume": 292.088275685823
    },
    "properties": {},
    "sites": [
      {
        "species": [{ "element": "Tb", "occu": 1 }],
        "abc": [0.385951999999999, 0.385951999999999, 0.385951999999999],
        "properties": { "magmom": -0.089 },
        "label": "Tb",
        "xyz": [4.06497614387199, 4.06497614387199, 4.06497614387199]
      },
      {
        "species": [{ "element": "Tb", "occu": 1 }],
        "abc": [0.385951999999999, 0.385951999999999, 0.842143],
        "properties": { "magmom": -0.088 },
        "label": "Tb",
        "xyz": [6.467354589959995, 6.467354589959995, 4.06497614387199]
      },
      {
        "species": [{ "element": "Tb", "occu": 1 }],
        "abc": [0.385951999999999, 0.842143, 0.385951999999999],
        "properties": { "magmom": -0.09 },
        "label": "Tb",
        "xyz": [6.467354589959995, 4.06497614387199, 6.467354589959995]
      },
      {
        "species": [{ "element": "Tb", "occu": 1 }],
        "abc": [0.864047999999999, 0.864047999999999, 0.407856999999999],
        "properties": { "magmom": -0.088 },
        "label": "Tb",
        "xyz": [6.69806541003999, 6.69806541003999, 9.10044385612799]
      },
      {
        "species": [{ "element": "Tb", "occu": 1 }],
        "abc": [0.864047999999999, 0.864047999999999, 0.864047999999999],
        "properties": { "magmom": -0.089 },
        "label": "Tb",
        "xyz": [9.10044385612799, 9.10044385612799, 9.10044385612799]
      },
      {
        "species": [{ "element": "Tb", "occu": 1 }],
        "abc": [0.842143, 0.385951999999999, 0.385951999999999],
        "properties": { "magmom": -0.09 },
        "label": "Tb",
        "xyz": [4.06497614387199, 6.467354589959995, 6.467354589959995]
      },
      {
        "species": [{ "element": "Tb", "occu": 1 }],
        "abc": [0.864047999999999, 0.407856999999999, 0.864047999999999],
        "properties": { "magmom": -0.09 },
        "label": "Tb",
        "xyz": [6.69806541003999, 9.10044385612799, 6.69806541003999]
      },
      {
        "species": [{ "element": "Tb", "occu": 1 }],
        "abc": [0.407856999999999, 0.864047999999999, 0.864047999999999],
        "properties": { "magmom": -0.09 },
        "label": "Tb",
        "xyz": [9.10044385612799, 6.69806541003999, 6.69806541003999]
      },
      {
        "species": [{ "element": "Mn", "occu": 1 }],
        "abc": [0.0, 0.0, 0.0],
        "properties": { "magmom": 1.262 },
        "label": "Mn",
        "xyz": [0.0, 0.0, 0.0]
      },
      {
        "species": [{ "element": "Mn", "occu": 1 }],
        "abc": [0.25, 0.25, 0.25],
        "properties": { "magmom": 1.263 },
        "label": "Mn",
        "xyz": [2.633084, 2.633084, 2.633084]
      }
    ]
  },
  "task_ids": null,
  "uncorrected_energy_per_atom": null,
  "energy_per_atom": -27.37279931968966,
  "formation_energy_per_atom": 0.5450149354137861,
  "energy_above_hull": 0.5450149354137921,
  "is_stable": false,
  "equilibrium_reaction_energy_per_atom": null,
  "decomposes_to": null,
  "xas": null,
  "grain_boundaries": null,
  "band_gap": 0.0,
  "cbm": null,
  "vbm": null,
  "efermi": 3.06716049,
  "is_gap_direct": null,
  "is_metal": null,
  "es_source_calc_id": null,
  "bandstructure": null,
  "dos": null,
  "dos_energy_up": null,
  "dos_energy_down": null,
  "is_magnetic": null,
  "ordering": null,
  "total_magnetization": 1.2683018,
  "total_magnetization_normalized_vol": null,
  "total_magnetization_normalized_formula_units": null,
  "num_magnetic_sites": null,
  "num_unique_magnetic_sites": null,
  "types_of_magnetic_species": null,
  "bulk_modulus": null,
  "shear_modulus": null,
  "universal_anisotropy": null,
  "homogeneous_poisson": null,
  "e_total": null,
  "e_ionic": null,
  "e_electronic": null,
  "n": null,
  "e_ij_max": null,
  "weighted_surface_energy_EV_PER_ANG2": null,
  "weighted_surface_energy": null,
  "weighted_work_function": null,
  "surface_anisotropy": null,
  "shape_factor": null,
  "has_reconstructed": null,
  "possible_species": null,
  "has_props": null,
  "theoretical": null,
  "database_IDs": null,
  "fields_not_requested": [
    "builder_meta",
    "nsites",
    "elements",
    "nelements",
    "composition",
    "composition_reduced",
    "chemsys",
    "symmetry",
    "property_name",
    "deprecated",
    "deprecation_reasons",
    "last_updated",
    "origins",
    "warnings",
    "task_ids",
    "uncorrected_energy_per_atom",
    "equilibrium_reaction_energy_per_atom",
    "decomposes_to",
    "xas",
    "grain_boundaries",
    "cbm",
    "vbm",
    "is_gap_direct",
    "is_metal",
    "es_source_calc_id",
    "bandstructure",
    "dos",
    "dos_energy_up",
    "dos_energy_down",
    "is_magnetic",
    "ordering",
    "total_magnetization_normalized_vol",
    "total_magnetization_normalized_formula_units",
    "num_magnetic_sites",
    "num_unique_magnetic_sites",
    "types_of_magnetic_species",
    "bulk_modulus",
    "shear_modulus",
    "universal_anisotropy",
    "homogeneous_poisson",
    "e_total",
    "e_ionic",
    "e_electronic",
    "n",
    "e_ij_max",
    "weighted_surface_energy_EV_PER_ANG2",
    "weighted_surface_energy",
    "weighted_work_function",
    "surface_anisotropy",
    "shape_factor",
    "has_reconstructed",
    "possible_species",
    "has_props",
    "theoretical",
    "database_IDs"
  ]
}
