{
  "builder_meta": null,
  "nsites": null,
  "elements": null,
  "nelements": null,
  "composition": null,
  "composition_reduced": null,
  "formula_pretty": "Tb4Pt",
  "formula_anonymous": "AB4",
  "chemsys": null,
  "volume": 331.3904244009454,
  "density": 8.325838715193557,
  "density_atomic": 33.13904244009454,
  "symmetry": null,
  "property_name": null,
  "material_id": "mp-1208452",
  "deprecated": null,
  "deprecation_reasons": null,
  "last_updated": null,
  "origins": null,
  "warnings": null,
  "structure": {
    "@module": "pymatgen.core.structure",
    "@class": "Structure",
    "charge": 0,
    "lattice": {
      "matrix": [
        [-5.492499, -5.492499, 0.0],
        [-5.492499, 0.0, -5.492499],
        [0.0, -5.492499, -5.492499]
      ],
      "pbc": [true, true, true],
      "a": 7.767566577120662,
      "b": 7.767566577120662,
      "c": 7.767566577120662,
      "alpha": 60.00000000000001,
      "beta": 60.00000000000001,
      "gamma": 60.00000000000001,
      "volume": 331.3904244009454
    },
    "properties": {},
    "sites": [
      {
        "species": [{ "element": "Tb", "occu": 1 }],
        "abc": [0.610034, 0.610034, 0.610034],
        "properties": { "magmom": 0.003 },
        "label": "Tb",
        "xyz": [-6.701222269931999, -6.701222269931999, -6.701222269931999]
      },
      {
        "species": [{ "element": "Tb", "occu": 1 }],
        "abc": [0.169897, 0.610034, 0.610034],
        "properties": { "magmom": 0.003 },
        "label": "Tb",
        "xyz": [-4.283770237569, -4.283770237569, -6.701222269931999]
      },
      {
        "species": [{ "element": "Tb", "occu": 1 }],
        "abc": [0.610034, 0.169897, 0.610034],
        "properties": { "magmom": 0.003 },
        "label": "Tb",
        "xyz": [-4.283770237569, -6.701222269931999, -4.283770237569]
      },
      {
        "species": [{ "element": "Tb", "occu": 1 }],
        "abc": [0.580102999999999, 0.139966, 0.139966],
        "properties": { "magmom": 0.003 },
        "label": "Tb",
        "xyz": [-3.9549782624309944, -3.9549782624309944, -1.537526230068]
      },
      {
        "species": [{ "element": "Tb", "occu": 1 }],
        "abc": [0.139966, 0.139966, 0.139966],
        "properties": { "magmom": 0.003 },
        "label": "Tb",
        "xyz": [-1.537526230068, -1.537526230068, -1.537526230068]
      },
      {
        "species": [{ "element": "Tb", "occu": 1 }],
        "abc": [0.610034, 0.610034, 0.169897],
        "properties": { "magmom": 0.003 },
        "label": "Tb",
        "xyz": [-6.701222269931999, -4.283770237569, -4.283770237569]
      },
      {
        "species": [{ "element": "Tb", "occu": 1 }],
        "abc": [0.139966, 0.580102999999999, 0.139966],
        "properties": { "magmom": 0.003 },
        "label": "Tb",
        "xyz": [-3.9549782624309944, -1.537526230068, -3.9549782624309944]
      },
      {
        "species": [{ "element": "Tb", "occu": 1 }],
        "abc": [0.139966, 0.139966, 0.580102999999999],
        "properties": { "magmom": 0.003 },
        "label": "Tb",
        "xyz": [-1.537526230068, -3.9549782624309944, -3.9549782624309944]
      },
      {
        "species": [{ "element": "Pt", "occu": 1 }],
        "abc": [0.0, 0.0, 0.0],
        "properties": { "magmom": 0.001 },
        "label": "Pt",
        "xyz": [0.0, 0.0, 0.0]
      },
      {
        "species": [{ "element": "Pt", "occu": 1 }],
        "abc": [0.75, 0.75, 0.75],
        "properties": { "magmom": 0.001 },
        "label": "Pt",
        "xyz": [-8.2387485, -8.2387485, -8.2387485]
      }
    ]
  },
  "task_ids": null,
  "uncorrected_energy_per_atom": null,
  "energy_per_atom": -35.3785043525,
  "formation_energy_per_atom": -0.0998136525,
  "energy_above_hull": 0.529332678499997,
  "is_stable": false,
  "equilibrium_reaction_energy_per_atom": null,
  "decomposes_to": null,
  "xas": null,
  "grain_boundaries": null,
  "band_gap": 0.0,
  "cbm": null,
  "vbm": null,
  "efermi": 2.93057268,
  "is_gap_direct": null,
  "is_metal": null,
  "es_source_calc_id": null,
  "bandstructure": null,
  "dos": null,
  "dos_energy_up": null,
  "dos_energy_down": null,
  "is_magnetic": null,
  "ordering": null,
  "total_magnetization": 0.0363113,
  "total_magnetization_normalized_vol": null,
  "total_magnetization_normalized_formula_units": null,
  "num_magnetic_sites": null,
  "num_unique_magnetic_sites": null,
  "types_of_magnetic_species": null,
  "bulk_modulus": null,
  "shear_modulus": null,
  "universal_anisotropy": null,
  "homogeneous_poisson": null,
  "e_total": null,
  "e_ionic": null,
  "e_electronic": null,
  "n": null,
  "e_ij_max": null,
  "weighted_surface_energy_EV_PER_ANG2": null,
  "weighted_surface_energy": null,
  "weighted_work_function": null,
  "surface_anisotropy": null,
  "shape_factor": null,
  "has_reconstructed": null,
  "possible_species": null,
  "has_props": null,
  "theoretical": null,
  "database_IDs": null,
  "fields_not_requested": [
    "builder_meta",
    "nsites",
    "elements",
    "nelements",
    "composition",
    "composition_reduced",
    "chemsys",
    "symmetry",
    "property_name",
    "deprecated",
    "deprecation_reasons",
    "last_updated",
    "origins",
    "warnings",
    "task_ids",
    "uncorrected_energy_per_atom",
    "equilibrium_reaction_energy_per_atom",
    "decomposes_to",
    "xas",
    "grain_boundaries",
    "cbm",
    "vbm",
    "is_gap_direct",
    "is_metal",
    "es_source_calc_id",
    "bandstructure",
    "dos",
    "dos_energy_up",
    "dos_energy_down",
    "is_magnetic",
    "ordering",
    "total_magnetization_normalized_vol",
    "total_magnetization_normalized_formula_units",
    "num_magnetic_sites",
    "num_unique_magnetic_sites",
    "types_of_magnetic_species",
    "bulk_modulus",
    "shear_modulus",
    "universal_anisotropy",
    "homogeneous_poisson",
    "e_total",
    "e_ionic",
    "e_electronic",
    "n",
    "e_ij_max",
    "weighted_surface_energy_EV_PER_ANG2",
    "weighted_surface_energy",
    "weighted_work_function",
    "surface_anisotropy",
    "shape_factor",
    "has_reconstructed",
    "possible_species",
    "has_props",
    "theoretical",
    "database_IDs"
  ]
}
