{"builder_meta": null, "nsites": null, "elements": null, "nelements": null, "composition": null, "composition_reduced": null, "formula_pretty": "Tb4Si7", "formula_anonymous": "A4B7", "chemsys": null, "volume": 442.7848240115754, "density": 6.242610063081759, "density_atomic": 20.126582909617063, "symmetry": null, "property_name": null, "material_id": "mp-1217739", "deprecated": null, "deprecation_reasons": null, "last_updated": null, "origins": null, "warnings": null, "structure": {"@module": "pymatgen.core.structure", "@class": "Structure", "charge": 0, "lattice": {"matrix": [[3.9941749, 4.0891114, 0.00909603], [-3.9941749, 4.0891114, 0.00909603], [0.0, 0.26007009000000003, 13.55580291]], "pbc": [true, true, true], "a": 5.716147995911384, "b": 5.716147995911384, "c": 13.55829742211304, "alpha": 89.12260789159625, "beta": 89.12260789159625, "gamma": 88.65406636662115, "volume": 442.7848240115754}, "properties": {}, "sites": [{"species": [{"element": "Tb", "occu": 1}], "abc": [0.88696355, 0.38042622, 0.12825365], "properties": {"magmom": 0.0}, "label": "Tb", "xyz": [2.0231986893990173, 5.215852895048707, 1.7501094172577345]}, {"species": [{"element": "Tb", "occu": 1}], "abc": [0.61957378, 0.11303645, 0.87174635], "properties": {"magmom": 0.0}, "label": "Tb", "xyz": [2.023198689399017, 3.222439994951294, 11.823885552742265]}, {"species": [{"element": "Tb", "occu": 1}], "abc": [0.87338549, 0.87338549, 0.62656764], "properties": {"magmom": -0.0}, "label": "Tb", "xyz": [0.0, 7.305692630033059, 8.509516118861042]}, {"species": [{"element": "Tb", "occu": 1}], "abc": [0.12661451, 0.12661451, 0.37343236], "properties": {"magmom": -0.0}, "label": "Tb", "xyz": [0.0, 1.1326002599669407, 5.064478851138959]}, {"species": [{"element": "Tb", "occu": 1}], "abc": [0.38042622, 0.88696355, 0.12825365], "properties": {"magmom": 0.0}, "label": "Tb", "xyz": [-2.0231986893990173, 5.215852895048707, 1.7501094172577345]}, {"species": [{"element": "Tb", "occu": 1}], "abc": [0.11303645, 0.61957378, 0.87174635], "properties": {"magmom": 0.0}, "label": "Tb", "xyz": [-2.023198689399017, 3.222439994951294, 11.823885552742265]}, {"species": [{"element": "Tb", "occu": 1}], "abc": [0.37310238, 0.37310238, 0.62736376], "properties": {"magmom": -0.0}, "label": "Tb", "xyz": [0.0, 3.2144729403762025, 8.511206984319646]}, {"species": [{"element": "Tb", "occu": 1}], "abc": [0.62689762, 0.62689762, 0.37263624], "properties": {"magmom": -0.0}, "label": "Tb", "xyz": [0.0, 5.223819949623798, 5.062787985680356]}, {"species": [{"element": "Si", "occu": 1}], "abc": [0.8608511600000001, 0.38346873000000004, 0.71256151], "properties": {"magmom": -0.0}, "label": "Si", "xyz": [1.9067489196070073, 5.2734785834819835, 9.67066176186103]}, {"species": [{"element": "Si", "occu": 1}], "abc": [0.61653127, 0.13914884, 0.28743849], "properties": {"magmom": -0.0}, "label": "Si", "xyz": [1.9067489196070069, 3.164814306518018, 3.9033332081389696]}, {"species": [{"element": "Si", "occu": 1}], "abc": [0.8822643, 0.8822643, 0.20788397], "properties": {"magmom": -0.0}, "label": "Si", "xyz": [0.0, 7.269418416673497, 2.834084330549811]}, {"species": [{"element": "Si", "occu": 1}], "abc": [0.1177357, 0.1177357, 0.79211603], "properties": {"magmom": -0.0}, "label": "Si", "xyz": [0.0, 1.1688744733265026, 10.739910639450189]}, {"species": [{"element": "Si", "occu": 1}], "abc": [0.38346873000000004, 0.8608511600000001, 0.71256151], "properties": {"magmom": -0.0}, "label": "Si", "xyz": [-1.9067489196070073, 5.2734785834819835, 9.67066176186103]}, {"species": [{"element": "Si", "occu": 1}], "abc": [0.13914884, 0.61653127, 0.28743849], "properties": {"magmom": -0.0}, "label": "Si", "xyz": [-1.9067489196070069, 3.164814306518018, 3.9033332081389696]}, {"species": [{"element": "Si", "occu": 1}], "abc": [0.38370334, 0.38370334, 0.181952299999999], "properties": {"magmom": 0.0}, "label": "Si", "xyz": [0.0, 3.185331754660859, 2.47348987200466]}, {"species": [{"element": "Si", "occu": 1}], "abc": [0.61629666, 0.61629666, 0.818047699999999], "properties": {"magmom": 0.0}, "label": "Si", "xyz": [0.0, 5.252961135339142, 11.100505097995313]}, {"species": [{"element": "Si", "occu": 1}], "abc": [0.87524587, 0.3722783, 0.54139036], "properties": {"magmom": 0.0}, "label": "Si", "xyz": [2.008940443607993, 5.242064744972871, 7.350328534809992]}, {"species": [{"element": "Si", "occu": 1}], "abc": [0.627721699999999, 0.12475413, 0.45860964], "properties": {"magmom": 0.0}, "label": "Si", "xyz": [2.0089404436079894, 3.196228145027126, 6.223666435190007]}, {"species": [{"element": "Si", "occu": 1}], "abc": [0.86194348, 0.86194348, 0.03532508], "properties": {"magmom": -0.0}, "label": "Si", "xyz": [0.0, 7.058352817182201, 0.49454034976475164]}, {"species": [{"element": "Si", "occu": 1}], "abc": [0.13805652000000002, 0.13805652000000002, 0.96467492], "properties": {"magmom": -0.0}, "label": "Si", "xyz": [0.0, 1.379940072817799, 13.07945462023525]}, {"species": [{"element": "Si", "occu": 1}], "abc": [0.3722783, 0.87524587, 0.54139036], "properties": {"magmom": 0.0}, "label": "Si", "xyz": [-2.008940443607993, 5.242064744972871, 7.350328534809992]}, {"species": [{"element": "Si", "occu": 1}], "abc": [0.12475413, 0.627721699999999, 0.45860964], "properties": {"magmom": 0.0}, "label": "Si", "xyz": [-2.0089404436079894, 3.196228145027126, 6.223666435190007]}]}, "task_ids": null, "uncorrected_energy_per_atom": null, "energy_per_atom": -17.594530705454545, "formation_energy_per_atom": -0.6561589995454561, "energy_above_hull": 0.009903245000000001, "is_stable": false, "equilibrium_reaction_energy_per_atom": null, "decomposes_to": null, "xas": null, "grain_boundaries": null, "band_gap": 0.0, "cbm": null, "vbm": null, "efermi": 6.47030732, "is_gap_direct": null, "is_metal": null, "es_source_calc_id": null, "bandstructure": null, "dos": null, "dos_energy_up": null, "dos_energy_down": null, "is_magnetic": null, "ordering": null, "total_magnetization": 1e-07, "total_magnetization_normalized_vol": null, "total_magnetization_normalized_formula_units": null, "num_magnetic_sites": null, "num_unique_magnetic_sites": null, "types_of_magnetic_species": null, "bulk_modulus": null, "shear_modulus": null, "universal_anisotropy": null, "homogeneous_poisson": null, "e_total": null, "e_ionic": null, "e_electronic": null, "n": null, "e_ij_max": null, "weighted_surface_energy_EV_PER_ANG2": null, "weighted_surface_energy": null, "weighted_work_function": null, "surface_anisotropy": null, "shape_factor": null, "has_reconstructed": null, "possible_species": null, "has_props": null, "theoretical": null, "database_IDs": null, "fields_not_requested": ["builder_meta", "nsites", "elements", "nelements", "composition", "composition_reduced", "chemsys", "symmetry", "property_name", "deprecated", "deprecation_reasons", "last_updated", "origins", "warnings", "task_ids", "uncorrected_energy_per_atom", "equilibrium_reaction_energy_per_atom", "decomposes_to", "xas", "grain_boundaries", "cbm", "vbm", "is_gap_direct", "is_metal", "es_source_calc_id", "bandstructure", "dos", "dos_energy_up", "dos_energy_down", "is_magnetic", "ordering", "total_magnetization_normalized_vol", "total_magnetization_normalized_formula_units", "num_magnetic_sites", "num_unique_magnetic_sites", "types_of_magnetic_species", "bulk_modulus", "shear_modulus", "universal_anisotropy", "homogeneous_poisson", "e_total", "e_ionic", "e_electronic", "n", "e_ij_max", "weighted_surface_energy_EV_PER_ANG2", "weighted_surface_energy", "weighted_work_function", "surface_anisotropy", "shape_factor", "has_reconstructed", "possible_species", "has_props", "theoretical", "database_IDs"]}