{"builder_meta": null, "nsites": null, "elements": null, "nelements": null, "composition": null, "composition_reduced": null, "formula_pretty": "Tb4Sb3", "formula_anonymous": "A3B4", "chemsys": null, "volume": 391.04822733093397, "density": 8.501093233358713, "density_atomic": 27.932016237923854, "symmetry": null, "property_name": null, "material_id": "mp-2045", "deprecated": null, "deprecation_reasons": null, "last_updated": null, "origins": null, "warnings": null, "structure": {"@module": "pymatgen.core.structure", "@class": "Structure", "charge": 0, "lattice": {"matrix": [[7.52271288, 0.0, -2.65968015], [-3.76135593, 6.51486036, -2.65968015], [0.0, 1e-08, 7.97904149]], "pbc": [true, true, true], "a": 7.979041770489857, "b": 7.979041448867747, "c": 7.97904149, "alpha": 109.47121803638704, "beta": 109.47121728204334, "gamma": 109.47122114126887, "volume": 391.0482273309339}, "properties": {}, "sites": [{"species": [{"element": "Tb", "occu": 1}], "abc": [0.35697765000000004, 0.5, 0.999999], "properties": {"magmom": -0.0}, "label": "Tb", "xyz": [0.8047624005271323, 3.2574301899999902, 5.699747066259862]}, {"species": [{"element": "Tb", "occu": 1}], "abc": [0.64302235, 0.64302235, 0.64302135], "properties": {"magmom": -0.0}, "label": "Tb", "xyz": [2.418636585177833, 4.18920082503926, 1.7102264700031076]}, {"species": [{"element": "Tb", "occu": 1}], "abc": [0.500001, 1e-06, 0.35697865], "properties": {"magmom": -0.0}, "label": "Tb", "xyz": [3.7613602013569505, 6.518430146499999e-06, 1.5185020650338885]}, {"species": [{"element": "Tb", "occu": 1}], "abc": [0.999999, 0.35697765000000004, 0.5], "properties": {"magmom": -0.0}, "label": "Tb", "xyz": [6.179985356582155, 2.325659546390954, 0.3803968849815025]}, {"species": [{"element": "Tb", "occu": 1}], "abc": [0.499998999999999, 0.999999, 0.85697765], "properties": {"magmom": -0.0}, "label": "Tb", "xyz": [-3.2513569570014056e-06, 6.5148538537094165, 2.848345319713002]}, {"species": [{"element": "Tb", "occu": 1}], "abc": [1e-06, 0.8569786500000001, 0.5], "properties": {"magmom": -0.0}, "label": "Tb", "xyz": [-3.223394204348015, 5.583096241251315, 1.7102289809410527]}, {"species": [{"element": "Tb", "occu": 1}], "abc": [0.8569786500000001, 0.5, 1e-06], "properties": {"magmom": -0.0}, "label": "Tb", "xyz": [4.566126363240013, 3.2574301800000103, -3.609121200337307]}, {"species": [{"element": "Tb", "occu": 1}], "abc": [0.14302135, 0.14302135, 0.14302235], "properties": {"magmom": -0.0}, "label": "Tb", "xyz": [0.5379543488208826, 0.9317641251789095, 0.3803991734048965]}, {"species": [{"element": "Sb", "occu": 1}], "abc": [0.75, 0.875000999999999, 0.125001], "properties": {"magmom": 0.0}, "label": "Sb", "xyz": [2.350844459894074, 5.700509331110363, -3.324594738138657]}, {"species": [{"element": "Sb", "occu": 1}], "abc": [0.625000999999999, 0.375, 0.250001], "properties": {"magmom": 0.0}, "label": "Sb", "xyz": [3.291194598962873, 2.44307263750001, -0.6649144581386572]}, {"species": [{"element": "Sb", "occu": 1}], "abc": [0.875, 0.125, 0.749999], "properties": {"magmom": 0.0}, "label": "Sb", "xyz": [6.11220427875, 0.81435755249999, 3.3245929884585097]}, {"species": [{"element": "Sb", "occu": 1}], "abc": [0.125, 0.75, 0.874999], "properties": {"magmom": 0.0}, "label": "Sb", "xyz": [-1.8806778375, 4.88614527874999, 4.65443319345851]}, {"species": [{"element": "Sb", "occu": 1}], "abc": [0.374998999999999, 0.249999, 0.625], "properties": {"magmom": 0.0}, "label": "Sb", "xyz": [1.880674586143043, 1.62870858138964, 3.3246061568603027]}, {"species": [{"element": "Sb", "occu": 1}], "abc": [0.25, 0.625, 0.375001], "properties": {"magmom": 0.0}, "label": "Sb", "xyz": [-0.47016923624999984, 4.07178772875001, 0.66492840654149]}]}, "task_ids": null, "uncorrected_energy_per_atom": null, "energy_per_atom": -30.04238562785714, "formation_energy_per_atom": -1.181716515000001, "energy_above_hull": 0.035107847142857, "is_stable": false, "equilibrium_reaction_energy_per_atom": null, "decomposes_to": null, "xas": null, "grain_boundaries": null, "band_gap": 0.0, "cbm": null, "vbm": null, "efermi": 5.83219235, "is_gap_direct": null, "is_metal": null, "es_source_calc_id": null, "bandstructure": null, "dos": null, "dos_energy_up": null, "dos_energy_down": null, "is_magnetic": null, "ordering": null, "total_magnetization": 0.00021889999999900002, "total_magnetization_normalized_vol": null, "total_magnetization_normalized_formula_units": null, "num_magnetic_sites": null, "num_unique_magnetic_sites": null, "types_of_magnetic_species": null, "bulk_modulus": null, "shear_modulus": null, "universal_anisotropy": null, "homogeneous_poisson": null, "e_total": null, "e_ionic": null, "e_electronic": null, "n": null, "e_ij_max": null, "weighted_surface_energy_EV_PER_ANG2": null, "weighted_surface_energy": null, "weighted_work_function": null, "surface_anisotropy": null, "shape_factor": null, "has_reconstructed": null, "possible_species": null, "has_props": null, "theoretical": null, "database_IDs": null, "fields_not_requested": ["builder_meta", "nsites", "elements", "nelements", "composition", "composition_reduced", "chemsys", "symmetry", "property_name", "deprecated", "deprecation_reasons", "last_updated", "origins", "warnings", "task_ids", "uncorrected_energy_per_atom", "equilibrium_reaction_energy_per_atom", "decomposes_to", "xas", "grain_boundaries", "cbm", "vbm", "is_gap_direct", "is_metal", "es_source_calc_id", "bandstructure", "dos", "dos_energy_up", "dos_energy_down", "is_magnetic", "ordering", "total_magnetization_normalized_vol", "total_magnetization_normalized_formula_units", "num_magnetic_sites", "num_unique_magnetic_sites", "types_of_magnetic_species", "bulk_modulus", "shear_modulus", "universal_anisotropy", "homogeneous_poisson", "e_total", "e_ionic", "e_electronic", "n", "e_ij_max", "weighted_surface_energy_EV_PER_ANG2", "weighted_surface_energy", "weighted_work_function", "surface_anisotropy", "shape_factor", "has_reconstructed", "possible_species", "has_props", "theoretical", "database_IDs"]}