{
  "builder_meta": null,
  "nsites": null,
  "elements": null,
  "nelements": null,
  "composition": null,
  "composition_reduced": null,
  "formula_pretty": "Tb5Bi3",
  "formula_anonymous": "A3B5",
  "chemsys": null,
  "volume": 467.37491733312356,
  "density": 10.101394102495103,
  "density_atomic": 29.210932333320223,
  "symmetry": null,
  "property_name": null,
  "material_id": "mp-1189848",
  "deprecated": null,
  "deprecation_reasons": null,
  "last_updated": null,
  "origins": null,
  "warnings": null,
  "structure": {
    "@module": "pymatgen.core.structure",
    "@class": "Structure",
    "charge": 0,
    "lattice": {
      "matrix": [
        [-0.0, 8.8e-7, -6.4002099],
        [-4.59130515, -7.9523785, 8.4e-7],
        [-4.59143243, 7.95245058, -1.429999999999999e-6]
      ],
      "pbc": [true, true, true],
      "a": 6.4002099000000605,
      "b": 9.182614376509528,
      "c": 9.182740439901375,
      "alpha": 119.99956647567647,
      "beta": 89.9999842550635,
      "gamma": 90.00001206373075,
      "volume": 467.37491733312356
    },
    "properties": {},
    "sites": [
      {
        "species": [{ "element": "Tb", "occu": 1 }],
        "abc": [0.50000087, 0.33333169, 0.66665197],
        "properties": { "magmom": 0.334 },
        "label": "Tb",
        "xyz": [-4.591314979536591, 2.6507375205607433, -3.200111191496311]
      },
      {
        "species": [{ "element": "Tb", "occu": 1 }],
        "abc": [0.50000075, 0.66665373, 0.33331128],
        "properties": { "magmom": 0.334 },
        "label": "Tb",
        "xyz": [-4.59118692409252, -2.650840867439604, -3.200109666803422]
      },
      {
        "species": [{ "element": "Tb", "occu": 1 }],
        "abc": [-1.29e-6, 0.66665368, 0.33331155],
        "properties": { "magmom": 0.334 },
        "label": "Tb",
        "xyz": [-4.591187934214019, -2.6508387626608165, 8.339624345699998e-6]
      },
      {
        "species": [{ "element": "Tb", "occu": 1 }],
        "abc": [-1.42e-6, 0.33333166000000003, 0.66665174],
        "properties": { "magmom": 0.334 },
        "label": "Tb",
        "xyz": [-4.591313785767978, 2.6507354900664497, 8.4149846642e-6]
      },
      {
        "species": [{ "element": "Tb", "occu": 1 }],
        "abc": [0.74999872, 0.24559336, 2.9870000000000004e-5],
        "properties": { "magmom": 0.1 },
        "label": "Tb",
        "xyz": [-1.1277312046604882, -1.952813156109062, -4.800149026475619]
      },
      {
        "species": [{ "element": "Tb", "occu": 1 }],
        "abc": [0.75000065, 0.7544001, 0.75441934],
        "properties": { "magmom": 0.1 },
        "label": "Tb",
        "xyz": [-6.927546487785712, 0.00020804230893922693, -4.800162030260007]
      },
      {
        "species": [{ "element": "Tb", "occu": 1 }],
        "abc": [0.75000038, 8.03e-6, 0.24560026000000001],
        "properties": { "magmom": 0.1 },
        "label": "Tb",
        "xyz": [-1.1276938667607863, 1.9530607324861302, -4.8001602082813895]
      },
      {
        "species": [{ "element": "Tb", "occu": 1 }],
        "abc": [0.25000003, 0.7544326100000001, 2.4460000000000003e-5],
        "properties": { "magmom": 0.1 },
        "label": "Tb",
        "xyz": [-3.46394263405818, -5.999338930521672, -1.6000520333178823]
      },
      {
        "species": [{ "element": "Tb", "occu": 1 }],
        "abc": [0.25000007, 0.24559165, 0.24560199],
        "properties": { "magmom": 0.1 },
        "label": "Tb",
        "xyz": [-2.255251149200533, 0.00010015058519052822, -1.600053067928553]
      },
      {
        "species": [{ "element": "Tb", "occu": 1 }],
        "abc": [0.24999982, 1.131e-5, 0.75441643],
        "properties": { "magmom": 0.1 },
        "label": "Tb",
        "xyz": [-3.4639039900880717, 5.9993696549140365, -1.6000524017682127]
      },
      {
        "species": [{ "element": "Bi", "occu": 1 }],
        "abc": [0.74999881, 0.61209026, 2.189999999999999e-6],
        "properties": { "magmom": -0.027 },
        "label": "Bi",
        "xyz": [-2.8103032182398606, -4.867555347817688, -4.800149294597532]
      },
      {
        "species": [{ "element": "Bi", "occu": 1 }],
        "abc": [0.7499995700000001, 0.387888199999999, 0.38790165],
        "properties": { "magmom": -0.027 },
        "label": "Bi",
        "xyz": [-3.561937305744735, 0.00013557944138620215, -4.8001549017830145]
      },
      {
        "species": [{ "element": "Bi", "occu": 1 }],
        "abc": [0.74999929, 7.07e-6, 0.61208038],
        "properties": { "magmom": -0.027 },
        "label": "Bi",
        "xyz": [-2.8103581670261337, 4.867483409621, -4.800153756119975]
      },
      {
        "species": [{ "element": "Bi", "occu": 1 }],
        "abc": [0.24999899, 0.38791895, 9.659999999999996e-6],
        "properties": { "magmom": -0.027 },
        "label": "Bi",
        "xyz": [-1.7810986261548662, -3.0848012770508606, -1.600045684949897]
      },
      {
        "species": [{ "element": "Bi", "occu": 1 }],
        "abc": [0.25000064, 0.61207216, 0.612085],
        "properties": { "magmom": -0.027 },
        "label": "Bi",
        "xyz": [-5.620556979296174, 0.00014644762730409155, -1.6000569322752716]
      },
      {
        "species": [{ "element": "Bi", "occu": 1 }],
        "abc": [0.2500001, 1.5550000000000002e-5, 0.38790021],
        "properties": { "magmom": -0.027 },
        "label": "Bi",
        "xyz": [-1.781088998592893, 3.084633810511035, -1.6000536697052283]
      }
    ]
  },
  "task_ids": null,
  "uncorrected_energy_per_atom": null,
  "energy_per_atom": -42.304231448125,
  "formation_energy_per_atom": -0.8493574500000061,
  "energy_above_hull": 0.0,
  "is_stable": true,
  "equilibrium_reaction_energy_per_atom": null,
  "decomposes_to": null,
  "xas": null,
  "grain_boundaries": null,
  "band_gap": 0.0,
  "cbm": null,
  "vbm": null,
  "efermi": 5.080654219999999,
  "is_gap_direct": null,
  "is_metal": null,
  "es_source_calc_id": null,
  "bandstructure": null,
  "dos": null,
  "dos_energy_up": null,
  "dos_energy_down": null,
  "is_magnetic": null,
  "ordering": null,
  "total_magnetization": 2.5706153,
  "total_magnetization_normalized_vol": null,
  "total_magnetization_normalized_formula_units": null,
  "num_magnetic_sites": null,
  "num_unique_magnetic_sites": null,
  "types_of_magnetic_species": null,
  "bulk_modulus": null,
  "shear_modulus": null,
  "universal_anisotropy": null,
  "homogeneous_poisson": null,
  "e_total": null,
  "e_ionic": null,
  "e_electronic": null,
  "n": null,
  "e_ij_max": null,
  "weighted_surface_energy_EV_PER_ANG2": null,
  "weighted_surface_energy": null,
  "weighted_work_function": null,
  "surface_anisotropy": null,
  "shape_factor": null,
  "has_reconstructed": null,
  "possible_species": null,
  "has_props": null,
  "theoretical": null,
  "database_IDs": null,
  "fields_not_requested": [
    "builder_meta",
    "nsites",
    "elements",
    "nelements",
    "composition",
    "composition_reduced",
    "chemsys",
    "symmetry",
    "property_name",
    "deprecated",
    "deprecation_reasons",
    "last_updated",
    "origins",
    "warnings",
    "task_ids",
    "uncorrected_energy_per_atom",
    "equilibrium_reaction_energy_per_atom",
    "decomposes_to",
    "xas",
    "grain_boundaries",
    "cbm",
    "vbm",
    "is_gap_direct",
    "is_metal",
    "es_source_calc_id",
    "bandstructure",
    "dos",
    "dos_energy_up",
    "dos_energy_down",
    "is_magnetic",
    "ordering",
    "total_magnetization_normalized_vol",
    "total_magnetization_normalized_formula_units",
    "num_magnetic_sites",
    "num_unique_magnetic_sites",
    "types_of_magnetic_species",
    "bulk_modulus",
    "shear_modulus",
    "universal_anisotropy",
    "homogeneous_poisson",
    "e_total",
    "e_ionic",
    "e_electronic",
    "n",
    "e_ij_max",
    "weighted_surface_energy_EV_PER_ANG2",
    "weighted_surface_energy",
    "weighted_work_function",
    "surface_anisotropy",
    "shape_factor",
    "has_reconstructed",
    "possible_species",
    "has_props",
    "theoretical",
    "database_IDs"
  ]
}
