{
  "builder_meta": null,
  "nsites": null,
  "elements": null,
  "nelements": null,
  "composition": null,
  "composition_reduced": null,
  "formula_pretty": "Tb5Br8",
  "formula_anonymous": "A5B8",
  "chemsys": null,
  "volume": 423.46876861279304,
  "density": 5.622559789145481,
  "density_atomic": 32.574520662522545,
  "symmetry": null,
  "property_name": null,
  "material_id": "mp-31007",
  "deprecated": null,
  "deprecation_reasons": null,
  "last_updated": null,
  "origins": null,
  "warnings": null,
  "structure": {
    "@module": "pymatgen.core.structure",
    "@class": "Structure",
    "charge": 0,
    "lattice": {
      "matrix": [
        [1.9713100000000001, 10.176227, 0.0],
        [-1.9713100000000001, 10.176227, 0.0],
        [0.0, 9.382664, 10.554791999999999]
      ],
      "pbc": [true, true, true],
      "a": 10.365406845446493,
      "b": 10.365406845446493,
      "c": 14.122252578826084,
      "alpha": 49.28757325087972,
      "beta": 49.28757325087972,
      "gamma": 21.92676855288541,
      "volume": 423.46876861279304
    },
    "properties": {},
    "sites": [
      {
        "species": [{ "element": "Tb", "occu": 1 }],
        "abc": [0.858812999999999, 0.858812999999999, 0.652403],
        "properties": { "magmom": 0.154 },
        "label": "Tb",
        "xyz": [0.0, 23.600230218693984, 6.885977965175999]
      },
      {
        "species": [{ "element": "Tb", "occu": 1 }],
        "abc": [0.141187, 0.141187, 0.347597],
        "properties": { "magmom": 0.154 },
        "label": "Tb",
        "xyz": [0.0, 6.134887781306, 3.6688140348239995]
      },
      {
        "species": [{ "element": "Tb", "occu": 1 }],
        "abc": [0.514502999999999, 0.514502999999999, 0.623425],
        "properties": { "magmom": 0.12 },
        "label": "Tb",
        "xyz": [0.0, 16.320785944561983, 6.580121202599999]
      },
      {
        "species": [{ "element": "Tb", "occu": 1 }],
        "abc": [0.485496999999999, 0.485496999999999, 0.376575],
        "properties": { "magmom": 0.12 },
        "label": "Tb",
        "xyz": [0.0, 13.414332055437981, 3.9746707973999995]
      },
      {
        "species": [{ "element": "Tb", "occu": 1 }],
        "abc": [0.0, 0.0, 0.0],
        "properties": { "magmom": 0.132 },
        "label": "Tb",
        "xyz": [0.0, 0.0, 0.0]
      },
      {
        "species": [{ "element": "Br", "occu": 1 }],
        "abc": [0.967564, 0.967564, 0.230452],
        "properties": { "magmom": 0.0 },
        "label": "Br",
        "xyz": [0.0, 21.854555486184, 2.4323729259839997]
      },
      {
        "species": [{ "element": "Br", "occu": 1 }],
        "abc": [0.032436, 0.032436, 0.769548],
        "properties": { "magmom": 0.0 },
        "label": "Br",
        "xyz": [0.0, 7.880562513816, 8.122419074016]
      },
      {
        "species": [{ "element": "Br", "occu": 1 }],
        "abc": [0.296946999999999, 0.296946999999999, 0.574357999999999],
        "properties": { "magmom": 0.003 },
        "label": "Br",
        "xyz": [0.0, 11.432608287649972, 6.062229223535989]
      },
      {
        "species": [{ "element": "Br", "occu": 1 }],
        "abc": [0.703052999999999, 0.703052999999999, 0.425641999999999],
        "properties": { "magmom": 0.003 },
        "label": "Br",
        "xyz": [0.0, 18.302509712349973, 4.4925627764639895]
      },
      {
        "species": [{ "element": "Br", "occu": 1 }],
        "abc": [0.633267999999999, 0.633267999999999, 0.897559],
        "properties": { "magmom": 0.001 },
        "label": "Br",
        "xyz": [0.0, 21.310052356847983, 9.473548552728]
      },
      {
        "species": [{ "element": "Br", "occu": 1 }],
        "abc": [0.672617999999999, 0.672617999999999, 0.168345],
        "properties": { "magmom": 0.003 },
        "label": "Br",
        "xyz": [0.0, 15.268951475651981, 1.7768464592399997]
      },
      {
        "species": [{ "element": "Br", "occu": 1 }],
        "abc": [0.327382, 0.327382, 0.831654999999999],
        "properties": { "magmom": 0.003 },
        "label": "Br",
        "xyz": [0.0, 14.466166524347992, 8.777945540759989]
      },
      {
        "species": [{ "element": "Br", "occu": 1 }],
        "abc": [0.366732, 0.366732, 0.102440999999999],
        "properties": { "magmom": 0.001 },
        "label": "Br",
        "xyz": [0.0, 8.425065643151992, 1.0812434472719894]
      }
    ]
  },
  "task_ids": null,
  "uncorrected_energy_per_atom": null,
  "energy_per_atom": -4.619141001538461,
  "formation_energy_per_atom": -1.827995586410255,
  "energy_above_hull": 0.020759914444446,
  "is_stable": false,
  "equilibrium_reaction_energy_per_atom": null,
  "decomposes_to": null,
  "xas": null,
  "grain_boundaries": null,
  "band_gap": 0.0,
  "cbm": null,
  "vbm": null,
  "efermi": 3.11484501,
  "is_gap_direct": null,
  "is_metal": null,
  "es_source_calc_id": null,
  "bandstructure": null,
  "dos": null,
  "dos_energy_up": null,
  "dos_energy_down": null,
  "is_magnetic": null,
  "ordering": null,
  "total_magnetization": 1.0182165,
  "total_magnetization_normalized_vol": null,
  "total_magnetization_normalized_formula_units": null,
  "num_magnetic_sites": null,
  "num_unique_magnetic_sites": null,
  "types_of_magnetic_species": null,
  "bulk_modulus": null,
  "shear_modulus": null,
  "universal_anisotropy": null,
  "homogeneous_poisson": null,
  "e_total": null,
  "e_ionic": null,
  "e_electronic": null,
  "n": null,
  "e_ij_max": null,
  "weighted_surface_energy_EV_PER_ANG2": null,
  "weighted_surface_energy": null,
  "weighted_work_function": null,
  "surface_anisotropy": null,
  "shape_factor": null,
  "has_reconstructed": null,
  "possible_species": null,
  "has_props": null,
  "theoretical": null,
  "database_IDs": null,
  "fields_not_requested": [
    "builder_meta",
    "nsites",
    "elements",
    "nelements",
    "composition",
    "composition_reduced",
    "chemsys",
    "symmetry",
    "property_name",
    "deprecated",
    "deprecation_reasons",
    "last_updated",
    "origins",
    "warnings",
    "task_ids",
    "uncorrected_energy_per_atom",
    "equilibrium_reaction_energy_per_atom",
    "decomposes_to",
    "xas",
    "grain_boundaries",
    "cbm",
    "vbm",
    "is_gap_direct",
    "is_metal",
    "es_source_calc_id",
    "bandstructure",
    "dos",
    "dos_energy_up",
    "dos_energy_down",
    "is_magnetic",
    "ordering",
    "total_magnetization_normalized_vol",
    "total_magnetization_normalized_formula_units",
    "num_magnetic_sites",
    "num_unique_magnetic_sites",
    "types_of_magnetic_species",
    "bulk_modulus",
    "shear_modulus",
    "universal_anisotropy",
    "homogeneous_poisson",
    "e_total",
    "e_ionic",
    "e_electronic",
    "n",
    "e_ij_max",
    "weighted_surface_energy_EV_PER_ANG2",
    "weighted_surface_energy",
    "weighted_work_function",
    "surface_anisotropy",
    "shape_factor",
    "has_reconstructed",
    "possible_species",
    "has_props",
    "theoretical",
    "database_IDs"
  ]
}
