{
  "builder_meta": null,
  "nsites": null,
  "elements": null,
  "nelements": null,
  "composition": null,
  "composition_reduced": null,
  "formula_pretty": "Tb5Ge3",
  "formula_anonymous": "A3B5",
  "chemsys": null,
  "volume": 404.7412254584166,
  "density": 8.30838733182918,
  "density_atomic": 25.296326591151036,
  "symmetry": null,
  "property_name": null,
  "material_id": "mp-2610",
  "deprecated": null,
  "deprecation_reasons": null,
  "last_updated": null,
  "origins": null,
  "warnings": null,
  "structure": {
    "@module": "pymatgen.core.structure",
    "@class": "Structure",
    "charge": 0,
    "lattice": {
      "matrix": [
        [8.51081304, -1e-8, -0.0],
        [-4.25540703, 7.37058113, -0.0],
        [0.0, 0.0, 6.45215306]
      ],
      "pbc": [true, true, true],
      "a": 8.51081304,
      "b": 8.510814014234214,
      "c": 6.45215306,
      "alpha": 90.0,
      "beta": 90.0,
      "gamma": 120.0000002452031,
      "volume": 404.7412254584166
    },
    "properties": {},
    "sites": [
      {
        "species": [{ "element": "Tb", "occu": 1 }],
        "abc": [0.333333, 0.666667, 0.0],
        "properties": { "magmom": 0.0 },
        "label": "Tb",
        "xyz": [-4.5954066898445944e-6, 4.9137232068603796, 0.0]
      },
      {
        "species": [{ "element": "Tb", "occu": 1 }],
        "abc": [0.666667, 0.333333, 0.5],
        "properties": { "magmom": 0.0 },
        "label": "Tb",
        "xyz": [4.2554106054066905, 2.4568579131396198, 3.22607653]
      },
      {
        "species": [{ "element": "Tb", "occu": 1 }],
        "abc": [0.666667, 0.333333, 0.0],
        "properties": { "magmom": 0.0 },
        "label": "Tb",
        "xyz": [4.2554106054066905, 2.4568579131396198, 0.0]
      },
      {
        "species": [{ "element": "Tb", "occu": 1 }],
        "abc": [0.333333, 0.666667, 0.5],
        "properties": { "magmom": 0.0 },
        "label": "Tb",
        "xyz": [-4.5954066898445944e-6, 4.9137232068603796, 3.22607653]
      },
      {
        "species": [{ "element": "Tb", "occu": 1 }],
        "abc": [0.24243887, 0.0, 0.25],
        "properties": { "magmom": 0.0 },
        "label": "Tb",
        "xyz": [2.063351896198865, -2.4243887e-9, 1.613038265]
      },
      {
        "species": [{ "element": "Tb", "occu": 1 }],
        "abc": [0.24243887, 0.24243887, 0.75],
        "properties": { "magmom": 0.0 },
        "label": "Tb",
        "xyz": [1.0316758244556088, 1.7869153579761343, 4.8391147949999995]
      },
      {
        "species": [{ "element": "Tb", "occu": 1 }],
        "abc": [0.0, 0.75756113, 0.75],
        "properties": { "magmom": 0.0 },
        "label": "Tb",
        "xyz": [-3.223730958256744, 5.5836657695994765, 4.8391147949999995]
      },
      {
        "species": [{ "element": "Tb", "occu": 1 }],
        "abc": [-0.0, 0.24243887, 0.25],
        "properties": { "magmom": 0.0 },
        "label": "Tb",
        "xyz": [-1.031676071743256, 1.786915360400523, 1.613038265]
      },
      {
        "species": [{ "element": "Tb", "occu": 1 }],
        "abc": [0.75756113, 0.75756113, 0.25],
        "properties": { "magmom": 0.0 },
        "label": "Tb",
        "xyz": [3.223730185544392, 5.583665762023865, 1.613038265]
      },
      {
        "species": [{ "element": "Tb", "occu": 1 }],
        "abc": [0.75756113, -0.0, 0.75],
        "properties": { "magmom": 0.0 },
        "label": "Tb",
        "xyz": [6.447461143801136, -7.5756113e-9, 4.8391147949999995]
      },
      {
        "species": [{ "element": "Ge", "occu": 1 }],
        "abc": [0.6068163400000001, -0.0, 0.25],
        "properties": { "magmom": -0.0 },
        "label": "Ge",
        "xyz": [5.164500419357075, -6.068163400000001e-9, 1.613038265]
      },
      {
        "species": [{ "element": "Ge", "occu": 1 }],
        "abc": [0.6068163400000001, 0.6068163400000001, 0.75],
        "properties": { "magmom": -0.0 },
        "label": "Ge",
        "xyz": [2.5822499002022044, 4.472589058911501, 4.8391147949999995]
      },
      {
        "species": [{ "element": "Ge", "occu": 1 }],
        "abc": [-0.0, 0.39318366, 0.75],
        "properties": { "magmom": -0.0 },
        "label": "Ge",
        "xyz": [-1.6731565108451296, 2.8979920650203357, 4.8391147949999995]
      },
      {
        "species": [{ "element": "Ge", "occu": 1 }],
        "abc": [0.0, 0.6068163400000001, 0.25],
        "properties": { "magmom": -0.0 },
        "label": "Ge",
        "xyz": [-2.5822505191548704, 4.4725890649796645, 1.613038265]
      },
      {
        "species": [{ "element": "Ge", "occu": 1 }],
        "abc": [0.39318366, 0.39318366, 0.25],
        "properties": { "magmom": -0.0 },
        "label": "Ge",
        "xyz": [1.673156109797797, 2.897992061088499, 1.613038265]
      },
      {
        "species": [{ "element": "Ge", "occu": 1 }],
        "abc": [0.39318366, 0.0, 0.75],
        "properties": { "magmom": -0.0 },
        "label": "Ge",
        "xyz": [3.3463126206429266, -3.9318366e-9, 4.8391147949999995]
      }
    ]
  },
  "task_ids": null,
  "uncorrected_energy_per_atom": null,
  "energy_per_atom": -25.635881276875,
  "formation_energy_per_atom": -0.917368340625,
  "energy_above_hull": 0.0,
  "is_stable": true,
  "equilibrium_reaction_energy_per_atom": null,
  "decomposes_to": null,
  "xas": null,
  "grain_boundaries": null,
  "band_gap": 0.0,
  "cbm": null,
  "vbm": null,
  "efermi": 4.21568563,
  "is_gap_direct": null,
  "is_metal": null,
  "es_source_calc_id": null,
  "bandstructure": null,
  "dos": null,
  "dos_energy_up": null,
  "dos_energy_down": null,
  "is_magnetic": null,
  "ordering": null,
  "total_magnetization": 2.6700000000000002e-5,
  "total_magnetization_normalized_vol": null,
  "total_magnetization_normalized_formula_units": null,
  "num_magnetic_sites": null,
  "num_unique_magnetic_sites": null,
  "types_of_magnetic_species": null,
  "bulk_modulus": null,
  "shear_modulus": null,
  "universal_anisotropy": null,
  "homogeneous_poisson": null,
  "e_total": null,
  "e_ionic": null,
  "e_electronic": null,
  "n": null,
  "e_ij_max": null,
  "weighted_surface_energy_EV_PER_ANG2": null,
  "weighted_surface_energy": null,
  "weighted_work_function": null,
  "surface_anisotropy": null,
  "shape_factor": null,
  "has_reconstructed": null,
  "possible_species": null,
  "has_props": null,
  "theoretical": null,
  "database_IDs": null,
  "fields_not_requested": [
    "builder_meta",
    "nsites",
    "elements",
    "nelements",
    "composition",
    "composition_reduced",
    "chemsys",
    "symmetry",
    "property_name",
    "deprecated",
    "deprecation_reasons",
    "last_updated",
    "origins",
    "warnings",
    "task_ids",
    "uncorrected_energy_per_atom",
    "equilibrium_reaction_energy_per_atom",
    "decomposes_to",
    "xas",
    "grain_boundaries",
    "cbm",
    "vbm",
    "is_gap_direct",
    "is_metal",
    "es_source_calc_id",
    "bandstructure",
    "dos",
    "dos_energy_up",
    "dos_energy_down",
    "is_magnetic",
    "ordering",
    "total_magnetization_normalized_vol",
    "total_magnetization_normalized_formula_units",
    "num_magnetic_sites",
    "num_unique_magnetic_sites",
    "types_of_magnetic_species",
    "bulk_modulus",
    "shear_modulus",
    "universal_anisotropy",
    "homogeneous_poisson",
    "e_total",
    "e_ionic",
    "e_electronic",
    "n",
    "e_ij_max",
    "weighted_surface_energy_EV_PER_ANG2",
    "weighted_surface_energy",
    "weighted_work_function",
    "surface_anisotropy",
    "shape_factor",
    "has_reconstructed",
    "possible_species",
    "has_props",
    "theoretical",
    "database_IDs"
  ]
}
