{
  "builder_meta": null,
  "nsites": null,
  "elements": null,
  "nelements": null,
  "composition": null,
  "composition_reduced": null,
  "formula_pretty": "Tb5Ga3",
  "formula_anonymous": "A3B5",
  "chemsys": null,
  "volume": 413.3208466532471,
  "density": 8.065608455314297,
  "density_atomic": 25.832552915827943,
  "symmetry": null,
  "property_name": null,
  "material_id": "mp-1188342",
  "deprecated": null,
  "deprecation_reasons": null,
  "last_updated": null,
  "origins": null,
  "warnings": null,
  "structure": {
    "@module": "pymatgen.core.structure",
    "@class": "Structure",
    "charge": 0,
    "lattice": {
      "matrix": [
        [-3.82295999, 3.8226830400000003, 7.07276223],
        [3.8226830400000003, -3.82295999, 7.07276223],
        [3.82181777, 3.82181777, -7.07291499]
      ],
      "pbc": [true, true, true],
      "a": 8.90235329963707,
      "b": 8.90235329963707,
      "c": 8.901612696019876,
      "alpha": 129.14474375504022,
      "beta": 129.14474375504022,
      "gamma": 74.78722792716646,
      "volume": 413.3208466532472
    },
    "properties": {},
    "sites": [
      {
        "species": [{ "element": "Tb", "occu": 1 }],
        "abc": [0.5, 0.5, 0.0],
        "properties": { "magmom": 0.0 },
        "label": "Tb",
        "xyz": [-0.00013847499999997126, -0.00013847499999997126, 7.07276223]
      },
      {
        "species": [{ "element": "Tb", "occu": 1 }],
        "abc": [-0.0, 0.0, 0.0],
        "properties": { "magmom": 0.0 },
        "label": "Tb",
        "xyz": [0.0, 0.0, 0.0]
      },
      {
        "species": [{ "element": "Tb", "occu": 1 }],
        "abc": [0.52321204, 0.02321204, 0.84102848],
        "properties": { "magmom": -0.0 },
        "label": "Tb",
        "xyz": [1.3027711663656116, 5.125592681365612, -2.0837953486224166]
      },
      {
        "species": [{ "element": "Tb", "occu": 1 }],
        "abc": [0.18211176, 0.6821117600000001, 0.15880213],
        "properties": { "magmom": -0.0 },
        "label": "Tb",
        "xyz": [2.5182038864959186, -1.304617628504082, 4.989253504812722]
      },
      {
        "species": [{ "element": "Tb", "occu": 1 }],
        "abc": [0.02342941, 0.18204214, 0.50000165],
        "properties": { "magmom": 0.0 },
        "label": "Tb",
        "xyz": [2.51723489512332, 1.304538581529548, -2.0832177471301767]
      },
      {
        "species": [{ "element": "Tb", "occu": 1 }],
        "abc": [0.68204214, 0.52342941, 0.50000165],
        "properties": { "magmom": 0.0 },
        "label": "Tb",
        "xyz": [1.3044001065295483, 2.5170964201233197, 4.989544482869824]
      },
      {
        "species": [{ "element": "Tb", "occu": 1 }],
        "abc": [0.47678796, 0.97678796, 0.15897152],
        "properties": { "magmom": -0.0 },
        "label": "Tb",
        "xyz": [2.518769653634388, -1.3040518613656118, 9.156404818622418]
      },
      {
        "species": [{ "element": "Tb", "occu": 1 }],
        "abc": [0.81788824, 0.31788824, 0.84119787],
        "properties": { "magmom": -0.0 },
        "label": "Tb",
        "xyz": [1.3033369335040816, 5.126158448504082, 2.0833559651872804]
      },
      {
        "species": [{ "element": "Tb", "occu": 1 }],
        "abc": [0.97657059, 0.81795786, 0.49999835000000004],
        "properties": { "magmom": 0.0 },
        "label": "Tb",
        "xyz": [1.3043059248766802, 2.517002238470452, 9.155827217130177]
      },
      {
        "species": [{ "element": "Tb", "occu": 1 }],
        "abc": [0.31795786, 0.47657059, 0.49999835000000004],
        "properties": { "magmom": 0.0 },
        "label": "Tb",
        "xyz": [2.517140713470452, 1.30444439987668, 2.083064987130177]
      },
      {
        "species": [{ "element": "Ga", "occu": 1 }],
        "abc": [0.25001224, 0.24998876, 0.0],
        "properties": { "magmom": -0.0 },
        "label": "Ga",
        "xyz": [
          -0.00015899748764713895, 2.0522210697149212e-5, 3.5363881877622303
        ]
      },
      {
        "species": [{ "element": "Ga", "occu": 1 }],
        "abc": [0.74998776, 0.75001124, 0.0],
        "properties": { "magmom": -0.0 },
        "label": "Ga",
        "xyz": [
          -0.0001179525123529146, -0.0002974722106969807, 10.60913627223777
        ]
      },
      {
        "species": [{ "element": "Ga", "occu": 1 }],
        "abc": [0.87942785, 0.37942785, 0.25886576],
        "properties": { "magmom": -0.0 },
        "label": "Ga",
        "xyz": [-0.9222473159305025, 2.900574199069498, 7.072651533678469]
      },
      {
        "species": [{ "element": "Ga", "occu": 1 }],
        "abc": [0.12057215, 0.62057215, 0.74113424],
        "properties": { "magmom": -0.0 },
        "label": "Ga",
        "xyz": [4.743788135930503, 0.9209666209305023, -4.2063678468373666e-5]
      },
      {
        "species": [{ "element": "Ga", "occu": 1 }],
        "abc": [0.37945152, 0.12054848, 0.5],
        "properties": { "magmom": 0.0 },
        "label": "Ga",
        "xyz": [0.9210995358890944, 2.9005797591109057, -7.637999999987599e-5]
      },
      {
        "species": [{ "element": "Ga", "occu": 1 }],
        "abc": [0.62054848, 0.87945152, 0.5],
        "properties": { "magmom": 0.0 },
        "label": "Ga",
        "xyz": [2.900441284110906, 0.9209610608890939, 7.072685849999999]
      }
    ]
  },
  "task_ids": null,
  "uncorrected_energy_per_atom": null,
  "energy_per_atom": -24.3951815175,
  "formation_energy_per_atom": -0.5876191925,
  "energy_above_hull": 0.014742786718748001,
  "is_stable": false,
  "equilibrium_reaction_energy_per_atom": null,
  "decomposes_to": null,
  "xas": null,
  "grain_boundaries": null,
  "band_gap": 0.0,
  "cbm": null,
  "vbm": null,
  "efermi": 3.35209453,
  "is_gap_direct": null,
  "is_metal": null,
  "es_source_calc_id": null,
  "bandstructure": null,
  "dos": null,
  "dos_energy_up": null,
  "dos_energy_down": null,
  "is_magnetic": null,
  "ordering": null,
  "total_magnetization": 1.0500000000000001e-5,
  "total_magnetization_normalized_vol": null,
  "total_magnetization_normalized_formula_units": null,
  "num_magnetic_sites": null,
  "num_unique_magnetic_sites": null,
  "types_of_magnetic_species": null,
  "bulk_modulus": null,
  "shear_modulus": null,
  "universal_anisotropy": null,
  "homogeneous_poisson": null,
  "e_total": null,
  "e_ionic": null,
  "e_electronic": null,
  "n": null,
  "e_ij_max": null,
  "weighted_surface_energy_EV_PER_ANG2": null,
  "weighted_surface_energy": null,
  "weighted_work_function": null,
  "surface_anisotropy": null,
  "shape_factor": null,
  "has_reconstructed": null,
  "possible_species": null,
  "has_props": null,
  "theoretical": null,
  "database_IDs": null,
  "fields_not_requested": [
    "builder_meta",
    "nsites",
    "elements",
    "nelements",
    "composition",
    "composition_reduced",
    "chemsys",
    "symmetry",
    "property_name",
    "deprecated",
    "deprecation_reasons",
    "last_updated",
    "origins",
    "warnings",
    "task_ids",
    "uncorrected_energy_per_atom",
    "equilibrium_reaction_energy_per_atom",
    "decomposes_to",
    "xas",
    "grain_boundaries",
    "cbm",
    "vbm",
    "is_gap_direct",
    "is_metal",
    "es_source_calc_id",
    "bandstructure",
    "dos",
    "dos_energy_up",
    "dos_energy_down",
    "is_magnetic",
    "ordering",
    "total_magnetization_normalized_vol",
    "total_magnetization_normalized_formula_units",
    "num_magnetic_sites",
    "num_unique_magnetic_sites",
    "types_of_magnetic_species",
    "bulk_modulus",
    "shear_modulus",
    "universal_anisotropy",
    "homogeneous_poisson",
    "e_total",
    "e_ionic",
    "e_electronic",
    "n",
    "e_ij_max",
    "weighted_surface_energy_EV_PER_ANG2",
    "weighted_surface_energy",
    "weighted_work_function",
    "surface_anisotropy",
    "shape_factor",
    "has_reconstructed",
    "possible_species",
    "has_props",
    "theoretical",
    "database_IDs"
  ]
}
