{"builder_meta": null, "nsites": null, "elements": null, "nelements": null, "composition": null, "composition_reduced": null, "formula_pretty": "Tb5Ir2", "formula_anonymous": "A2B5", "chemsys": null, "volume": 371.35204151630063, "density": 10.544584213272753, "density_atomic": 26.5251458225929, "symmetry": null, "property_name": null, "material_id": "mp-1103978", "deprecated": null, "deprecation_reasons": null, "last_updated": null, "origins": null, "warnings": null, "structure": {"@module": "pymatgen.core.structure", "@class": "Structure", "charge": 0, "lattice": {"matrix": [[0.0, 6.523912, 0.0], [-0.006246, 0.0, 7.204962], [7.90115, -3.261956, -0.929222999999999]], "pbc": [true, true, true], "a": 6.523912, "b": 7.2049647073361855, "c": 8.59837098828406, "alpha": 96.24996244155071, "beta": 112.29460684250267, "gamma": 90.0, "volume": 371.35204151630063}, "properties": {}, "sites": [{"species": [{"element": "Tb", "occu": 1}], "abc": [0.971233999999999, 0.917696, 0.182621999999999], "properties": {"magmom": 0.0}, "label": "Tb", "xyz": [1.437191886083992, 5.7405402187759975, 6.442268244846001]}, {"species": [{"element": "Tb", "occu": 1}], "abc": [0.788612, 0.582303999999999, 0.817377999999999], "properties": {"magmom": 0.0}, "label": "Tb", "xyz": [6.4545891139159925, 2.478584218776003, 3.4359517551539946]}, {"species": [{"element": "Tb", "occu": 1}], "abc": [0.028766, 0.082304, 0.817377999999999], "properties": {"magmom": 0.0}, "label": "Tb", "xyz": [6.457712113915993, -2.478584218775997, -0.1665292448459983]}, {"species": [{"element": "Tb", "occu": 1}], "abc": [0.211388, 0.417695999999999, 0.182621999999999], "properties": {"magmom": 0.0}, "label": "Tb", "xyz": [1.440314886083992, 0.7833717812240032, 2.839787244845994]}, {"species": [{"element": "Tb", "occu": 1}], "abc": [0.653714, 0.818112, 0.440884999999999], "properties": {"magmom": 0.0}, "label": "Tb", "xyz": [3.4783885901979925, 2.826625138108003, 5.4847853893890015]}, {"species": [{"element": "Tb", "occu": 1}], "abc": [0.212829, 0.681887999999999, 0.559115], "properties": {"magmom": 0.0}, "label": "Tb", "xyz": [4.413392409802, -0.4353308618920002, 4.393434610610994]}, {"species": [{"element": "Tb", "occu": 1}], "abc": [0.346286, 0.181888, 0.559115], "properties": {"magmom": 0.0}, "label": "Tb", "xyz": [4.416515409802, 0.43533086189199977, 0.7909536106110004]}, {"species": [{"element": "Tb", "occu": 1}], "abc": [0.787171, 0.318112, 0.440884999999999], "properties": {"magmom": 0.0}, "label": "Tb", "xyz": [3.4815115901979925, 3.697286861892003, 1.8823043893890012]}, {"species": [{"element": "Tb", "occu": 1}], "abc": [0.428556999999999, 0.75, 0.0], "properties": {"magmom": 0.0}, "label": "Tb", "xyz": [-0.004684499999999999, 2.7958681549839937, 5.4037215]}, {"species": [{"element": "Tb", "occu": 1}], "abc": [0.571442999999999, 0.25, 0.0], "properties": {"magmom": 0.0}, "label": "Tb", "xyz": [-0.0015615, 3.7280438450159936, 1.8012405]}, {"species": [{"element": "Ir", "occu": 1}], "abc": [0.825835, 0.5730000000000001, 0.220368999999999], "properties": {"magmom": -0.0}, "label": "Ir", "xyz": [1.7375895663499923, 4.668840884756003, 3.923671282713002]}, {"species": [{"element": "Ir", "occu": 1}], "abc": [0.605466, 0.927, 0.779631], "properties": {"magmom": -0.0}, "label": "Ir", "xyz": [6.154191433649999, 1.4068848847559998, 5.954548717287001]}, {"species": [{"element": "Ir", "occu": 1}], "abc": [0.174165, 0.427, 0.779631], "properties": {"magmom": -0.0}, "label": "Ir", "xyz": [6.15731443365, -1.4068848847560003, 2.352067717287001]}, {"species": [{"element": "Ir", "occu": 1}], "abc": [0.394534, 0.073, 0.220368999999999], "properties": {"magmom": -0.0}, "label": "Ir", "xyz": [1.7407125663499923, 1.8550711152440034, 0.3211902827130011]}]}, "task_ids": null, "uncorrected_energy_per_atom": null, "energy_per_atom": -6.4766204285714295, "formation_energy_per_atom": -0.6385937890476181, "energy_above_hull": 0.0, "is_stable": true, "equilibrium_reaction_energy_per_atom": null, "decomposes_to": null, "xas": null, "grain_boundaries": null, "band_gap": 0.0, "cbm": null, "vbm": null, "efermi": 4.32117806, "is_gap_direct": null, "is_metal": null, "es_source_calc_id": null, "bandstructure": null, "dos": null, "dos_energy_up": null, "dos_energy_down": null, "is_magnetic": null, "ordering": null, "total_magnetization": 0.0084649, "total_magnetization_normalized_vol": null, "total_magnetization_normalized_formula_units": null, "num_magnetic_sites": null, "num_unique_magnetic_sites": null, "types_of_magnetic_species": null, "bulk_modulus": null, "shear_modulus": null, "universal_anisotropy": null, "homogeneous_poisson": null, "e_total": null, "e_ionic": null, "e_electronic": null, "n": null, "e_ij_max": null, "weighted_surface_energy_EV_PER_ANG2": null, "weighted_surface_energy": null, "weighted_work_function": null, "surface_anisotropy": null, "shape_factor": null, "has_reconstructed": null, "possible_species": null, "has_props": null, "theoretical": null, "database_IDs": null, "fields_not_requested": ["builder_meta", "nsites", "elements", "nelements", "composition", "composition_reduced", "chemsys", "symmetry", "property_name", "deprecated", "deprecation_reasons", "last_updated", "origins", "warnings", "task_ids", "uncorrected_energy_per_atom", "equilibrium_reaction_energy_per_atom", "decomposes_to", "xas", "grain_boundaries", "cbm", "vbm", "is_gap_direct", "is_metal", "es_source_calc_id", "bandstructure", "dos", "dos_energy_up", "dos_energy_down", "is_magnetic", "ordering", "total_magnetization_normalized_vol", "total_magnetization_normalized_formula_units", "num_magnetic_sites", "num_unique_magnetic_sites", "types_of_magnetic_species", "bulk_modulus", "shear_modulus", "universal_anisotropy", "homogeneous_poisson", "e_total", "e_ionic", "e_electronic", "n", "e_ij_max", "weighted_surface_energy_EV_PER_ANG2", "weighted_surface_energy", "weighted_work_function", "surface_anisotropy", "shape_factor", "has_reconstructed", "possible_species", "has_props", "theoretical", "database_IDs"]}