{
  "builder_meta": null,
  "nsites": null,
  "elements": null,
  "nelements": null,
  "composition": null,
  "composition_reduced": null,
  "formula_pretty": "Tb5Ir3",
  "formula_anonymous": "A3B5",
  "chemsys": null,
  "volume": 755.5484055470165,
  "density": 12.055139066229692,
  "density_atomic": 23.610887673344266,
  "symmetry": null,
  "property_name": null,
  "material_id": "mp-1201266",
  "deprecated": null,
  "deprecation_reasons": null,
  "last_updated": null,
  "origins": null,
  "warnings": null,
  "structure": {
    "@module": "pymatgen.core.structure",
    "@class": "Structure",
    "charge": 0,
    "lattice": {
      "matrix": [
        [1.802e-5, 6.563000000000001e-5, 6.38694761],
        [10.87634747, 5.32e-6, 2.875e-5],
        [6.28e-6, 10.8764174, 0.00010891]
      ],
      "pbc": [true, true, true],
      "a": 6.386947610362616,
      "b": 10.8763474700393,
      "c": 10.876417400547092,
      "alpha": 89.9999388907696,
      "beta": 89.99883752288214,
      "gamma": 89.99968689376648,
      "volume": 755.5484055470165
    },
    "properties": {},
    "sites": [
      {
        "species": [{ "element": "Tb", "occu": 1 }],
        "abc": [0.3845517, 0.83858718, 0.5419301400000001],
        "properties": { "magmom": 0.0 },
        "label": "Tb",
        "xyz": [9.12077588651035, 5.894288103692305, 2.4561946922294093]
      },
      {
        "species": [{ "element": "Tb", "occu": 1 }],
        "abc": [0.88455302, 0.66141236, 0.5419269],
        "properties": { "magmom": 0.0 },
        "label": "Tb",
        "xyz": [7.1937699912590825, 5.894284736616518, 5.649671833871311]
      },
      {
        "species": [{ "element": "Tb", "occu": 1 }],
        "abc": [0.88454082, 0.83858376, 0.95807134],
        "properties": { "magmom": -0.0 },
        "label": "Tb",
        "xyz": [9.12075031257268, 10.420446306496935, 5.649644329079179]
      },
      {
        "species": [{ "element": "Tb", "occu": 1 }],
        "abc": [0.38454107, 0.66141846, 0.95806941],
        "properties": { "magmom": -0.0 },
        "label": "Tb",
        "xyz": [7.193829940138273, 10.420391557508365, 2.4561670271035108]
      },
      {
        "species": [{ "element": "Tb", "occu": 1 }],
        "abc": [0.884559099999999, 0.54189181, 0.83855888],
        "properties": { "magmom": 0.0 },
        "label": "Tb",
        "xyz": [5.893824822611968, 9.120577329834674, 5.649739536485903]
      },
      {
        "species": [{ "element": "Tb", "occu": 1 }],
        "abc": [0.38455003, 0.95810847, 0.83855651],
        "properties": { "magmom": -0.0 },
        "label": "Tb",
        "xyz": [10.420732829396496, 9.120520951402803, 2.4562197678419446]
      },
      {
        "species": [{ "element": "Tb", "occu": 1 }],
        "abc": [0.38455939, 0.54188841, 0.661438899999999],
        "properties": { "magmom": 0.0 },
        "label": "Tb",
        "xyz": [5.893777720722322, 7.194113682475956, 2.456248293465944]
      },
      {
        "species": [{ "element": "Tb", "occu": 1 }],
        "abc": [0.88455155, 0.9581175, 0.6614398300000001],
        "properties": { "magmom": 0.0 },
        "label": "Tb",
        "xyz": [10.420838940548789, 7.194158826368368, 5.649683991484306]
      },
      {
        "species": [{ "element": "Tb", "occu": 1 }],
        "abc": [0.61544173, 0.16150715000000002, 0.45803755],
        "properties": { "magmom": 0.0 },
        "label": "Tb",
        "xyz": [1.7566218490251995, 4.981848829332147, 3.930848614717899]
      },
      {
        "species": [{ "element": "Tb", "occu": 1 }],
        "abc": [0.11544101, 0.33849498, 0.45804307],
        "properties": { "magmom": -0.0 },
        "label": "Tb",
        "xyz": [3.6815939760881804, 4.981876993684198, 0.7373753001169148]
      },
      {
        "species": [{ "element": "Tb", "occu": 1 }],
        "abc": [0.11545233, 0.16151019, 0.04196591],
        "properties": { "magmom": 0.0 },
        "label": "Tb",
        "xyz": [1.7566432903826208, 0.4564471901014627, 0.737397197087652]
      },
      {
        "species": [{ "element": "Tb", "occu": 1 }],
        "abc": [0.6154514, 0.3384894, 0.04196349],
        "properties": { "magmom": 0.0 },
        "label": "Tb",
        "xyz": [3.6815396832767635, 0.45645462563971595, 3.9308701501151]
      },
      {
        "species": [{ "element": "Tb", "occu": 1 }],
        "abc": [0.11544834, 0.4579955, 0.16148109],
        "properties": { "magmom": -0.0 },
        "label": "Tb",
        "xyz": [4.981321292176717, 1.7563457504575801, 0.7373932535176042]
      },
      {
        "species": [{ "element": "Tb", "occu": 1 }],
        "abc": [0.61545519, 0.04200372, 0.16148615],
        "properties": { "magmom": -0.0 },
        "label": "Tb",
        "xyz": [0.45685915838813423, 1.75643138750292, 3.9308988498961424]
      },
      {
        "species": [{ "element": "Tb", "occu": 1 }],
        "abc": [0.6154488, 0.458000099999999, 0.33852196],
        "properties": { "magmom": 0.0 },
        "label": "Tb",
        "xyz": [4.981381445200021, 3.68194896449138, 3.930889278166907]
      },
      {
        "species": [{ "element": "Tb", "occu": 1 }],
        "abc": [0.11545591000000001, 0.04199688, 0.33851677],
        "properties": { "magmom": -0.0 },
        "label": "Tb",
        "xyz": [0.45677686593670747, 3.681857488214573, 0.7374489237065958]
      },
      {
        "species": [{ "element": "Tb", "occu": 1 }],
        "abc": [0.50001519, 0.74999571, 0.25001153],
        "properties": { "magmom": 0.0 },
        "label": "Tb",
        "xyz": [8.157224523315486, 2.7192665610667186, 3.193619613866591]
      },
      {
        "species": [{ "element": "Tb", "occu": 1 }],
        "abc": [1.752e-5, 0.74998856, 0.2500069],
        "properties": { "magmom": 0.0 },
        "label": "Tb",
        "xyz": [8.157137747443986, 2.719183388369036, 0.00016068974470620002]
      },
      {
        "species": [{ "element": "Tb", "occu": 1 }],
        "abc": [1.665e-5, 0.25000857, 0.74999615],
        "properties": { "magmom": -0.0 },
        "label": "Tb",
        "xyz": [2.719184788073673, 8.157272506931342, 0.0001952125047905]
      },
      {
        "species": [{ "element": "Tb", "occu": 1 }],
        "abc": [0.50002262, 0.25000113, 0.74999031],
        "properties": { "magmom": -0.0 },
        "label": "Tb",
        "xyz": [2.7191128781194007, 8.157241804005956, 3.1937071467320877]
      },
      {
        "species": [{ "element": "Ir", "occu": 1 }],
        "abc": [0.24999738000000002, 0.90360077, 0.09650125],
        "properties": { "magmom": 0.0 },
        "label": "Ir",
        "xyz": [9.827881059660191, 1.0496090891058958, 1.596756657170537]
      },
      {
        "species": [{ "element": "Ir", "occu": 1 }],
        "abc": [0.74999512, 0.59640097, 0.09649815],
        "properties": { "magmom": -0.0 },
        "label": "Ir",
        "xyz": [6.486678302085491, 1.049606552760696, 4.790207195337067]
      },
      {
        "species": [{ "element": "Ir", "occu": 1 }],
        "abc": [0.7499950200000001, 0.90360313, 0.40349445],
        "properties": { "magmom": -0.0 },
        "label": "Ir",
        "xyz": [9.82791766571499, 4.388628086125244, 4.79024882367144]
      },
      {
        "species": [{ "element": "Ir", "occu": 1 }],
        "abc": [0.24999468, 0.59639952, 0.40349837],
        "properties": { "magmom": -0.0 },
        "label": "Ir",
        "xyz": [6.486655449335111, 4.3886362723359325, 1.5967640154323914]
      },
      {
        "species": [{ "element": "Ir", "occu": 1 }],
        "abc": [0.74999849, 0.09654553, 0.903562],
        "properties": { "magmom": 0.0 },
        "label": "Ir",
        "xyz": [1.050081920297459, 9.827567194801917, 4.7903022458305164]
      },
      {
        "species": [{ "element": "Ir", "occu": 1 }],
        "abc": [0.25000162, 0.4034544, 0.90356091],
        "properties": { "magmom": 0.0 },
        "label": "Ir",
        "xyz": [4.388120422092076, 9.827524157467563, 1.5968572554878362]
      },
      {
        "species": [{ "element": "Ir", "occu": 1 }],
        "abc": [0.24999112, 0.09654217, 0.5964411],
        "properties": { "magmom": -0.0 },
        "label": "Ir",
        "xyz": [1.0500344369179004, 6.487159278636689, 1.5967479203928119]
      },
      {
        "species": [{ "element": "Ir", "occu": 1 }],
        "abc": [0.74999286, 0.40346467, 0.59643315],
        "properties": { "magmom": -0.0 },
        "label": "Ir",
        "xyz": [4.388239203260405, 6.487107259060256, 4.790241661837693]
      },
      {
        "species": [{ "element": "Ir", "occu": 1 }],
        "abc": [0.12893994, 0.74998695, 0.7499958],
        "properties": { "magmom": 0.0 },
        "label": "Ir",
        "xyz": [8.157125699636861, 8.157279821305757, 0.8236358857839339]
      },
      {
        "species": [{ "element": "Ir", "occu": 1 }],
        "abc": [0.6289479, 0.7500049400000001, 0.75000089],
        "properties": { "magmom": 0.0 },
        "label": "Ir",
        "xyz": [8.15733037530325, 8.157367997888445, 4.017160531958473]
      },
      {
        "species": [{ "element": "Ir", "occu": 1 }],
        "abc": [0.8710397, 0.25000001, 0.24999835],
        "properties": { "magmom": 0.0 },
        "label": "Ir",
        "xyz": [2.719104242388507, 2.7191449002468544, 5.563319344950703]
      },
      {
        "species": [{ "element": "Ir", "occu": 1 }],
        "abc": [0.37103478, 0.25000014, 0.25000078],
        "properties": { "magmom": -0.0 },
        "label": "Ir",
        "xyz": [2.71909664624028, 2.719138514618928, 2.3698141164368502]
      }
    ]
  },
  "task_ids": null,
  "uncorrected_energy_per_atom": null,
  "energy_per_atom": -7.000437645624999,
  "formation_energy_per_atom": -0.7873600635416641,
  "energy_above_hull": 0.0,
  "is_stable": true,
  "equilibrium_reaction_energy_per_atom": null,
  "decomposes_to": null,
  "xas": null,
  "grain_boundaries": null,
  "band_gap": 0.0,
  "cbm": null,
  "vbm": null,
  "efermi": 4.88804428,
  "is_gap_direct": null,
  "is_metal": null,
  "es_source_calc_id": null,
  "bandstructure": null,
  "dos": null,
  "dos_energy_up": null,
  "dos_energy_down": null,
  "is_magnetic": null,
  "ordering": null,
  "total_magnetization": 0.0,
  "total_magnetization_normalized_vol": null,
  "total_magnetization_normalized_formula_units": null,
  "num_magnetic_sites": null,
  "num_unique_magnetic_sites": null,
  "types_of_magnetic_species": null,
  "bulk_modulus": null,
  "shear_modulus": null,
  "universal_anisotropy": null,
  "homogeneous_poisson": null,
  "e_total": null,
  "e_ionic": null,
  "e_electronic": null,
  "n": null,
  "e_ij_max": null,
  "weighted_surface_energy_EV_PER_ANG2": null,
  "weighted_surface_energy": null,
  "weighted_work_function": null,
  "surface_anisotropy": null,
  "shape_factor": null,
  "has_reconstructed": null,
  "possible_species": null,
  "has_props": null,
  "theoretical": null,
  "database_IDs": null,
  "fields_not_requested": [
    "builder_meta",
    "nsites",
    "elements",
    "nelements",
    "composition",
    "composition_reduced",
    "chemsys",
    "symmetry",
    "property_name",
    "deprecated",
    "deprecation_reasons",
    "last_updated",
    "origins",
    "warnings",
    "task_ids",
    "uncorrected_energy_per_atom",
    "equilibrium_reaction_energy_per_atom",
    "decomposes_to",
    "xas",
    "grain_boundaries",
    "cbm",
    "vbm",
    "is_gap_direct",
    "is_metal",
    "es_source_calc_id",
    "bandstructure",
    "dos",
    "dos_energy_up",
    "dos_energy_down",
    "is_magnetic",
    "ordering",
    "total_magnetization_normalized_vol",
    "total_magnetization_normalized_formula_units",
    "num_magnetic_sites",
    "num_unique_magnetic_sites",
    "types_of_magnetic_species",
    "bulk_modulus",
    "shear_modulus",
    "universal_anisotropy",
    "homogeneous_poisson",
    "e_total",
    "e_ionic",
    "e_electronic",
    "n",
    "e_ij_max",
    "weighted_surface_energy_EV_PER_ANG2",
    "weighted_surface_energy",
    "weighted_work_function",
    "surface_anisotropy",
    "shape_factor",
    "has_reconstructed",
    "possible_species",
    "has_props",
    "theoretical",
    "database_IDs"
  ]
}
