{
  "builder_meta": null,
  "nsites": null,
  "elements": null,
  "nelements": null,
  "composition": null,
  "composition_reduced": null,
  "formula_pretty": "Tb5Mg",
  "formula_anonymous": "AB5",
  "chemsys": null,
  "volume": 183.38459989175016,
  "density": 7.415389103320666,
  "density_atomic": 30.56409998195836,
  "symmetry": null,
  "property_name": null,
  "material_id": "mp-1186862",
  "deprecated": null,
  "deprecation_reasons": null,
  "last_updated": null,
  "origins": null,
  "warnings": null,
  "structure": {
    "@module": "pymatgen.core.structure",
    "@class": "Structure",
    "charge": 0,
    "lattice": {
      "matrix": [
        [5.85511864, -3.08055639, -0.00431135],
        [5.85511864, 3.08055639, -0.00431135],
        [4.23808689, -0.0, 5.08043992]
      ],
      "pbc": [true, true, true],
      "a": 6.6160608029388674,
      "b": 6.6160608029388674,
      "c": 6.61606002602149,
      "alpha": 55.500445473782015,
      "beta": 55.500445473782015,
      "gamma": 55.50043864425691,
      "volume": 183.38459989175018
    },
    "properties": {},
    "sites": [
      {
        "species": [{ "element": "Tb", "occu": 1 }],
        "abc": [0.65944186, 0.34055814, 0.0],
        "properties": { "magmom": 0.0 },
        "label": "Tb",
        "xyz": [5.855118640000001, -0.9823392813129708, -0.00431135]
      },
      {
        "species": [{ "element": "Tb", "occu": 1 }],
        "abc": [-0.0, 0.65944186, 0.34055814],
        "properties": { "magmom": 0.0 },
        "label": "Tb",
        "xyz": [5.304425314899055, 2.0314478356564853, 1.727342084873838]
      },
      {
        "species": [{ "element": "Tb", "occu": 1 }],
        "abc": [0.34055814, 0.0, 0.65944186],
        "properties": { "magmom": 0.0 },
        "label": "Tb",
        "xyz": [4.788780215100945, -1.0491085543435146, 3.3487864851261624]
      },
      {
        "species": [{ "element": "Tb", "occu": 1 }],
        "abc": [0.83212006, 0.83212006, 0.83212006],
        "properties": { "magmom": 0.0 },
        "label": "Tb",
        "xyz": [13.27092046523985, 0.0, 4.220360849415433]
      },
      {
        "species": [{ "element": "Tb", "occu": 1 }],
        "abc": [0.16787994, 0.16787994, 0.16787994],
        "properties": { "magmom": 0.0 },
        "label": "Tb",
        "xyz": [2.6774037047601498, 0.0, 0.8514563705845668]
      },
      {
        "species": [{ "element": "Mg", "occu": 1 }],
        "abc": [0.5, 0.5, 0.5],
        "properties": { "magmom": -0.0 },
        "label": "Mg",
        "xyz": [7.974162085, 0.0, 2.53590861]
      }
    ]
  },
  "task_ids": null,
  "uncorrected_energy_per_atom": null,
  "energy_per_atom": -4.113634358333333,
  "formation_energy_per_atom": 0.022996996944445,
  "energy_above_hull": 0.045865287222223,
  "is_stable": false,
  "equilibrium_reaction_energy_per_atom": null,
  "decomposes_to": null,
  "xas": null,
  "grain_boundaries": null,
  "band_gap": 0.0,
  "cbm": null,
  "vbm": null,
  "efermi": 3.21110579,
  "is_gap_direct": null,
  "is_metal": null,
  "es_source_calc_id": null,
  "bandstructure": null,
  "dos": null,
  "dos_energy_up": null,
  "dos_energy_down": null,
  "is_magnetic": null,
  "ordering": null,
  "total_magnetization": 1.25e-5,
  "total_magnetization_normalized_vol": null,
  "total_magnetization_normalized_formula_units": null,
  "num_magnetic_sites": null,
  "num_unique_magnetic_sites": null,
  "types_of_magnetic_species": null,
  "bulk_modulus": null,
  "shear_modulus": null,
  "universal_anisotropy": null,
  "homogeneous_poisson": null,
  "e_total": null,
  "e_ionic": null,
  "e_electronic": null,
  "n": null,
  "e_ij_max": null,
  "weighted_surface_energy_EV_PER_ANG2": null,
  "weighted_surface_energy": null,
  "weighted_work_function": null,
  "surface_anisotropy": null,
  "shape_factor": null,
  "has_reconstructed": null,
  "possible_species": null,
  "has_props": null,
  "theoretical": null,
  "database_IDs": null,
  "fields_not_requested": [
    "builder_meta",
    "nsites",
    "elements",
    "nelements",
    "composition",
    "composition_reduced",
    "chemsys",
    "symmetry",
    "property_name",
    "deprecated",
    "deprecation_reasons",
    "last_updated",
    "origins",
    "warnings",
    "task_ids",
    "uncorrected_energy_per_atom",
    "equilibrium_reaction_energy_per_atom",
    "decomposes_to",
    "xas",
    "grain_boundaries",
    "cbm",
    "vbm",
    "is_gap_direct",
    "is_metal",
    "es_source_calc_id",
    "bandstructure",
    "dos",
    "dos_energy_up",
    "dos_energy_down",
    "is_magnetic",
    "ordering",
    "total_magnetization_normalized_vol",
    "total_magnetization_normalized_formula_units",
    "num_magnetic_sites",
    "num_unique_magnetic_sites",
    "types_of_magnetic_species",
    "bulk_modulus",
    "shear_modulus",
    "universal_anisotropy",
    "homogeneous_poisson",
    "e_total",
    "e_ionic",
    "e_electronic",
    "n",
    "e_ij_max",
    "weighted_surface_energy_EV_PER_ANG2",
    "weighted_surface_energy",
    "weighted_work_function",
    "surface_anisotropy",
    "shape_factor",
    "has_reconstructed",
    "possible_species",
    "has_props",
    "theoretical",
    "database_IDs"
  ]
}
