{
  "builder_meta": null,
  "nsites": null,
  "elements": null,
  "nelements": null,
  "composition": null,
  "composition_reduced": null,
  "formula_pretty": "Tb5Pb3",
  "formula_anonymous": "A3B5",
  "chemsys": null,
  "volume": 472.7321308159462,
  "density": 9.949397099282695,
  "density_atomic": 29.54575817599664,
  "symmetry": null,
  "property_name": null,
  "material_id": "mp-1105825",
  "deprecated": null,
  "deprecation_reasons": null,
  "last_updated": null,
  "origins": null,
  "warnings": null,
  "structure": {
    "@module": "pymatgen.core.structure",
    "@class": "Structure",
    "charge": 0,
    "lattice": {
      "matrix": [
        [-7e-8, 3.0000000000000004e-8, -6.6677648099999995],
        [-4.5239861900000005, -7.83578402, -2e-8],
        [-4.52400334, 7.8357949399999995, -8e-8]
      ],
      "pbc": [true, true, true],
      "a": 6.6677648099999995,
      "b": 9.047981114889557,
      "c": 9.047999146886607,
      "alpha": 120.0000043937814,
      "beta": 89.99999896940106,
      "gamma": 89.99999979584972,
      "volume": 472.73213081594616
    },
    "properties": {},
    "sites": [
      {
        "species": [{ "element": "Tb", "occu": 1 }],
        "abc": [0.50000003, 0.333333799999999, 0.66667033],
        "properties": { "magmom": -0.0 },
        "label": "Tb",
        "xyz": [-4.524016342459122, 2.6119603500962625, -3.3338826650332467]
      },
      {
        "species": [{ "element": "Tb", "occu": 1 }],
        "abc": [0.50000007, 0.66666392, 0.33332966],
        "properties": { "magmom": -0.0 },
        "label": "Tb",
        "xyz": [-4.523962897612335, -2.6119316128666354, -3.3338829117431876]
      },
      {
        "species": [{ "element": "Tb", "occu": 1 }],
        "abc": [3.0000000000000004e-8, 0.66666619, 0.33332965000000003],
        "properties": { "magmom": -0.0 },
        "label": "Tb",
        "xyz": [-4.52397308682095, -2.6119494934543126, -2.4003264010000003e-7]
      },
      {
        "species": [{ "element": "Tb", "occu": 1 }],
        "abc": [6.000000000000001e-8, 0.33333611, 0.6666703900000001],
        "properties": { "magmom": -0.0 },
        "label": "Tb",
        "xyz": [-4.524027029307429, 2.6119427045828663, -4.6006624200000004e-7]
      },
      {
        "species": [{ "element": "Tb", "occu": 1 }],
        "abc": [0.74999985, 0.23806844, -2.92e-6],
        "properties": { "magmom": -0.0 },
        "label": "Tb",
        "xyz": [-1.0770051772450804, -1.8654757358395582, -5.000822612096414]
      },
      {
        "species": [{ "element": "Tb", "occu": 1 }],
        "abc": [0.74999928, 0.7619280900000001, 0.76193036],
        "properties": { "magmom": -0.0 },
        "label": "Tb",
        "xyz": [-6.89392770292043, 2.613000923457065e-5, -5.000818882902327]
      },
      {
        "species": [{ "element": "Tb", "occu": 1 }],
        "abc": [0.74999933, 5.67e-6, 0.23807407],
        "properties": { "magmom": -0.0 },
        "label": "Tb",
        "xyz": [-1.0770735913490443, 1.8654551866557922, -5.000819159143616]
      },
      {
        "species": [{ "element": "Tb", "occu": 1 }],
        "abc": [0.24999982, 0.76192793, 0.99999568],
        "properties": { "magmom": -0.0 },
        "label": "Tb",
        "xyz": [-7.970935246900846, 1.8654583985801745, -1.6669400975405473]
      },
      {
        "species": [{ "element": "Tb", "occu": 1 }],
        "abc": [0.24999928000000002, 0.23806829000000002, 0.23807324],
        "properties": { "magmom": -0.0 },
        "label": "Tb",
        "xyz": [-2.1540618066614865, 4.139439065786732e-5, -1.6669364255165617]
      },
      {
        "species": [{ "element": "Tb", "occu": 1 }],
        "abc": [0.24999932, 1.55e-6, 0.76192953],
        "properties": { "magmom": -0.0 },
        "label": "Tb",
        "xyz": [-3.446978768243177, 5.970311417845326, -1.6669367293743227]
      },
      {
        "species": [{ "element": "Pb", "occu": 1 }],
        "abc": [0.74999824, 0.60625248, -4.849999999999998e-6],
        "properties": { "magmom": 0.0 },
        "label": "Pb",
        "xyz": [-2.7426559582569294, -4.750501475974882, -5.000811884358596]
      },
      {
        "species": [{ "element": "Pb", "occu": 1 }],
        "abc": [0.75000112, 0.39374507000000003, 0.39374952],
        "properties": { "magmom": 0.0 },
        "label": "Pb",
        "xyz": [-3.562621455164059, 3.919148368014547e-5, -5.00083111477145]
      },
      {
        "species": [{ "element": "Pb", "occu": 1 }],
        "abc": [0.75000112, 5.53e-6, 0.606256399999999],
        "properties": { "magmom": 0.0 },
        "label": "Pb",
        "xyz": [-2.742731048640081, 4.750457522077011, -5.00083112389721]
      },
      {
        "species": [{ "element": "Pb", "occu": 1 }],
        "abc": [0.24999821, 0.39374257, -5.04e-6],
        "properties": { "magmom": 0.0 },
        "label": "Pb",
        "xyz": [-1.7812631656181497, -3.0853212229062827, -1.666929275075438]
      },
      {
        "species": [{ "element": "Pb", "occu": 1 }],
        "abc": [0.25000112, 0.60624995, 0.60625541],
        "properties": { "magmom": 0.0 },
        "label": "Pb",
        "xyz": [-5.485367918721339, 4.9411189859682736e-5, -1.666948731022019]
      },
      {
        "species": [{ "element": "Pb", "occu": 1 }],
        "abc": [0.25000112, 4.389999999999999e-6, 0.39374856],
        "properties": { "magmom": 0.0 },
        "label": "Pb",
        "xyz": [-1.7813396783596431, 3.085298582488472, -1.6669487018965596]
      }
    ]
  },
  "task_ids": null,
  "uncorrected_energy_per_atom": null,
  "energy_per_atom": -4.831841779374997,
  "formation_energy_per_atom": -0.540934363541662,
  "energy_above_hull": 0.0,
  "is_stable": true,
  "equilibrium_reaction_energy_per_atom": null,
  "decomposes_to": null,
  "xas": null,
  "grain_boundaries": null,
  "band_gap": 0.0,
  "cbm": null,
  "vbm": null,
  "efermi": 4.97429077,
  "is_gap_direct": null,
  "is_metal": null,
  "es_source_calc_id": null,
  "bandstructure": null,
  "dos": null,
  "dos_energy_up": null,
  "dos_energy_down": null,
  "is_magnetic": null,
  "ordering": null,
  "total_magnetization": 0.0001511,
  "total_magnetization_normalized_vol": null,
  "total_magnetization_normalized_formula_units": null,
  "num_magnetic_sites": null,
  "num_unique_magnetic_sites": null,
  "types_of_magnetic_species": null,
  "bulk_modulus": null,
  "shear_modulus": null,
  "universal_anisotropy": null,
  "homogeneous_poisson": null,
  "e_total": null,
  "e_ionic": null,
  "e_electronic": null,
  "n": null,
  "e_ij_max": null,
  "weighted_surface_energy_EV_PER_ANG2": null,
  "weighted_surface_energy": null,
  "weighted_work_function": null,
  "surface_anisotropy": null,
  "shape_factor": null,
  "has_reconstructed": null,
  "possible_species": null,
  "has_props": null,
  "theoretical": null,
  "database_IDs": null,
  "fields_not_requested": [
    "builder_meta",
    "nsites",
    "elements",
    "nelements",
    "composition",
    "composition_reduced",
    "chemsys",
    "symmetry",
    "property_name",
    "deprecated",
    "deprecation_reasons",
    "last_updated",
    "origins",
    "warnings",
    "task_ids",
    "uncorrected_energy_per_atom",
    "equilibrium_reaction_energy_per_atom",
    "decomposes_to",
    "xas",
    "grain_boundaries",
    "cbm",
    "vbm",
    "is_gap_direct",
    "is_metal",
    "es_source_calc_id",
    "bandstructure",
    "dos",
    "dos_energy_up",
    "dos_energy_down",
    "is_magnetic",
    "ordering",
    "total_magnetization_normalized_vol",
    "total_magnetization_normalized_formula_units",
    "num_magnetic_sites",
    "num_unique_magnetic_sites",
    "types_of_magnetic_species",
    "bulk_modulus",
    "shear_modulus",
    "universal_anisotropy",
    "homogeneous_poisson",
    "e_total",
    "e_ionic",
    "e_electronic",
    "n",
    "e_ij_max",
    "weighted_surface_energy_EV_PER_ANG2",
    "weighted_surface_energy",
    "weighted_work_function",
    "surface_anisotropy",
    "shape_factor",
    "has_reconstructed",
    "possible_species",
    "has_props",
    "theoretical",
    "database_IDs"
  ]
}
