{
  "builder_meta": null,
  "nsites": null,
  "elements": null,
  "nelements": null,
  "composition": null,
  "composition_reduced": null,
  "formula_pretty": "Tb5Pt4",
  "formula_anonymous": "A4B5",
  "chemsys": null,
  "volume": 831.7665529391613,
  "density": 12.577024962464735,
  "density_atomic": 23.10462647053226,
  "symmetry": null,
  "property_name": null,
  "material_id": "mp-1198980",
  "deprecated": null,
  "deprecation_reasons": null,
  "last_updated": null,
  "origins": null,
  "warnings": null,
  "structure": {
    "@module": "pymatgen.core.structure",
    "@class": "Structure",
    "charge": 0,
    "lattice": {
      "matrix": [
        [7.51003239, -5.9180000000000006e-5, 0.0],
        [-5.8540000000000005e-5, 7.58255206, 0.0],
        [0.0, 0.0, 14.60643538]
      ],
      "pbc": [true, true, true],
      "a": 7.510032390233173,
      "b": 7.582552060225975,
      "c": 14.60643538,
      "alpha": 90.0,
      "beta": 90.0,
      "gamma": 90.00089384175577,
      "volume": 831.7665529391613
    },
    "properties": {},
    "sites": [
      {
        "species": [{ "element": "Tb", "occu": 1 }],
        "abc": [0.6531815400000001, 0.16753524, 0.62200565],
        "properties": { "magmom": 0.0 },
        "label": "Tb",
        "xyz": [4.9054047144371316, 1.2703060239010573, 9.085285332719897]
      },
      {
        "species": [{ "element": "Tb", "occu": 1 }],
        "abc": [0.15318643, 0.33248265, 0.87800468],
        "properties": { "magmom": -0.0 },
        "label": "Tb",
        "xyz": [1.1504155874741369, 2.5210579370988317, 12.824518621757578]
      },
      {
        "species": [{ "element": "Tb", "occu": 1 }],
        "abc": [0.34681846, 0.83246476, 0.12200565000000001],
        "properties": { "magmom": 0.0 },
        "label": "Tb",
        "xyz": [2.6045691355628686, 6.312186856098943, 1.7820676427198971]
      },
      {
        "species": [{ "element": "Tb", "occu": 1 }],
        "abc": [0.84681357, 0.66751735, 0.37800468],
        "properties": { "magmom": -0.0 },
        "label": "Tb",
        "xyz": [6.359558262525864, 5.061434942901168, 5.521300931757579]
      },
      {
        "species": [{ "element": "Tb", "occu": 1 }],
        "abc": [0.34681846, 0.83246476, 0.37799435000000003],
        "properties": { "magmom": 0.0 },
        "label": "Tb",
        "xyz": [2.6045691355628686, 6.312186856098943, 5.521150047280104]
      },
      {
        "species": [{ "element": "Tb", "occu": 1 }],
        "abc": [0.84681357, 0.66751735, 0.12199532],
        "properties": { "magmom": -0.0 },
        "label": "Tb",
        "xyz": [6.359558262525864, 5.061434942901168, 1.7819167582424218]
      },
      {
        "species": [{ "element": "Tb", "occu": 1 }],
        "abc": [0.6531815400000001, 0.16753524, 0.87799435],
        "properties": { "magmom": 0.0 },
        "label": "Tb",
        "xyz": [4.9054047144371316, 1.2703060239010573, 12.824367737280104]
      },
      {
        "species": [{ "element": "Tb", "occu": 1 }],
        "abc": [0.15318643, 0.33248265, 0.62199532],
        "properties": { "magmom": -0.0 },
        "label": "Tb",
        "xyz": [1.1504155874741369, 2.5210579370988317, 9.085134448242423]
      },
      {
        "species": [{ "element": "Tb", "occu": 1 }],
        "abc": [0.49979066, 0.68019953, 0.59392004],
        "properties": { "magmom": 0.0 },
        "label": "Tb",
        "xyz": [3.7534042259389913, 5.157618769801273, 8.675054685147016]
      },
      {
        "species": [{ "element": "Tb", "occu": 1 }],
        "abc": [0.9997866, 0.81979334, 0.90607678],
        "properties": { "magmom": -0.0 },
        "label": "Tb",
        "xyz": [7.50838175838585, 6.2160665116202924, 13.234551936388478]
      },
      {
        "species": [{ "element": "Tb", "occu": 1 }],
        "abc": [0.5002093400000001, 0.31980047, 0.09392004],
        "properties": { "magmom": 0.0 },
        "label": "Tb",
        "xyz": [3.7565696240610094, 2.424874110198727, 1.3718369951470153]
      },
      {
        "species": [{ "element": "Tb", "occu": 1 }],
        "abc": [0.00021339999999900002, 0.18020666, 0.40607678],
        "properties": { "magmom": -0.0 },
        "label": "Tb",
        "xyz": [0.0015920916141420902, 1.3664263683797075, 5.931334246388477]
      },
      {
        "species": [{ "element": "Tb", "occu": 1 }],
        "abc": [0.5002093400000001, 0.31980047, 0.40607996],
        "properties": { "magmom": 0.0 },
        "label": "Tb",
        "xyz": [3.7565696240610094, 2.424874110198727, 5.931380694852986]
      },
      {
        "species": [{ "element": "Tb", "occu": 1 }],
        "abc": [0.00021339999999900002, 0.18020666, 0.09392322],
        "properties": { "magmom": -0.0 },
        "label": "Tb",
        "xyz": [0.0015920916141420902, 1.3664263683797075, 1.3718834436115237]
      },
      {
        "species": [{ "element": "Tb", "occu": 1 }],
        "abc": [0.49979066, 0.68019953, 0.90607996],
        "properties": { "magmom": 0.0 },
        "label": "Tb",
        "xyz": [3.7534042259389913, 5.157618769801273, 13.234598384852985]
      },
      {
        "species": [{ "element": "Tb", "occu": 1 }],
        "abc": [0.9997866, 0.81979334, 0.59392322],
        "properties": { "magmom": -0.0 },
        "label": "Tb",
        "xyz": [7.50838175838585, 6.2160665116202924, 8.675101133611523]
      },
      {
        "species": [{ "element": "Tb", "occu": 1 }],
        "abc": [0.81472889, 0.51276023, 0.75],
        "properties": { "magmom": -0.0 },
        "label": "Tb",
        "xyz": [6.118610335984884, 3.887982922616864, 10.954826535]
      },
      {
        "species": [{ "element": "Tb", "occu": 1 }],
        "abc": [0.31476844, 0.98718052, 0.75],
        "properties": { "magmom": -0.0 },
        "label": "Tb",
        "xyz": [2.3638633902021304, 7.485329057521593, 10.954826535]
      },
      {
        "species": [{ "element": "Tb", "occu": 1 }],
        "abc": [0.18527111000000002, 0.48723977, 0.25],
        "properties": { "magmom": -0.0 },
        "label": "Tb",
        "xyz": [1.3913635140151173, 3.694509957383137, 3.651608845]
      },
      {
        "species": [{ "element": "Tb", "occu": 1 }],
        "abc": [0.68523156, 0.01281948, 0.25],
        "properties": { "magmom": -0.0 },
        "label": "Tb",
        "xyz": [5.146110459797869, 0.097163822478408, 3.651608845]
      },
      {
        "species": [{ "element": "Pt", "occu": 1 }],
        "abc": [0.68568343, 0.9684021500000001, 0.45810241],
        "properties": { "magmom": 0.0 },
        "label": "Pt",
        "xyz": [5.149448078324437, 7.342919138645543, 6.691243249087266]
      },
      {
        "species": [{ "element": "Pt", "occu": 1 }],
        "abc": [0.18568645, 0.53161802, 0.04190842],
        "properties": { "magmom": -0.0 },
        "label": "Pt",
        "xyz": [1.3944801329652248, 4.03101032376001, 0.6121326286078996]
      },
      {
        "species": [{ "element": "Pt", "occu": 1 }],
        "abc": [0.31431657, 0.031597850000000004, 0.9581024100000001],
        "properties": { "magmom": 0.0 },
        "label": "Pt",
        "xyz": [2.3605257716755634, 0.23957374135445844, 13.994460939087267]
      },
      {
        "species": [{ "element": "Pt", "occu": 1 }],
        "abc": [0.81431355, 0.46838198000000003, 0.5419084200000001],
        "properties": { "magmom": -0.0 },
        "label": "Pt",
        "xyz": [6.115493717034775, 3.55148255623999, 7.915350318607901]
      },
      {
        "species": [{ "element": "Pt", "occu": 1 }],
        "abc": [0.31431657, 0.031597850000000004, 0.54189759],
        "properties": { "magmom": 0.0 },
        "label": "Pt",
        "xyz": [2.3605257716755634, 0.23957374135445844, 7.915192130912735]
      },
      {
        "species": [{ "element": "Pt", "occu": 1 }],
        "abc": [0.81431355, 0.46838198000000003, 0.95809158],
        "properties": { "magmom": -0.0 },
        "label": "Pt",
        "xyz": [6.115493717034775, 3.55148255623999, 13.994302751392102]
      },
      {
        "species": [{ "element": "Pt", "occu": 1 }],
        "abc": [0.68568343, 0.9684021500000001, 0.04189759],
        "properties": { "magmom": 0.0 },
        "label": "Pt",
        "xyz": [5.149448078324437, 7.342919138645543, 0.6119744409127342]
      },
      {
        "species": [{ "element": "Pt", "occu": 1 }],
        "abc": [0.18568645, 0.53161802, 0.45809158],
        "properties": { "magmom": -0.0 },
        "label": "Pt",
        "xyz": [1.3944801329652248, 4.03101032376001, 6.6910850613921005]
      },
      {
        "species": [{ "element": "Pt", "occu": 1 }],
        "abc": [0.44867084, 0.38744978, 0.75],
        "properties": { "magmom": 0.0 },
        "label": "Pt",
        "xyz": [3.3695098595383866, 2.9378315751452355, 10.954826535]
      },
      {
        "species": [{ "element": "Pt", "occu": 1 }],
        "abc": [0.9487311900000001, 0.11251272, 0.75],
        "properties": { "magmom": 0.0 },
        "label": "Pt",
        "xyz": [7.124995379808616, 0.8530774109003789, 10.954826535]
      },
      {
        "species": [{ "element": "Pt", "occu": 1 }],
        "abc": [0.55132916, 0.61255022, 0.25],
        "properties": { "magmom": 0.0 },
        "label": "Pt",
        "xyz": [4.140463990461614, 4.644661304854765, 3.651608845]
      },
      {
        "species": [{ "element": "Pt", "occu": 1 }],
        "abc": [0.05126881, 0.88748728, 0.25],
        "properties": { "magmom": 0.0 },
        "label": "Pt",
        "xyz": [0.3849784701913847, 6.729415469099622, 3.651608845]
      },
      {
        "species": [{ "element": "Pt", "occu": 1 }],
        "abc": [0.681889099999999, 0.85957461, 0.75],
        "properties": { "magmom": -0.0 },
        "label": "Pt",
        "xyz": [5.120958907890273, 6.517728875582259, 10.954826535]
      },
      {
        "species": [{ "element": "Pt", "occu": 1 }],
        "abc": [0.18188996000000002, 0.64036761, 0.75],
        "properties": { "magmom": 0.0 },
        "label": "Pt",
        "xyz": [1.3659620038959153, 4.855609976114944, 10.954826535]
      },
      {
        "species": [{ "element": "Pt", "occu": 1 }],
        "abc": [0.3181109, 0.14042539, 0.25],
        "properties": { "magmom": -0.0 },
        "label": "Pt",
        "xyz": [2.3890149421097204, 1.0647640044177415, 3.651608845]
      },
      {
        "species": [{ "element": "Pt", "occu": 1 }],
        "abc": [0.81811004, 0.35963239, 0.25],
        "properties": { "magmom": 0.0 },
        "label": "Pt",
        "xyz": [6.144011846104085, 2.7268829038850564, 3.651608845]
      }
    ]
  },
  "task_ids": null,
  "uncorrected_energy_per_atom": null,
  "energy_per_atom": -41.500426312777776,
  "formation_energy_per_atom": -1.268977607222217,
  "energy_above_hull": 0.01096459888889,
  "is_stable": false,
  "equilibrium_reaction_energy_per_atom": null,
  "decomposes_to": null,
  "xas": null,
  "grain_boundaries": null,
  "band_gap": 0.0,
  "cbm": null,
  "vbm": null,
  "efermi": 4.89020273,
  "is_gap_direct": null,
  "is_metal": null,
  "es_source_calc_id": null,
  "bandstructure": null,
  "dos": null,
  "dos_energy_up": null,
  "dos_energy_down": null,
  "is_magnetic": null,
  "ordering": null,
  "total_magnetization": 6e-7,
  "total_magnetization_normalized_vol": null,
  "total_magnetization_normalized_formula_units": null,
  "num_magnetic_sites": null,
  "num_unique_magnetic_sites": null,
  "types_of_magnetic_species": null,
  "bulk_modulus": null,
  "shear_modulus": null,
  "universal_anisotropy": null,
  "homogeneous_poisson": null,
  "e_total": null,
  "e_ionic": null,
  "e_electronic": null,
  "n": null,
  "e_ij_max": null,
  "weighted_surface_energy_EV_PER_ANG2": null,
  "weighted_surface_energy": null,
  "weighted_work_function": null,
  "surface_anisotropy": null,
  "shape_factor": null,
  "has_reconstructed": null,
  "possible_species": null,
  "has_props": null,
  "theoretical": null,
  "database_IDs": null,
  "fields_not_requested": [
    "builder_meta",
    "nsites",
    "elements",
    "nelements",
    "composition",
    "composition_reduced",
    "chemsys",
    "symmetry",
    "property_name",
    "deprecated",
    "deprecation_reasons",
    "last_updated",
    "origins",
    "warnings",
    "task_ids",
    "uncorrected_energy_per_atom",
    "equilibrium_reaction_energy_per_atom",
    "decomposes_to",
    "xas",
    "grain_boundaries",
    "cbm",
    "vbm",
    "is_gap_direct",
    "is_metal",
    "es_source_calc_id",
    "bandstructure",
    "dos",
    "dos_energy_up",
    "dos_energy_down",
    "is_magnetic",
    "ordering",
    "total_magnetization_normalized_vol",
    "total_magnetization_normalized_formula_units",
    "num_magnetic_sites",
    "num_unique_magnetic_sites",
    "types_of_magnetic_species",
    "bulk_modulus",
    "shear_modulus",
    "universal_anisotropy",
    "homogeneous_poisson",
    "e_total",
    "e_ionic",
    "e_electronic",
    "n",
    "e_ij_max",
    "weighted_surface_energy_EV_PER_ANG2",
    "weighted_surface_energy",
    "weighted_work_function",
    "surface_anisotropy",
    "shape_factor",
    "has_reconstructed",
    "possible_species",
    "has_props",
    "theoretical",
    "database_IDs"
  ]
}
