{"builder_meta": null, "nsites": null, "elements": null, "nelements": null, "composition": null, "composition_reduced": null, "formula_pretty": "Tb5Pb4", "formula_anonymous": "A4B5", "chemsys": null, "volume": 1087.033972959389, "density": 9.919702998055918, "density_atomic": 30.19538813776081, "symmetry": null, "property_name": null, "material_id": "mp-1198033", "deprecated": null, "deprecation_reasons": null, "last_updated": null, "origins": null, "warnings": null, "structure": {"@module": "pymatgen.core.structure", "@class": "Structure", "charge": 0, "lattice": {"matrix": [[-8.250454, 0.0, 0.0], [0.0, 0.0, -8.330504], [0.0, -15.815903, 0.0]], "pbc": [true, true, true], "a": 8.250454, "b": 8.330504, "c": 15.815903, "alpha": 90.0, "beta": 90.0, "gamma": 90.0, "volume": 1087.033972959389}, "properties": {}, "sites": [{"species": [{"element": "Tb", "occu": 1}], "abc": [0.376876, 0.840768, 0.880061], "properties": {"magmom": 0.009000000000000001}, "label": "Tb", "xyz": [-3.1093981017039996, -13.918959410083, -7.0040211870719995]}, {"species": [{"element": "Tb", "occu": 1}], "abc": [0.876876, 0.659231999999999, 0.619939], "properties": {"magmom": 0.009000000000000001}, "label": "Tb", "xyz": [-7.234625101703999, -9.804895089917, -5.491734812927992]}, {"species": [{"element": "Tb", "occu": 1}], "abc": [0.623124, 0.159231999999999, 0.380061], "properties": {"magmom": 0.009000000000000001}, "label": "Tb", "xyz": [-5.141055898296, -6.011007910083, -1.3264828129279918]}, {"species": [{"element": "Tb", "occu": 1}], "abc": [0.123124, 0.340767999999999, 0.119938999999999], "properties": {"magmom": 0.009000000000000001}, "label": "Tb", "xyz": [-1.015828898296, -1.8969435899169844, -2.8387691870719918]}, {"species": [{"element": "Tb", "occu": 1}], "abc": [0.623124, 0.159231999999999, 0.119938999999999], "properties": {"magmom": 0.009000000000000001}, "label": "Tb", "xyz": [-5.141055898296, -1.8969435899169844, -1.3264828129279918]}, {"species": [{"element": "Tb", "occu": 1}], "abc": [0.123124, 0.340767999999999, 0.380061], "properties": {"magmom": 0.009000000000000001}, "label": "Tb", "xyz": [-1.015828898296, -6.011007910083, -2.8387691870719918]}, {"species": [{"element": "Tb", "occu": 1}], "abc": [0.376876, 0.840768, 0.619939], "properties": {"magmom": 0.009000000000000001}, "label": "Tb", "xyz": [-3.1093981017039996, -9.804895089917, -7.0040211870719995]}, {"species": [{"element": "Tb", "occu": 1}], "abc": [0.876876, 0.659231999999999, 0.880061], "properties": {"magmom": 0.009000000000000001}, "label": "Tb", "xyz": [-7.234625101703999, -13.918959410083, -5.491734812927992]}, {"species": [{"element": "Tb", "occu": 1}], "abc": [0.533814, 0.322540999999999, 0.899662], "properties": {"magmom": 0.006}, "label": "Tb", "xyz": [-4.4042078515559995, -14.228966924786, -2.6869290906639915]}, {"species": [{"element": "Tb", "occu": 1}], "abc": [0.033814, 0.177459, 0.600337999999999], "properties": {"magmom": 0.006}, "label": "Tb", "xyz": [-0.27898085155599994, -9.494887575213985, -1.478322909336]}, {"species": [{"element": "Tb", "occu": 1}], "abc": [0.466186, 0.677458999999999, 0.399661999999999], "properties": {"magmom": 0.006}, "label": "Tb", "xyz": [-3.8462461484439996, -6.321015424785985, -5.6435749093359915]}, {"species": [{"element": "Tb", "occu": 1}], "abc": [0.966186, 0.822541, 0.100338], "properties": {"magmom": 0.006}, "label": "Tb", "xyz": [-7.971473148444, -1.586936075214, -6.852181090664]}, {"species": [{"element": "Tb", "occu": 1}], "abc": [0.466186, 0.677458999999999, 0.100338], "properties": {"magmom": 0.006}, "label": "Tb", "xyz": [-3.8462461484439996, -1.586936075214, -5.6435749093359915]}, {"species": [{"element": "Tb", "occu": 1}], "abc": [0.966186, 0.822541, 0.399661999999999], "properties": {"magmom": 0.006}, "label": "Tb", "xyz": [-7.971473148444, -6.321015424785985, -6.852181090664]}, {"species": [{"element": "Tb", "occu": 1}], "abc": [0.533814, 0.322540999999999, 0.600337999999999], "properties": {"magmom": 0.006}, "label": "Tb", "xyz": [-4.4042078515559995, -9.494887575213985, -2.6869290906639915]}, {"species": [{"element": "Tb", "occu": 1}], "abc": [0.033814, 0.177459, 0.899662], "properties": {"magmom": 0.006}, "label": "Tb", "xyz": [-0.27898085155599994, -14.228966924786, -1.478322909336]}, {"species": [{"element": "Tb", "occu": 1}], "abc": [0.208261, 0.503687, 0.75], "properties": {"magmom": 0.021}, "label": "Tb", "xyz": [-1.7182478004939998, -11.86192725, -4.195966568248]}, {"species": [{"element": "Tb", "occu": 1}], "abc": [0.708260999999999, 0.996313, 0.75], "properties": {"magmom": 0.021}, "label": "Tb", "xyz": [-5.843474800493992, -11.86192725, -8.299789431752]}, {"species": [{"element": "Tb", "occu": 1}], "abc": [0.791739, 0.496313, 0.25], "properties": {"magmom": 0.021}, "label": "Tb", "xyz": [-6.532206199506, -3.95397575, -4.134537431751999]}, {"species": [{"element": "Tb", "occu": 1}], "abc": [0.291738999999999, 0.003686999999999, 0.25], "properties": {"magmom": 0.021}, "label": "Tb", "xyz": [-2.406979199505992, -3.95397575, -0.03071456824799167]}, {"species": [{"element": "Pb", "occu": 1}], "abc": [0.281238999999999, 0.032045, 0.042549], "properties": {"magmom": 0.001}, "label": "Pb", "xyz": [-2.3203494325059917, -0.672950856747, -0.26695100067999994]}, {"species": [{"element": "Pb", "occu": 1}], "abc": [0.781239, 0.467954999999999, 0.457451], "properties": {"magmom": 0.001}, "label": "Pb", "xyz": [-6.445576432506, -7.2350006432530005, -3.8983009993199915]}, {"species": [{"element": "Pb", "occu": 1}], "abc": [0.718761, 0.967955, 0.542549], "properties": {"magmom": 0.001}, "label": "Pb", "xyz": [-5.930104567493999, -8.580902356747, -8.063552999319999]}, {"species": [{"element": "Pb", "occu": 1}], "abc": [0.218760999999999, 0.532045, 0.957450999999999], "properties": {"magmom": 0.001}, "label": "Pb", "xyz": [-1.8048775674939916, -15.142952143252986, -4.4322030006799995]}, {"species": [{"element": "Pb", "occu": 1}], "abc": [0.718761, 0.967955, 0.957450999999999], "properties": {"magmom": 0.001}, "label": "Pb", "xyz": [-5.930104567493999, -15.142952143252986, -8.063552999319999]}, {"species": [{"element": "Pb", "occu": 1}], "abc": [0.218760999999999, 0.532045, 0.542549], "properties": {"magmom": 0.001}, "label": "Pb", "xyz": [-1.8048775674939916, -8.580902356747, -4.4322030006799995]}, {"species": [{"element": "Pb", "occu": 1}], "abc": [0.281238999999999, 0.032045, 0.457451], "properties": {"magmom": 0.001}, "label": "Pb", "xyz": [-2.3203494325059917, -7.2350006432530005, -0.26695100067999994]}, {"species": [{"element": "Pb", "occu": 1}], "abc": [0.781239, 0.467954999999999, 0.042549], "properties": {"magmom": 0.001}, "label": "Pb", "xyz": [-6.445576432506, -0.672950856747, -3.8983009993199915]}, {"species": [{"element": "Pb", "occu": 1}], "abc": [0.571921999999999, 0.627193, 0.75], "properties": {"magmom": 0.005}, "label": "Pb", "xyz": [-4.718616152587992, -11.86192725, -5.224833795272]}, {"species": [{"element": "Pb", "occu": 1}], "abc": [0.071922, 0.872807, 0.75], "properties": {"magmom": 0.005}, "label": "Pb", "xyz": [-0.593389152588, -11.86192725, -7.2709222047279995]}, {"species": [{"element": "Pb", "occu": 1}], "abc": [0.428077999999999, 0.372807, 0.25], "properties": {"magmom": 0.005}, "label": "Pb", "xyz": [-3.5318378474119916, -3.95397575, -3.105670204728]}, {"species": [{"element": "Pb", "occu": 1}], "abc": [0.928078, 0.127193, 0.25], "properties": {"magmom": 0.005}, "label": "Pb", "xyz": [-7.657064847411999, -3.95397575, -1.059581795272]}, {"species": [{"element": "Pb", "occu": 1}], "abc": [0.343758, 0.150326, 0.75], "properties": {"magmom": 0.003}, "label": "Pb", "xyz": [-2.836159566132, -11.86192725, -1.2522913443039998]}, {"species": [{"element": "Pb", "occu": 1}], "abc": [0.843758, 0.349674, 0.75], "properties": {"magmom": 0.003}, "label": "Pb", "xyz": [-6.961386566132, -11.86192725, -2.9129606556959997]}, {"species": [{"element": "Pb", "occu": 1}], "abc": [0.656242, 0.849673999999999, 0.25], "properties": {"magmom": 0.003}, "label": "Pb", "xyz": [-5.414294433867999, -3.95397575, -7.0782126556959915]}, {"species": [{"element": "Pb", "occu": 1}], "abc": [0.156242, 0.650326, 0.25], "properties": {"magmom": 0.003}, "label": "Pb", "xyz": [-1.289067433868, -3.95397575, -5.417543344304]}]}, "task_ids": null, "uncorrected_energy_per_atom": null, "energy_per_atom": -4.766620468055556, "formation_energy_per_atom": -0.5399642017592581, "energy_above_hull": 0.0, "is_stable": true, "equilibrium_reaction_energy_per_atom": null, "decomposes_to": null, "xas": null, "grain_boundaries": null, "band_gap": 0.0, "cbm": null, "vbm": null, "efermi": 5.09481165, "is_gap_direct": null, "is_metal": null, "es_source_calc_id": null, "bandstructure": null, "dos": null, "dos_energy_up": null, "dos_energy_down": null, "is_magnetic": null, "ordering": null, "total_magnetization": 0.3940182, "total_magnetization_normalized_vol": null, "total_magnetization_normalized_formula_units": null, "num_magnetic_sites": null, "num_unique_magnetic_sites": null, "types_of_magnetic_species": null, "bulk_modulus": null, "shear_modulus": null, "universal_anisotropy": null, "homogeneous_poisson": null, "e_total": null, "e_ionic": null, "e_electronic": null, "n": null, "e_ij_max": null, "weighted_surface_energy_EV_PER_ANG2": null, "weighted_surface_energy": null, "weighted_work_function": null, "surface_anisotropy": null, "shape_factor": null, "has_reconstructed": null, "possible_species": null, "has_props": null, "theoretical": null, "database_IDs": null, "fields_not_requested": ["builder_meta", "nsites", "elements", "nelements", "composition", "composition_reduced", "chemsys", "symmetry", "property_name", "deprecated", "deprecation_reasons", "last_updated", "origins", "warnings", "task_ids", "uncorrected_energy_per_atom", "equilibrium_reaction_energy_per_atom", "decomposes_to", "xas", "grain_boundaries", "cbm", "vbm", "is_gap_direct", "is_metal", "es_source_calc_id", "bandstructure", "dos", "dos_energy_up", "dos_energy_down", "is_magnetic", "ordering", "total_magnetization_normalized_vol", "total_magnetization_normalized_formula_units", "num_magnetic_sites", "num_unique_magnetic_sites", "types_of_magnetic_species", "bulk_modulus", "shear_modulus", "universal_anisotropy", "homogeneous_poisson", "e_total", "e_ionic", "e_electronic", "n", "e_ij_max", "weighted_surface_energy_EV_PER_ANG2", "weighted_surface_energy", "weighted_work_function", "surface_anisotropy", "shape_factor", "has_reconstructed", "possible_species", "has_props", "theoretical", "database_IDs"]}