{
  "builder_meta": null,
  "nsites": null,
  "elements": null,
  "nelements": null,
  "composition": null,
  "composition_reduced": null,
  "formula_pretty": "Tb5Pt3",
  "formula_anonymous": "A3B5",
  "chemsys": null,
  "volume": 381.9417659210454,
  "density": 11.998387063120186,
  "density_atomic": 23.871360370065336,
  "symmetry": null,
  "property_name": null,
  "material_id": "mp-1105543",
  "deprecated": null,
  "deprecation_reasons": null,
  "last_updated": null,
  "origins": null,
  "warnings": null,
  "structure": {
    "@module": "pymatgen.core.structure",
    "@class": "Structure",
    "charge": 0,
    "lattice": {
      "matrix": [
        [4.22213785, -7.31295784, 0.0],
        [4.22213785, 7.31295784, 0.0],
        [0.0, -0.0, 6.18502811]
      ],
      "pbc": [true, true, true],
      "a": 8.444276191244581,
      "b": 8.444276191244581,
      "c": 6.18502811,
      "alpha": 90.0,
      "beta": 90.0,
      "gamma": 120.00000384881768,
      "volume": 381.9417659210454
    },
    "properties": {},
    "sites": [
      {
        "species": [{ "element": "Tb", "occu": 1 }],
        "abc": [0.666667, 0.333333, -0.0],
        "properties": { "magmom": -0.0 },
        "label": "Tb",
        "xyz": [4.22213785, -2.43765748863856, 0.0]
      },
      {
        "species": [{ "element": "Tb", "occu": 1 }],
        "abc": [0.333333, 0.666667, -0.0],
        "properties": { "magmom": -0.0 },
        "label": "Tb",
        "xyz": [4.22213785, 2.43765748863856, 0.0]
      },
      {
        "species": [{ "element": "Tb", "occu": 1 }],
        "abc": [0.333333, 0.666667, 0.5],
        "properties": { "magmom": -0.0 },
        "label": "Tb",
        "xyz": [4.22213785, 2.43765748863856, 3.092514055]
      },
      {
        "species": [{ "element": "Tb", "occu": 1 }],
        "abc": [0.666667, 0.333333, 0.5],
        "properties": { "magmom": -0.0 },
        "label": "Tb",
        "xyz": [4.22213785, -2.43765748863856, 3.092514055]
      },
      {
        "species": [{ "element": "Tb", "occu": 1 }],
        "abc": [0.75188127, 0.75188127, 0.75],
        "properties": { "magmom": -0.0 },
        "label": "Tb",
        "xyz": [6.3490927375461395, 0.0, 4.6387710825]
      },
      {
        "species": [{ "element": "Tb", "occu": 1 }],
        "abc": [0.24811873, 0.0, 0.75],
        "properties": { "magmom": -0.0 },
        "label": "Tb",
        "xyz": [1.0475914812269307, -1.8144818118043433, 4.6387710825]
      },
      {
        "species": [{ "element": "Tb", "occu": 1 }],
        "abc": [0.0, 0.24811873, 0.75],
        "properties": { "magmom": -0.0 },
        "label": "Tb",
        "xyz": [1.0475914812269307, 1.8144818118043433, 4.6387710825]
      },
      {
        "species": [{ "element": "Tb", "occu": 1 }],
        "abc": [0.24811873, 0.24811873, 0.25],
        "properties": { "magmom": -0.0 },
        "label": "Tb",
        "xyz": [2.0951829624538614, 0.0, 1.5462570275]
      },
      {
        "species": [{ "element": "Tb", "occu": 1 }],
        "abc": [0.75188127, -0.0, 0.25],
        "properties": { "magmom": -0.0 },
        "label": "Tb",
        "xyz": [3.1745463687730697, -5.4984760281956575, 1.5462570275]
      },
      {
        "species": [{ "element": "Tb", "occu": 1 }],
        "abc": [-0.0, 0.75188127, 0.25],
        "properties": { "magmom": -0.0 },
        "label": "Tb",
        "xyz": [3.1745463687730697, 5.4984760281956575, 1.5462570275]
      },
      {
        "species": [{ "element": "Pt", "occu": 1 }],
        "abc": [0.39310252, 0.39310252, 0.75],
        "properties": { "magmom": -0.0 },
        "label": "Pt",
        "xyz": [3.3194660572447643, 0.0, 4.6387710825]
      },
      {
        "species": [{ "element": "Pt", "occu": 1 }],
        "abc": [0.60689748, -0.0, 0.75],
        "properties": { "magmom": -0.0 },
        "label": "Pt",
        "xyz": [2.5624048213776183, -4.438215684442243, 4.6387710825]
      },
      {
        "species": [{ "element": "Pt", "occu": 1 }],
        "abc": [-0.0, 0.60689748, 0.75],
        "properties": { "magmom": -0.0 },
        "label": "Pt",
        "xyz": [2.5624048213776183, 4.438215684442243, 4.6387710825]
      },
      {
        "species": [{ "element": "Pt", "occu": 1 }],
        "abc": [0.60689748, 0.60689748, 0.25],
        "properties": { "magmom": -0.0 },
        "label": "Pt",
        "xyz": [5.1248096427552365, 0.0, 1.5462570275]
      },
      {
        "species": [{ "element": "Pt", "occu": 1 }],
        "abc": [0.39310252, 0.0, 0.25],
        "properties": { "magmom": -0.0 },
        "label": "Pt",
        "xyz": [1.6597330286223821, -2.874742155557757, 1.5462570275]
      },
      {
        "species": [{ "element": "Pt", "occu": 1 }],
        "abc": [0.0, 0.39310252, 0.25],
        "properties": { "magmom": -0.0 },
        "label": "Pt",
        "xyz": [1.6597330286223821, 2.874742155557757, 1.5462570275]
      }
    ]
  },
  "task_ids": null,
  "uncorrected_energy_per_atom": null,
  "energy_per_atom": -39.91588684125,
  "formation_energy_per_atom": -1.091471659999996,
  "energy_above_hull": 0.038365049062498005,
  "is_stable": false,
  "equilibrium_reaction_energy_per_atom": null,
  "decomposes_to": null,
  "xas": null,
  "grain_boundaries": null,
  "band_gap": 0.0,
  "cbm": null,
  "vbm": null,
  "efermi": 4.78495542,
  "is_gap_direct": null,
  "is_metal": null,
  "es_source_calc_id": null,
  "bandstructure": null,
  "dos": null,
  "dos_energy_up": null,
  "dos_energy_down": null,
  "is_magnetic": null,
  "ordering": null,
  "total_magnetization": 0.000144399999999,
  "total_magnetization_normalized_vol": null,
  "total_magnetization_normalized_formula_units": null,
  "num_magnetic_sites": null,
  "num_unique_magnetic_sites": null,
  "types_of_magnetic_species": null,
  "bulk_modulus": null,
  "shear_modulus": null,
  "universal_anisotropy": null,
  "homogeneous_poisson": null,
  "e_total": null,
  "e_ionic": null,
  "e_electronic": null,
  "n": null,
  "e_ij_max": null,
  "weighted_surface_energy_EV_PER_ANG2": null,
  "weighted_surface_energy": null,
  "weighted_work_function": null,
  "surface_anisotropy": null,
  "shape_factor": null,
  "has_reconstructed": null,
  "possible_species": null,
  "has_props": null,
  "theoretical": null,
  "database_IDs": null,
  "fields_not_requested": [
    "builder_meta",
    "nsites",
    "elements",
    "nelements",
    "composition",
    "composition_reduced",
    "chemsys",
    "symmetry",
    "property_name",
    "deprecated",
    "deprecation_reasons",
    "last_updated",
    "origins",
    "warnings",
    "task_ids",
    "uncorrected_energy_per_atom",
    "equilibrium_reaction_energy_per_atom",
    "decomposes_to",
    "xas",
    "grain_boundaries",
    "cbm",
    "vbm",
    "is_gap_direct",
    "is_metal",
    "es_source_calc_id",
    "bandstructure",
    "dos",
    "dos_energy_up",
    "dos_energy_down",
    "is_magnetic",
    "ordering",
    "total_magnetization_normalized_vol",
    "total_magnetization_normalized_formula_units",
    "num_magnetic_sites",
    "num_unique_magnetic_sites",
    "types_of_magnetic_species",
    "bulk_modulus",
    "shear_modulus",
    "universal_anisotropy",
    "homogeneous_poisson",
    "e_total",
    "e_ionic",
    "e_electronic",
    "n",
    "e_ij_max",
    "weighted_surface_energy_EV_PER_ANG2",
    "weighted_surface_energy",
    "weighted_work_function",
    "surface_anisotropy",
    "shape_factor",
    "has_reconstructed",
    "possible_species",
    "has_props",
    "theoretical",
    "database_IDs"
  ]
}
