{"builder_meta": null, "nsites": null, "elements": null, "nelements": null, "composition": null, "composition_reduced": null, "formula_pretty": "Tb5Rh3", "formula_anonymous": "A3B5", "chemsys": null, "volume": 370.7221996208088, "density": 9.88419130210389, "density_atomic": 23.17013747630055, "symmetry": null, "property_name": null, "material_id": "mp-1105551", "deprecated": null, "deprecation_reasons": null, "last_updated": null, "origins": null, "warnings": null, "structure": {"@module": "pymatgen.core.structure", "@class": "Structure", "charge": 0, "lattice": {"matrix": [[4.10166474, -7.10437433, 0.0], [4.10163289, 7.10435583, 0.0], [0.0, 0.0, 6.36113853]], "pbc": [true, true, true], "a": 8.203401017878024, "b": 8.203369071520845, "c": 6.36113853, "alpha": 90.0, "beta": 90.0, "gamma": 120.00070498963123, "volume": 370.7221996208088}, "properties": {}, "sites": [{"species": [{"element": "Tb", "occu": 1}], "abc": [0.66667295, 0.33336533, 2.509999999999999e-06], "properties": {"magmom": -0.0}, "label": "Tb", "xyz": [4.101811134040487, -2.367948266779999, 1.5966457710299992e-05]}, {"species": [{"element": "Tb", "occu": 1}], "abc": [0.33332831, 0.66664047, 2.54e-06], "properties": {"magmom": -0.0}, "label": "Tb", "xyz": [4.101515453527848, 2.367962020532158, 1.61572918662e-05]}, {"species": [{"element": "Tb", "occu": 1}], "abc": [0.33332831, 0.66664047, 0.49999746], "properties": {"magmom": -0.0}, "label": "Tb", "xyz": [4.101515453527848, 2.367962020532158, 3.1805531077081337]}, {"species": [{"element": "Tb", "occu": 1}], "abc": [0.66667295, 0.33336533, 0.49999749], "properties": {"magmom": -0.0}, "label": "Tb", "xyz": [4.101811134040487, -2.367948266779999, 3.1805532985422897]}, {"species": [{"element": "Tb", "occu": 1}], "abc": [0.75096585, 0.75092515, 0.75], "properties": {"magmom": -0.0}, "label": "Tb", "xyz": [6.1602294410573135, -0.00030304015050575117, 4.7708538975]}, {"species": [{"element": "Tb", "occu": 1}], "abc": [0.24900144000000002, 1.303e-05, 0.75], "properties": {"magmom": -0.0}, "label": "Tb", "xyz": [1.0213738709337825, -1.7689068687125704, 4.7708538975]}, {"species": [{"element": "Tb", "occu": 1}], "abc": [5.3840000000000006e-05, 0.24906135000000001, 0.75], "properties": {"magmom": -0.0}, "label": "Tb", "xyz": [1.0217790584174034, 1.7690379543862436, 4.7708538975]}, {"species": [{"element": "Tb", "occu": 1}], "abc": [0.24904012, 0.24907155, 0.25], "properties": {"magmom": -0.0}, "label": "Tb", "xyz": [2.0430791404926483, 0.00021868266151714444, 1.5902846325]}, {"species": [{"element": "Tb", "occu": 1}], "abc": [0.7509912, -2.5830000000000005e-05, 0.25], "properties": {"magmom": -0.0}, "label": "Tb", "xyz": [3.0802081799127397, -5.335506108846984, 1.5902846325]}, {"species": [{"element": "Tb", "occu": 1}], "abc": [-5.736e-05, 0.7509374, 0.25], "properties": {"magmom": -0.0}, "label": "Tb", "xyz": [3.0798342666816, 5.3353340025666105, 1.5902846325]}, {"species": [{"element": "Rh", "occu": 1}], "abc": [0.39799948, 0.39798975000000003, 0.75], "properties": {"magmom": -0.0}, "label": "Rh", "xyz": [3.264868282137213, -7.648837260587626e-05, 4.7708538975]}, {"species": [{"element": "Rh", "occu": 1}], "abc": [0.60200233, 5.34e-06, 0.75], "properties": {"magmom": -0.0}, "label": "Rh", "xyz": [2.469233633078477, -4.276811962592056, 4.7708538975]}, {"species": [{"element": "Rh", "occu": 1}], "abc": [1.5150000000000002e-05, 0.60201381, 0.75], "properties": {"magmom": -0.0}, "label": "Rh", "xyz": [2.469301783551022, 4.276812689542913, 4.7708538975]}, {"species": [{"element": "Rh", "occu": 1}], "abc": [0.60200485, 0.60201371, 0.25], "properties": {"magmom": -0.0}, "label": "Rh", "xyz": [4.938461299720911, 5.1807502929435145e-05, 1.5902846325]}, {"species": [{"element": "Rh", "occu": 1}], "abc": [0.3979945, 0.99999271, 0.25], "properties": {"magmom": -0.0}, "label": "Rh", "xyz": [5.734042996460162, 4.276802129964814, 1.5902846325]}, {"species": [{"element": "Rh", "occu": 1}], "abc": [0.99998408, 0.39799242, 0.25], "properties": {"magmom": -0.0}, "label": "Rh", "xyz": [5.734018241340033, -4.276781459037858, 1.5902846325]}]}, "task_ids": null, "uncorrected_energy_per_atom": null, "energy_per_atom": -6.353485922499999, "formation_energy_per_atom": -0.693205706666664, "energy_above_hull": 0.014364826267859001, "is_stable": false, "equilibrium_reaction_energy_per_atom": null, "decomposes_to": null, "xas": null, "grain_boundaries": null, "band_gap": 0.0, "cbm": null, "vbm": null, "efermi": 4.34626111, "is_gap_direct": null, "is_metal": null, "es_source_calc_id": null, "bandstructure": null, "dos": null, "dos_energy_up": null, "dos_energy_down": null, "is_magnetic": null, "ordering": null, "total_magnetization": 0.0008118, "total_magnetization_normalized_vol": null, "total_magnetization_normalized_formula_units": null, "num_magnetic_sites": null, "num_unique_magnetic_sites": null, "types_of_magnetic_species": null, "bulk_modulus": null, "shear_modulus": null, "universal_anisotropy": null, "homogeneous_poisson": null, "e_total": null, "e_ionic": null, "e_electronic": null, "n": null, "e_ij_max": null, "weighted_surface_energy_EV_PER_ANG2": null, "weighted_surface_energy": null, "weighted_work_function": null, "surface_anisotropy": null, "shape_factor": null, "has_reconstructed": null, "possible_species": null, "has_props": null, "theoretical": null, "database_IDs": null, "fields_not_requested": ["builder_meta", "nsites", "elements", "nelements", "composition", "composition_reduced", "chemsys", "symmetry", "property_name", "deprecated", "deprecation_reasons", "last_updated", "origins", "warnings", "task_ids", "uncorrected_energy_per_atom", "equilibrium_reaction_energy_per_atom", "decomposes_to", "xas", "grain_boundaries", "cbm", "vbm", "is_gap_direct", "is_metal", "es_source_calc_id", "bandstructure", "dos", "dos_energy_up", "dos_energy_down", "is_magnetic", "ordering", "total_magnetization_normalized_vol", "total_magnetization_normalized_formula_units", "num_magnetic_sites", "num_unique_magnetic_sites", "types_of_magnetic_species", "bulk_modulus", "shear_modulus", "universal_anisotropy", "homogeneous_poisson", "e_total", "e_ionic", "e_electronic", "n", "e_ij_max", "weighted_surface_energy_EV_PER_ANG2", "weighted_surface_energy", "weighted_work_function", "surface_anisotropy", "shape_factor", "has_reconstructed", "possible_species", "has_props", "theoretical", "database_IDs"]}