{"builder_meta": null, "nsites": null, "elements": null, "nelements": null, "composition": null, "composition_reduced": null, "formula_pretty": "Tb5Sn3", "formula_anonymous": "A3B5", "chemsys": null, "volume": 460.58889868885404, "density": 8.297536240965815, "density_atomic": 28.786806168053378, "symmetry": null, "property_name": null, "material_id": "mp-1106357", "deprecated": null, "deprecation_reasons": null, "last_updated": null, "origins": null, "warnings": null, "structure": {"@module": "pymatgen.core.structure", "@class": "Structure", "charge": 0, "lattice": {"matrix": [[4e-08, -3.0000000000000004e-08, -6.60607244], [-4.48628624, -7.7704844, -2e-08], [-4.48636477, 7.77052968, 6.000000000000001e-08]], "pbc": [true, true, true], "a": 6.60607244, "b": 8.972580010111734, "c": 8.972658488834737, "alpha": 119.9997658151709, "beta": 90.00000078193686, "gamma": 89.9999998204144, "volume": 460.5888986888541}, "properties": {}, "sites": [{"species": [{"element": "Tb", "occu": 1}], "abc": [0.50000006, 0.33333183, 0.6666668], "properties": {"magmom": 0.0}, "label": "Tb", "xyz": [-4.486332427131653, 2.590204356032171, -3.3030365830309747]}, {"species": [{"element": "Tb", "occu": 1}], "abc": [0.50000007, 0.66666508, 0.33333261000000003], "properties": {"magmom": 0.0}, "label": "Tb", "xyz": [-4.486302033288646, -2.5901396798478893, -3.303036675758416]}, {"species": [{"element": "Tb", "occu": 1}], "abc": [-2e-08, 0.66666773, 0.33333255], "properties": {"magmom": 0.0}, "label": "Tb", "xyz": [-4.4863136727652995, -2.590160722863327, 1.387880472e-07]}, {"species": [{"element": "Tb", "occu": 1}], "abc": [-0.0, 0.33333448, 0.66666673], "properties": {"magmom": 0.0}, "label": "Tb", "xyz": [-4.4863440217446575, 2.590183235311435, 3.33333142e-08]}, {"species": [{"element": "Tb", "occu": 1}], "abc": [0.74999921, 0.23919146, 2.05e-06], "properties": {"magmom": 0.0}, "label": "Tb", "xyz": [-1.0730905227713203, -1.8586176014573563, -4.954549115986479]}, {"species": [{"element": "Tb", "occu": 1}], "abc": [0.749999099999999, 0.76078596, 0.7607901300000001], "properties": {"magmom": 0.0}, "label": "Tb", "xyz": [-6.826285590528947, 6.68289970615632e-05, -4.9545483541031095]}, {"species": [{"element": "Tb", "occu": 1}], "abc": [0.74999917, 0.99999193, 0.23920771000000002], "properties": {"magmom": 0.0}, "label": "Tb", "xyz": [-5.559423048526453, -5.9116511044510345, -4.954548852607251]}, {"species": [{"element": "Tb", "occu": 1}], "abc": [0.24999924, 0.76081049, 1.94e-06], "properties": {"magmom": 0.0}, "label": "Tb", "xyz": [-3.4132223260823418, -5.911850976573755, -1.6515131046010392]}, {"species": [{"element": "Tb", "occu": 1}], "abc": [0.24999912000000002, 0.23921612, 0.23920756], "properties": {"magmom": 0.0}, "label": "Tb", "xyz": [-2.1463643474438854, -5.5691528120682676e-05, -1.6515122870881218]}, {"species": [{"element": "Tb", "occu": 1}], "abc": [0.24999913, 3.609999999999999e-06, 0.7607899300000001], "properties": {"magmom": 0.0}, "label": "Tb", "xyz": [-3.413197324816127, 5.911712672361465, -1.6515123170696537]}, {"species": [{"element": "Sn", "occu": 1}], "abc": [0.74999856, 0.6057241800000001, -4.305e-05], "properties": {"magmom": -0.0}, "label": "Sn", "xyz": [-2.7172588859659923, -4.707104835195473, -4.954544829372753]}, {"species": [{"element": "Sn", "occu": 1}], "abc": [0.75000069, 0.39421513, 0.39426256], "properties": {"magmom": -0.0}, "label": "Sn", "xyz": [-3.537367542632795, 0.00038638378378763605, -4.954558872418533]}, {"species": [{"element": "Sn", "occu": 1}], "abc": [0.7500013, 3.487e-05, 0.6057819], "properties": {"magmom": -0.0}, "label": "Sn", "xyz": [-2.7179149812647996, 4.706975254265725, -4.954562881547956]}, {"species": [{"element": "Sn", "occu": 1}], "abc": [0.24999852, 0.39423327, -4.3330000000000014e-05], "properties": {"magmom": -0.0}, "label": "Sn", "xyz": [-1.76844889036578, -3.0637201790469786, -1.651508340900054]}, {"species": [{"element": "Sn", "occu": 1}], "abc": [0.25000062, 0.60574682, 0.60578213], "properties": {"magmom": -0.0}, "label": "Sn", "xyz": [-5.435313219817292, 0.0003017981189925578, -1.6515221815329215]}, {"species": [{"element": "Sn", "occu": 1}], "abc": [0.25000125, 4.7040000000000004e-05, 0.39426179], "properties": {"magmom": -0.0}, "label": "Sn", "xyz": [-1.7690132297178178, 3.0632574097987137, -1.6515263439357835]}]}, "task_ids": null, "uncorrected_energy_per_atom": null, "energy_per_atom": -5.122127827500002, "formation_energy_per_atom": -0.7198736172916671, "energy_above_hull": 0.0, "is_stable": true, "equilibrium_reaction_energy_per_atom": null, "decomposes_to": null, "xas": null, "grain_boundaries": null, "band_gap": 0.0, "cbm": null, "vbm": null, "efermi": 4.9272899, "is_gap_direct": null, "is_metal": null, "es_source_calc_id": null, "bandstructure": null, "dos": null, "dos_energy_up": null, "dos_energy_down": null, "is_magnetic": null, "ordering": null, "total_magnetization": 0.000463, "total_magnetization_normalized_vol": null, "total_magnetization_normalized_formula_units": null, "num_magnetic_sites": null, "num_unique_magnetic_sites": null, "types_of_magnetic_species": null, "bulk_modulus": null, "shear_modulus": null, "universal_anisotropy": null, "homogeneous_poisson": null, "e_total": null, "e_ionic": null, "e_electronic": null, "n": null, "e_ij_max": null, "weighted_surface_energy_EV_PER_ANG2": null, "weighted_surface_energy": null, "weighted_work_function": null, "surface_anisotropy": null, "shape_factor": null, "has_reconstructed": null, "possible_species": null, "has_props": null, "theoretical": null, "database_IDs": null, "fields_not_requested": ["builder_meta", "nsites", "elements", "nelements", "composition", "composition_reduced", "chemsys", "symmetry", "property_name", "deprecated", "deprecation_reasons", "last_updated", "origins", "warnings", "task_ids", "uncorrected_energy_per_atom", "equilibrium_reaction_energy_per_atom", "decomposes_to", "xas", "grain_boundaries", "cbm", "vbm", "is_gap_direct", "is_metal", "es_source_calc_id", "bandstructure", "dos", "dos_energy_up", "dos_energy_down", "is_magnetic", "ordering", "total_magnetization_normalized_vol", "total_magnetization_normalized_formula_units", "num_magnetic_sites", "num_unique_magnetic_sites", "types_of_magnetic_species", "bulk_modulus", "shear_modulus", "universal_anisotropy", "homogeneous_poisson", "e_total", "e_ionic", "e_electronic", "n", "e_ij_max", "weighted_surface_energy_EV_PER_ANG2", "weighted_surface_energy", "weighted_work_function", "surface_anisotropy", "shape_factor", "has_reconstructed", "possible_species", "has_props", "theoretical", "database_IDs"]}