{"builder_meta": null, "nsites": null, "elements": null, "nelements": null, "composition": null, "composition_reduced": null, "formula_pretty": "Tb5Si4", "formula_anonymous": "A4B5", "chemsys": null, "volume": 845.3081614307395, "density": 7.126665092225152, "density_atomic": 23.480782261964986, "symmetry": null, "property_name": null, "material_id": "mp-1200515", "deprecated": null, "deprecation_reasons": null, "last_updated": null, "origins": null, "warnings": null, "structure": {"@module": "pymatgen.core.structure", "@class": "Structure", "charge": 0, "lattice": {"matrix": [[7.48899008, 0.00029477, -0.00035852000000000003], [0.00030331, 7.70841403, -3.5e-07], [-0.00071036, -1.3e-06, 14.64288917]], "pbc": [true, true, true], "a": 7.488990094382843, "b": 7.708414035967316, "c": 14.64288918723065, "alpha": 90.00000779761643, "beta": 90.00552246695052, "gamma": 89.99549034305493, "volume": 845.3081614307395}, "properties": {}, "sites": [{"species": [{"element": "Tb", "occu": 1}], "abc": [0.68650594, 0.18023193, 0.62237047], "properties": {"magmom": 0.076}, "label": "Tb", "xyz": [5.140848733580694, 1.389503890140301, 9.113055625700026]}, {"species": [{"element": "Tb", "occu": 1}], "abc": [0.18652718000000001, 0.31981922, 0.87760024], "properties": {"magmom": -0.076}, "label": "Tb", "xyz": [1.3963737929315065, 2.4653528042481936, 12.850536064224102]}, {"species": [{"element": "Tb", "occu": 1}], "abc": [0.31347591, 0.81980202, 0.12235742000000001], "properties": {"magmom": -0.076}, "label": "Tb", "xyz": [2.347779716642788, 6.319465637019686, 1.7915534658731813]}, {"species": [{"element": "Tb", "occu": 1}], "abc": [0.81347121, 0.68018651, 0.37763645], "properties": {"magmom": 0.076}, "label": "Tb", "xyz": [6.092015871597323, 5.243398532681922, 5.529396800138759]}, {"species": [{"element": "Tb", "occu": 1}], "abc": [0.31348436, 0.81978589, 0.37765523], "properties": {"magmom": 0.076}, "label": "Tb", "xyz": [2.347661640364262, 6.319340970905035, 5.529851000023051]}, {"species": [{"element": "Tb", "occu": 1}], "abc": [0.81346499, 0.68017088, 0.12237488], "properties": {"magmom": -0.076}, "label": "Tb", "xyz": [6.092150612947155, 5.2432783801772045, 1.791629923504027]}, {"species": [{"element": "Tb", "occu": 1}], "abc": [0.6865122300000001, 0.18021377, 0.87761655], "properties": {"magmom": -0.076}, "label": "Tb", "xyz": [5.1407145172148, 1.3893635753757152, 12.850595683968246]}, {"species": [{"element": "Tb", "occu": 1}], "abc": [0.18652348, 0.31979548, 0.6223907200000001], "properties": {"magmom": 0.076}, "label": "Tb", "xyz": [1.3965273671022578, 2.4651701371808477, 9.113531349070035]}, {"species": [{"element": "Tb", "occu": 1}], "abc": [0.53332167, 0.68358342, 0.59953605], "properties": {"magmom": 0.14400000000000002}, "label": "Tb", "xyz": [3.993822147337675, 5.2695004532351835, 8.778748487830253]}, {"species": [{"element": "Tb", "occu": 1}], "abc": [0.03331795, 0.81629806, 0.90044607], "properties": {"magmom": -0.14400000000000002}, "label": "Tb", "xyz": [0.2491257475302294, 6.292372068918013, 13.185119775716306]}, {"species": [{"element": "Tb", "occu": 1}], "abc": [0.46661888, 0.31637094, 0.09951508], "properties": {"magmom": -0.14400000000000002}, "label": "Tb", "xyz": [3.494529430398293, 2.438855608457942, 1.457020884252997]}, {"species": [{"element": "Tb", "occu": 1}], "abc": [0.9667170900000001, 0.18370214, 0.40050717], "properties": {"magmom": 0.14400000000000002}, "label": "Tb", "xyz": [7.239505911599269, 1.4163365918543225, 5.864235450393493]}, {"species": [{"element": "Tb", "occu": 1}], "abc": [0.46666724, 0.31639104, 0.40050449], "properties": {"magmom": 0.14400000000000002}, "label": "Tb", "xyz": [3.494677793217805, 2.439010170548789, 5.864375438881624]}, {"species": [{"element": "Tb", "occu": 1}], "abc": [0.9666688600000001, 0.1837231, 0.09951189], "properties": {"magmom": -0.14400000000000002}, "label": "Tb", "xyz": [7.239358538972191, 1.416498537289498, 1.456794941944459]}, {"species": [{"element": "Tb", "occu": 1}], "abc": [0.53337155, 0.68361264, 0.9004418200000001], "properties": {"magmom": -0.14400000000000002}, "label": "Tb", "xyz": [3.9939819556028073, 5.269725316618766, 13.18487831066056]}, {"species": [{"element": "Tb", "occu": 1}], "abc": [0.03326855, 0.81632436, 0.59953182], "properties": {"magmom": 0.14400000000000002}, "label": "Tb", "xyz": [0.24896955684396038, 6.292575176833889, 8.778865780994318]}, {"species": [{"element": "Tb", "occu": 1}], "abc": [0.85637421, 0.51121611, 0.74996977], "properties": {"magmom": 0.0}, "label": "Tb", "xyz": [6.413000271890343, 3.9409168931512037, 10.981417016752983]}, {"species": [{"element": "Tb", "occu": 1}], "abc": [0.35636284, 0.98881021, 0.74996917], "properties": {"magmom": 0.0}, "label": "Tb", "xyz": [2.6685649415658212, 7.622262565885673, 10.981587327937918]}, {"species": [{"element": "Tb", "occu": 1}], "abc": [0.14361814, 0.48884229999999906, 0.25003000000000003], "properties": {"magmom": 0.0}, "label": "Tb", "xyz": [1.075525485215264, 3.7682408530575895, 3.661109918104743]}, {"species": [{"element": "Tb", "occu": 1}], "abc": [0.6436322, 0.01112687, 0.25003022], "properties": {"magmom": 0.0}, "label": "Tb", "xyz": [4.8199809243924365, 0.08595991924229411, 3.660934041699969]}, {"species": [{"element": "Si", "occu": 1}], "abc": [0.6408599500000001, 0.97295994, 0.45952229], "properties": {"magmom": -0.012}, "label": "Si", "xyz": [4.799362490444774, 7.500166361032442, 6.7285038619693465]}, {"species": [{"element": "Si", "occu": 1}], "abc": [0.14081808, 0.52699294, 0.04050501], "properties": {"magmom": 0.012}, "label": "Si", "xyz": [1.054716273294374, 4.062321228695877, 0.5930597017141711]}, {"species": [{"element": "Si", "occu": 1}], "abc": [0.35919974, 0.02703362, 0.95948668], "properties": {"magmom": 0.012}, "label": "Si", "xyz": [2.689369908207856, 0.20849096966436442, 14.049528325578704]}, {"species": [{"element": "Si", "occu": 1}], "abc": [0.85917127, 0.47300228, 0.5405258], "properties": {"magmom": -0.012}, "label": "Si", "xyz": [6.434084616465261, 3.6463499666057064, 7.9145511872910665]}, {"species": [{"element": "Si", "occu": 1}], "abc": [0.35916844000000003, 0.02703425, 0.54051044], "properties": {"magmom": -0.012}, "label": "Si", "xyz": [2.6894331269712843, 0.2084963614080143, 7.914505689616838]}, {"species": [{"element": "Si", "occu": 1}], "abc": [0.85920662, 0.47300508, 0.9594704900000001], "properties": {"magmom": 0.012}, "label": "Si", "xyz": [6.434051751563868, 3.646371015957013, 14.049111838646414]}, {"species": [{"element": "Si", "occu": 1}], "abc": [0.64081917, 0.97297005, 0.04048777], "properties": {"magmom": 0.012}, "label": "Si", "xyz": [4.799354757857402, 7.500244825822443, 0.5926278418221049]}, {"species": [{"element": "Si", "occu": 1}], "abc": [0.14086068000000002, 0.52699887, 0.45950422], "properties": {"magmom": -0.012}, "label": "Si", "xyz": [1.054737665791595, 4.0623664074493036, 6.7284186807866995]}, {"species": [{"element": "Si", "occu": 1}], "abc": [0.48363088, 0.39598378, 0.75000739], "properties": {"magmom": -0.0}, "label": "Si", "xyz": [3.621494193292422, 3.0525485102693244, 10.982101558513547]}, {"species": [{"element": "Si", "occu": 1}], "abc": [0.9836461, 0.10405445, 0.75000946], "properties": {"magmom": -0.0}, "label": "Si", "xyz": [7.366014669165912, 0.8023837566125326, 10.98195270601272]}, {"species": [{"element": "Si", "occu": 1}], "abc": [0.5163692, 0.6040285, 0.24998821000000002], "properties": {"magmom": 0.0}, "label": "Si", "xyz": [3.867089442677015, 4.656253649084266, 3.660364312741127]}, {"species": [{"element": "Si", "occu": 1}], "abc": [0.01636232, 0.89593044, 0.24999122000000001], "properties": {"magmom": 0.0}, "label": "Si", "xyz": [0.1226314130645028, 6.906207271732553, 3.660587548138467]}, {"species": [{"element": "Si", "occu": 1}], "abc": [0.74056702, 0.87371848, 0.74999844], "properties": {"magmom": -0.0}, "label": "Si", "xyz": [5.545831305015491, 6.735201111444788, 10.981878220703416]}, {"species": [{"element": "Si", "occu": 1}], "abc": [0.24055499, 0.62626874, 0.74999974], "properties": {"magmom": -0.0}, "label": "Si", "xyz": [1.8011711175607223, 4.827608675361162, 10.982076607379742]}, {"species": [{"element": "Si", "occu": 1}], "abc": [0.25942645000000003, 0.12629379, 0.24999702000000001], "properties": {"magmom": -0.0}, "label": "Si", "xyz": [1.9427028288259338, 0.9736009688764141, 3.6605856029165933]}, {"species": [{"element": "Si", "occu": 1}], "abc": [0.75943461, 0.37371791, 0.25000029], "properties": {"magmom": -0.0}, "label": "Si", "xyz": [5.687334022871946, 2.88099591424589, 3.660454135640214]}]}, "task_ids": null, "uncorrected_energy_per_atom": null, "energy_per_atom": -22.07795522027778, "formation_energy_per_atom": -0.830485316944443, "energy_above_hull": 0.013434917083333001, "is_stable": false, "equilibrium_reaction_energy_per_atom": null, "decomposes_to": null, "xas": null, "grain_boundaries": null, "band_gap": 0.0, "cbm": null, "vbm": null, "efermi": 4.93454336, "is_gap_direct": null, "is_metal": null, "es_source_calc_id": null, "bandstructure": null, "dos": null, "dos_energy_up": null, "dos_energy_down": null, "is_magnetic": null, "ordering": null, "total_magnetization": 0.004965, "total_magnetization_normalized_vol": null, "total_magnetization_normalized_formula_units": null, "num_magnetic_sites": null, "num_unique_magnetic_sites": null, "types_of_magnetic_species": null, "bulk_modulus": null, "shear_modulus": null, "universal_anisotropy": null, "homogeneous_poisson": null, "e_total": null, "e_ionic": null, "e_electronic": null, "n": null, "e_ij_max": null, "weighted_surface_energy_EV_PER_ANG2": null, "weighted_surface_energy": null, "weighted_work_function": null, "surface_anisotropy": null, "shape_factor": null, "has_reconstructed": null, "possible_species": null, "has_props": null, "theoretical": null, "database_IDs": null, "fields_not_requested": ["builder_meta", "nsites", "elements", "nelements", "composition", "composition_reduced", "chemsys", "symmetry", "property_name", "deprecated", "deprecation_reasons", "last_updated", "origins", "warnings", "task_ids", "uncorrected_energy_per_atom", "equilibrium_reaction_energy_per_atom", "decomposes_to", "xas", "grain_boundaries", "cbm", "vbm", "is_gap_direct", "is_metal", "es_source_calc_id", "bandstructure", "dos", "dos_energy_up", "dos_energy_down", "is_magnetic", "ordering", "total_magnetization_normalized_vol", "total_magnetization_normalized_formula_units", "num_magnetic_sites", "num_unique_magnetic_sites", "types_of_magnetic_species", "bulk_modulus", "shear_modulus", "universal_anisotropy", "homogeneous_poisson", "e_total", "e_ionic", "e_electronic", "n", "e_ij_max", "weighted_surface_energy_EV_PER_ANG2", "weighted_surface_energy", "weighted_work_function", "surface_anisotropy", "shape_factor", "has_reconstructed", "possible_species", "has_props", "theoretical", "database_IDs"]}