{"builder_meta": null, "nsites": null, "elements": null, "nelements": null, "composition": null, "composition_reduced": null, "formula_pretty": "Tb5S7", "formula_anonymous": "A5B7", "chemsys": null, "volume": 276.65913233010036, "density": 6.116642684742423, "density_atomic": 23.05492769417503, "symmetry": null, "property_name": null, "material_id": "mp-1095641", "deprecated": null, "deprecation_reasons": null, "last_updated": null, "origins": null, "warnings": null, "structure": {"@module": "pymatgen.core.structure", "@class": "Structure", "charge": 0, "lattice": {"matrix": [[0.0, -3.81837624, 0.0], [-6.23996814, 1.90918863, 1.60416165], [0.06235104, 0.0, -11.62741128]], "pbc": [true, true, true], "a": 3.81837624, "b": 6.719787066006412, "c": 11.627578454969045, "alpha": 104.10490926475339, "beta": 90.0, "gamma": 106.50592249342014, "volume": 276.65913233010036}, "properties": {}, "sites": [{"species": [{"element": "Tb", "occu": 1}], "abc": [-0.0, -0.0, 0.0], "properties": {"magmom": -0.0}, "label": "Tb", "xyz": [0.0, 0.0, 0.0]}, {"species": [{"element": "Tb", "occu": 1}], "abc": [0.11169098000000001, 0.22338295, 0.42133278], "properties": {"magmom": 0.0}, "label": "Tb", "xyz": [-1.3676319540001218, 2.004021543267065e-06, -4.5406671571518915]}, {"species": [{"element": "Tb", "occu": 1}], "abc": [0.88830802, 0.77661705, 0.57866722], "properties": {"magmom": 0.0}, "label": "Tb", "xyz": [-4.809985145999879, -1.909185795645303, -5.48258247284811]}, {"species": [{"element": "Tb", "occu": 1}], "abc": [0.30050322, 0.6010074400000001, 0.18839857000000002], "properties": {"magmom": 0.0}, "label": "Tb", "xyz": [-3.7385204307289492, 2.21570191438758e-06, -1.2264745713411938]}, {"species": [{"element": "Tb", "occu": 1}], "abc": [0.69949678, 0.39899256, 0.8116014300000001], "properties": {"magmom": 0.0}, "label": "Tb", "xyz": [-2.439096669271051, -1.9091898257019144, -8.796775058658808]}, {"species": [{"element": "S", "occu": 1}], "abc": [0.5, -0.0, 0.5], "properties": {"magmom": 0.0}, "label": "S", "xyz": [0.03117552, -1.90918812, -5.81370564]}, {"species": [{"element": "S", "occu": 1}], "abc": [0.65906637, 0.31813174, 0.05115132], "properties": {"magmom": -0.0}, "label": "S", "xyz": [-1.9819425839233908, -1.9091898669409326, -0.08442269819911863]}, {"species": [{"element": "S", "occu": 1}], "abc": [0.34093363, 0.68186826, 0.94884868], "properties": {"magmom": -0.0}, "label": "S", "xyz": [-4.195674516076609, 2.256940932587881e-06, -9.938826931800882]}, {"species": [{"element": "S", "occu": 1}], "abc": [0.95857108, 0.91714416, 0.21505032000000002], "properties": {"magmom": -0.0}, "label": "S", "xyz": [-5.70954172708273, -1.9091838338802385, -1.0292310275421461]}, {"species": [{"element": "S", "occu": 1}], "abc": [0.04142792, 0.08285584, 0.78494968], "properties": {"magmom": -0.0}, "label": "S", "xyz": [-0.46807537291727047, 4.2256478399727015e-08, -8.994018602457855]}, {"species": [{"element": "S", "occu": 1}], "abc": [0.25933144, 0.51866188, 0.6475474], "properties": {"magmom": 0.0}, "label": "S", "xyz": [-3.1960583527932074, -1.6446705612960244e-06, -6.69728244588177]}, {"species": [{"element": "S", "occu": 1}], "abc": [0.74066856, 0.48133812000000004, 0.3524526], "properties": {"magmom": 0.0}, "label": "S", "xyz": [-2.981558747206793, -1.909185965329439, -3.32596718411823]}]}, "task_ids": null, "uncorrected_energy_per_atom": null, "energy_per_atom": -20.084199765, "formation_energy_per_atom": -2.386102737890626, "energy_above_hull": 0.0, "is_stable": true, "equilibrium_reaction_energy_per_atom": null, "decomposes_to": null, "xas": null, "grain_boundaries": null, "band_gap": 0.0, "cbm": null, "vbm": null, "efermi": 5.0442788, "is_gap_direct": null, "is_metal": null, "es_source_calc_id": null, "bandstructure": null, "dos": null, "dos_energy_up": null, "dos_energy_down": null, "is_magnetic": null, "ordering": null, "total_magnetization": 0.0, "total_magnetization_normalized_vol": null, "total_magnetization_normalized_formula_units": null, "num_magnetic_sites": null, "num_unique_magnetic_sites": null, "types_of_magnetic_species": null, "bulk_modulus": null, "shear_modulus": null, "universal_anisotropy": null, "homogeneous_poisson": null, "e_total": null, "e_ionic": null, "e_electronic": null, "n": null, "e_ij_max": null, "weighted_surface_energy_EV_PER_ANG2": null, "weighted_surface_energy": null, "weighted_work_function": null, "surface_anisotropy": null, "shape_factor": null, "has_reconstructed": null, "possible_species": null, "has_props": null, "theoretical": null, "database_IDs": null, "fields_not_requested": ["builder_meta", "nsites", "elements", "nelements", "composition", "composition_reduced", "chemsys", "symmetry", "property_name", "deprecated", "deprecation_reasons", "last_updated", "origins", "warnings", "task_ids", "uncorrected_energy_per_atom", "equilibrium_reaction_energy_per_atom", "decomposes_to", "xas", "grain_boundaries", "cbm", "vbm", "is_gap_direct", "is_metal", "es_source_calc_id", "bandstructure", "dos", "dos_energy_up", "dos_energy_down", "is_magnetic", "ordering", "total_magnetization_normalized_vol", "total_magnetization_normalized_formula_units", "num_magnetic_sites", "num_unique_magnetic_sites", "types_of_magnetic_species", "bulk_modulus", "shear_modulus", "universal_anisotropy", "homogeneous_poisson", "e_total", "e_ionic", "e_electronic", "n", "e_ij_max", "weighted_surface_energy_EV_PER_ANG2", "weighted_surface_energy", "weighted_work_function", "surface_anisotropy", "shape_factor", "has_reconstructed", "possible_species", "has_props", "theoretical", "database_IDs"]}