{"builder_meta": null, "nsites": null, "elements": null, "nelements": null, "composition": null, "composition_reduced": null, "formula_pretty": "Tb5Sb3", "formula_anonymous": "A3B5", "chemsys": null, "volume": 444.00432131266587, "density": 8.67590867716672, "density_atomic": 27.750270082041617, "symmetry": null, "property_name": null, "material_id": "mp-16230", "deprecated": null, "deprecation_reasons": null, "last_updated": null, "origins": null, "warnings": null, "structure": {"@module": "pymatgen.core.structure", "@class": "Structure", "charge": 0, "lattice": {"matrix": [[9.00220154, 0.0, -0.0], [-4.50110077, 7.79613328, 0.0], [-0.0, 0.0, 6.32643733]], "pbc": [true, true, true], "a": 9.00220154, "b": 9.002199856769353, "c": 6.32643733, "alpha": 90.0, "beta": 90.0, "gamma": 120.0000061852463, "volume": 444.00432131266587}, "properties": {}, "sites": [{"species": [{"element": "Tb", "occu": 1}], "abc": [-0.0, 0.75186492, 0.75], "properties": {"magmom": -0.002}, "label": "Tb", "xyz": [-3.3842197703479884, 5.861639124876538, 4.7448279975]}, {"species": [{"element": "Tb", "occu": 1}], "abc": [0.0, 0.24813508, 0.25], "properties": {"magmom": -0.002}, "label": "Tb", "xyz": [-1.1168809996520117, 1.9344941551234625, 1.5816093325]}, {"species": [{"element": "Tb", "occu": 1}], "abc": [0.75186792, 0.75186592, 0.25], "properties": {"magmom": -0.002}, "label": "Tb", "xyz": [3.3842422758518387, 5.861646921009817, 1.5816093325]}, {"species": [{"element": "Tb", "occu": 1}], "abc": [0.75186792, 0.0, 0.75], "properties": {"magmom": -0.002}, "label": "Tb", "xyz": [6.768466547300597, 0.0, 4.7448279975]}, {"species": [{"element": "Tb", "occu": 1}], "abc": [0.24813208, 0.24813408, 0.75], "properties": {"magmom": -0.002}, "label": "Tb", "xyz": [1.1168584941481616, 1.9344863589901826, 4.7448279975]}, {"species": [{"element": "Tb", "occu": 1}], "abc": [0.24813208, 0.0, 0.25], "properties": {"magmom": -0.002}, "label": "Tb", "xyz": [2.2337349926994032, 0.0, 1.5816093325]}, {"species": [{"element": "Tb", "occu": 1}], "abc": [0.333331, 0.666666, 0.5], "properties": {"magmom": -0.002}, "label": "Tb", "xyz": [-1.8004403079974196e-05, 5.19741698924448, 3.163218665]}, {"species": [{"element": "Tb", "occu": 1}], "abc": [0.666669, 0.333333999999999, 0.0], "properties": {"magmom": -0.002}, "label": "Tb", "xyz": [4.501118774403084, 2.5987162907555126, 0.0]}, {"species": [{"element": "Tb", "occu": 1}], "abc": [0.666669, 0.333333999999999, 0.5], "properties": {"magmom": -0.002}, "label": "Tb", "xyz": [4.501118774403084, 2.5987162907555126, 3.163218665]}, {"species": [{"element": "Tb", "occu": 1}], "abc": [0.333331, 0.666666, -0.0], "properties": {"magmom": -0.002}, "label": "Tb", "xyz": [-1.8004403079974196e-05, 5.19741698924448, 0.0]}, {"species": [{"element": "Sb", "occu": 1}], "abc": [0.38729719, 0.0, 0.75], "properties": {"magmom": 0.0}, "label": "Sb", "xyz": [3.4865273602556726, 0.0, 4.7448279975]}, {"species": [{"element": "Sb", "occu": 1}], "abc": [0.38729719, 0.38729719, 0.25], "properties": {"magmom": 0.0}, "label": "Sb", "xyz": [1.7432636801278363, 3.0194205122094835, 1.5816093325]}, {"species": [{"element": "Sb", "occu": 1}], "abc": [-0.0, 0.61270181, 0.25], "properties": {"magmom": 0.0}, "label": "Sb", "xyz": [-2.7578325887713935, 4.776704971657237, 1.5816093325]}, {"species": [{"element": "Sb", "occu": 1}], "abc": [0.0, 0.38729819, 0.75], "properties": {"magmom": 0.0}, "label": "Sb", "xyz": [-1.7432681812286062, 3.0194283083427633, 4.7448279975]}, {"species": [{"element": "Sb", "occu": 1}], "abc": [0.61270281, 0.61270281, 0.75], "properties": {"magmom": 0.0}, "label": "Sb", "xyz": [2.757837089872164, 4.776712767790517, 4.7448279975]}, {"species": [{"element": "Sb", "occu": 1}], "abc": [0.61270281, 0.0, 0.25], "properties": {"magmom": 0.0}, "label": "Sb", "xyz": [5.515674179744328, 0.0, 1.5816093325]}]}, "task_ids": null, "uncorrected_energy_per_atom": null, "energy_per_atom": -30.24444166375, "formation_energy_per_atom": -1.088051921249999, "energy_above_hull": 0.0, "is_stable": true, "equilibrium_reaction_energy_per_atom": null, "decomposes_to": null, "xas": null, "grain_boundaries": null, "band_gap": 0.0, "cbm": null, "vbm": null, "efermi": 5.51853151, "is_gap_direct": null, "is_metal": null, "es_source_calc_id": null, "bandstructure": null, "dos": null, "dos_energy_up": null, "dos_energy_down": null, "is_magnetic": null, "ordering": null, "total_magnetization": 0.027218299999999, "total_magnetization_normalized_vol": null, "total_magnetization_normalized_formula_units": null, "num_magnetic_sites": null, "num_unique_magnetic_sites": null, "types_of_magnetic_species": null, "bulk_modulus": null, "shear_modulus": null, "universal_anisotropy": null, "homogeneous_poisson": null, "e_total": null, "e_ionic": null, "e_electronic": null, "n": null, "e_ij_max": null, "weighted_surface_energy_EV_PER_ANG2": null, "weighted_surface_energy": null, "weighted_work_function": null, "surface_anisotropy": null, "shape_factor": null, "has_reconstructed": null, "possible_species": null, "has_props": null, "theoretical": null, "database_IDs": null, "fields_not_requested": ["builder_meta", "nsites", "elements", "nelements", "composition", "composition_reduced", "chemsys", "symmetry", "property_name", "deprecated", "deprecation_reasons", "last_updated", "origins", "warnings", "task_ids", "uncorrected_energy_per_atom", "equilibrium_reaction_energy_per_atom", "decomposes_to", "xas", "grain_boundaries", "cbm", "vbm", "is_gap_direct", "is_metal", "es_source_calc_id", "bandstructure", "dos", "dos_energy_up", "dos_energy_down", "is_magnetic", "ordering", "total_magnetization_normalized_vol", "total_magnetization_normalized_formula_units", "num_magnetic_sites", "num_unique_magnetic_sites", "types_of_magnetic_species", "bulk_modulus", "shear_modulus", "universal_anisotropy", "homogeneous_poisson", "e_total", "e_ionic", "e_electronic", "n", "e_ij_max", "weighted_surface_energy_EV_PER_ANG2", "weighted_surface_energy", "weighted_work_function", "surface_anisotropy", "shape_factor", "has_reconstructed", "possible_species", "has_props", "theoretical", "database_IDs"]}