{
  "builder_meta": null,
  "nsites": null,
  "elements": null,
  "nelements": null,
  "composition": null,
  "composition_reduced": null,
  "formula_pretty": "Tb5Si3",
  "formula_anonymous": "A3B5",
  "chemsys": null,
  "volume": 398.686794438765,
  "density": 7.321135246828594,
  "density_atomic": 24.917924652422812,
  "symmetry": null,
  "property_name": null,
  "material_id": "mp-206",
  "deprecated": null,
  "deprecation_reasons": null,
  "last_updated": null,
  "origins": null,
  "warnings": null,
  "structure": {
    "@module": "pymatgen.core.structure",
    "@class": "Structure",
    "charge": 0,
    "lattice": {
      "matrix": [
        [8.47189374, 1e-8, -0.0],
        [-4.23594636, 7.33687379, 0.0],
        [0.0, -0.0, 6.41416758]
      ],
      "pbc": [true, true, true],
      "a": 8.47189374,
      "b": 8.471892266500218,
      "c": 6.41416758,
      "alpha": 90.0,
      "beta": 90.0,
      "gamma": 120.00000170312535,
      "volume": 398.686794438765
    },
    "properties": {},
    "sites": [
      {
        "species": [{ "element": "Tb", "occu": 1 }],
        "abc": [-0.0, 0.75701589, 0.75],
        "properties": { "magmom": -0.0 },
        "label": "Tb",
        "xyz": [-3.2066787037076603, 5.554130041954523, 4.810625685]
      },
      {
        "species": [{ "element": "Tb", "occu": 1 }],
        "abc": [0.0, 0.24298411, 0.25],
        "properties": { "magmom": -0.0 },
        "label": "Tb",
        "xyz": [-1.0292676562923395, 1.782743748045477, 1.603541895]
      },
      {
        "species": [{ "element": "Tb", "occu": 1 }],
        "abc": [0.75701589, 0.75701589, 0.25],
        "properties": { "magmom": -0.0 },
        "label": "Tb",
        "xyz": [3.2066794758638686, 5.554130049524682, 1.603541895]
      },
      {
        "species": [{ "element": "Tb", "occu": 1 }],
        "abc": [0.75701589, 0.0, 0.75],
        "properties": { "magmom": -0.0 },
        "label": "Tb",
        "xyz": [6.413358179571529, 7.5701589e-9, 4.810625685]
      },
      {
        "species": [{ "element": "Tb", "occu": 1 }],
        "abc": [0.24298411, 0.24298411, 0.75],
        "properties": { "magmom": -0.0 },
        "label": "Tb",
        "xyz": [1.0292679041361321, 1.782743750475318, 4.810625685]
      },
      {
        "species": [{ "element": "Tb", "occu": 1 }],
        "abc": [0.24298411, -0.0, 0.25],
        "properties": { "magmom": -0.0 },
        "label": "Tb",
        "xyz": [2.0585355604284716, 2.4298411e-9, 1.603541895]
      },
      {
        "species": [{ "element": "Tb", "occu": 1 }],
        "abc": [0.333333, 0.666667, 0.5],
        "properties": { "magmom": -0.0 },
        "label": "Tb",
        "xyz": [-3.895946699916664e-6, 4.891251642291261, 3.20708379]
      },
      {
        "species": [{ "element": "Tb", "occu": 1 }],
        "abc": [0.666667, 0.333333, 0.0],
        "properties": { "magmom": -0.0 },
        "label": "Tb",
        "xyz": [4.235951275946701, 2.44562215770874, 0.0]
      },
      {
        "species": [{ "element": "Tb", "occu": 1 }],
        "abc": [0.666667, 0.333333, 0.5],
        "properties": { "magmom": -0.0 },
        "label": "Tb",
        "xyz": [4.235951275946701, 2.44562215770874, 3.20708379]
      },
      {
        "species": [{ "element": "Tb", "occu": 1 }],
        "abc": [0.333333, 0.666667, 0.0],
        "properties": { "magmom": -0.0 },
        "label": "Tb",
        "xyz": [-3.895946699916664e-6, 4.891251642291261, 0.0]
      },
      {
        "species": [{ "element": "Si", "occu": 1 }],
        "abc": [0.39390151, -0.0, 0.75],
        "properties": { "magmom": 0.0 },
        "label": "Si",
        "xyz": [3.3370917367455477, 3.9390151e-9, 4.810625685]
      },
      {
        "species": [{ "element": "Si", "occu": 1 }],
        "abc": [0.39390151, 0.39390151, 0.25],
        "properties": { "magmom": 0.0 },
        "label": "Si",
        "xyz": [1.6685460692625442, 2.890005668499438, 1.603541895]
      },
      {
        "species": [{ "element": "Si", "occu": 1 }],
        "abc": [-0.0, 0.60609849, 0.25],
        "properties": { "magmom": 0.0 },
        "label": "Si",
        "xyz": [-2.5674006925169963, 4.446868125439577, 1.603541895]
      },
      {
        "species": [{ "element": "Si", "occu": 1 }],
        "abc": [0.0, 0.39390151, 0.75],
        "properties": { "magmom": 0.0 },
        "label": "Si",
        "xyz": [-1.6685456674830035, 2.890005664560423, 4.810625685]
      },
      {
        "species": [{ "element": "Si", "occu": 1 }],
        "abc": [0.60609849, 0.60609849, 0.75],
        "properties": { "magmom": 0.0 },
        "label": "Si",
        "xyz": [2.567401310737457, 4.446868131500562, 4.810625685]
      },
      {
        "species": [{ "element": "Si", "occu": 1 }],
        "abc": [0.60609849, 0.0, 0.25],
        "properties": { "magmom": 0.0 },
        "label": "Si",
        "xyz": [5.134802003254453, 6.060984900000001e-9, 1.603541895]
      }
    ]
  },
  "task_ids": null,
  "uncorrected_energy_per_atom": null,
  "energy_per_atom": -23.575856598125,
  "formation_energy_per_atom": -0.7691735312500001,
  "energy_above_hull": 0.0,
  "is_stable": true,
  "equilibrium_reaction_energy_per_atom": null,
  "decomposes_to": null,
  "xas": null,
  "grain_boundaries": null,
  "band_gap": 0.0,
  "cbm": null,
  "vbm": null,
  "efermi": 4.37084729,
  "is_gap_direct": null,
  "is_metal": null,
  "es_source_calc_id": null,
  "bandstructure": null,
  "dos": null,
  "dos_energy_up": null,
  "dos_energy_down": null,
  "is_magnetic": null,
  "ordering": null,
  "total_magnetization": 1.76e-5,
  "total_magnetization_normalized_vol": null,
  "total_magnetization_normalized_formula_units": null,
  "num_magnetic_sites": null,
  "num_unique_magnetic_sites": null,
  "types_of_magnetic_species": null,
  "bulk_modulus": null,
  "shear_modulus": null,
  "universal_anisotropy": null,
  "homogeneous_poisson": null,
  "e_total": null,
  "e_ionic": null,
  "e_electronic": null,
  "n": null,
  "e_ij_max": null,
  "weighted_surface_energy_EV_PER_ANG2": null,
  "weighted_surface_energy": null,
  "weighted_work_function": null,
  "surface_anisotropy": null,
  "shape_factor": null,
  "has_reconstructed": null,
  "possible_species": null,
  "has_props": null,
  "theoretical": null,
  "database_IDs": null,
  "fields_not_requested": [
    "builder_meta",
    "nsites",
    "elements",
    "nelements",
    "composition",
    "composition_reduced",
    "chemsys",
    "symmetry",
    "property_name",
    "deprecated",
    "deprecation_reasons",
    "last_updated",
    "origins",
    "warnings",
    "task_ids",
    "uncorrected_energy_per_atom",
    "equilibrium_reaction_energy_per_atom",
    "decomposes_to",
    "xas",
    "grain_boundaries",
    "cbm",
    "vbm",
    "is_gap_direct",
    "is_metal",
    "es_source_calc_id",
    "bandstructure",
    "dos",
    "dos_energy_up",
    "dos_energy_down",
    "is_magnetic",
    "ordering",
    "total_magnetization_normalized_vol",
    "total_magnetization_normalized_formula_units",
    "num_magnetic_sites",
    "num_unique_magnetic_sites",
    "types_of_magnetic_species",
    "bulk_modulus",
    "shear_modulus",
    "universal_anisotropy",
    "homogeneous_poisson",
    "e_total",
    "e_ionic",
    "e_electronic",
    "n",
    "e_ij_max",
    "weighted_surface_energy_EV_PER_ANG2",
    "weighted_surface_energy",
    "weighted_work_function",
    "surface_anisotropy",
    "shape_factor",
    "has_reconstructed",
    "possible_species",
    "has_props",
    "theoretical",
    "database_IDs"
  ]
}
