{
  "builder_meta": null,
  "nsites": null,
  "elements": null,
  "nelements": null,
  "composition": null,
  "composition_reduced": null,
  "formula_pretty": "Tb5Sn4",
  "formula_anonymous": "A4B5",
  "chemsys": null,
  "volume": 1025.8375850521477,
  "density": 8.219621362450185,
  "density_atomic": 28.49548847367077,
  "symmetry": null,
  "property_name": null,
  "material_id": "mp-1198576",
  "deprecated": null,
  "deprecation_reasons": null,
  "last_updated": null,
  "origins": null,
  "warnings": null,
  "structure": {
    "@module": "pymatgen.core.structure",
    "@class": "Structure",
    "charge": 0.0,
    "lattice": {
      "matrix": [
        [-8.09576173, 0.0, 0.0],
        [0.0, 0.0, -8.17292485],
        [0.0, -15.50398657, 0.0]
      ],
      "pbc": [true, true, true],
      "a": 8.09576173,
      "b": 8.17292485,
      "c": 15.50398657,
      "alpha": 90.0,
      "beta": 90.0,
      "gamma": 90.0,
      "volume": 1025.8375850521477
    },
    "properties": {},
    "sites": [
      {
        "species": [{ "element": "Tb", "occu": 1 }],
        "abc": [0.37959672, 0.83997716, 0.88051846],
        "properties": { "magmom": -0.0 },
        "label": "Tb",
        "xyz": [-3.0731245986095255, -13.651546378477082, -6.865070204396425]
      },
      {
        "species": [{ "element": "Tb", "occu": 1 }],
        "abc": [0.87959672, 0.66002284, 0.61948154],
        "properties": { "magmom": -0.0 },
        "label": "Tb",
        "xyz": [-7.121005463609525, -9.604433476522917, -5.394317070603574]
      },
      {
        "species": [{ "element": "Tb", "occu": 1 }],
        "abc": [0.62040328, 0.16002284, 0.38051846],
        "properties": { "magmom": -0.0 },
        "label": "Tb",
        "xyz": [-5.022637131390474, -5.899553093477082, -1.3078546456035738]
      },
      {
        "species": [{ "element": "Tb", "occu": 1 }],
        "abc": [0.12040328, 0.33997716, 0.11948154],
        "properties": { "magmom": -0.0 },
        "label": "Tb",
        "xyz": [-0.9747562663904743, -1.8524401915229178, -2.7786077793964257]
      },
      {
        "species": [{ "element": "Tb", "occu": 1 }],
        "abc": [0.62040328, 0.16002284, 0.11948154],
        "properties": { "magmom": -0.0 },
        "label": "Tb",
        "xyz": [-5.022637131390474, -1.8524401915229178, -1.3078546456035738]
      },
      {
        "species": [{ "element": "Tb", "occu": 1 }],
        "abc": [0.12040328, 0.33997716, 0.38051846],
        "properties": { "magmom": -0.0 },
        "label": "Tb",
        "xyz": [-0.9747562663904743, -5.899553093477082, -2.7786077793964257]
      },
      {
        "species": [{ "element": "Tb", "occu": 1 }],
        "abc": [0.37959672, 0.83997716, 0.61948154],
        "properties": { "magmom": -0.0 },
        "label": "Tb",
        "xyz": [-3.0731245986095255, -9.604433476522917, -6.865070204396425]
      },
      {
        "species": [{ "element": "Tb", "occu": 1 }],
        "abc": [0.87959672, 0.66002284, 0.88051846],
        "properties": { "magmom": -0.0 },
        "label": "Tb",
        "xyz": [-7.121005463609525, -13.651546378477082, -5.394317070603574]
      },
      {
        "species": [{ "element": "Tb", "occu": 1 }],
        "abc": [0.53380707, 0.32298053, 0.8991849900000001],
        "properties": { "magmom": -0.0 },
        "label": "Tb",
        "xyz": [-4.321574848509432, -13.940952008905585, -2.6396955997031704]
      },
      {
        "species": [{ "element": "Tb", "occu": 1 }],
        "abc": [0.03380707, 0.17701947, 0.60081501],
        "properties": { "magmom": -0.0 },
        "label": "Tb",
        "xyz": [-0.2736939835094311, -9.315027846094416, -1.4467668252968295]
      },
      {
        "species": [{ "element": "Tb", "occu": 1 }],
        "abc": [0.46619293, 0.6770194700000001, 0.39918499],
        "properties": { "magmom": -0.0 },
        "label": "Tb",
        "xyz": [-3.774186881490569, -6.188958723905585, -5.53322925029683]
      },
      {
        "species": [{ "element": "Tb", "occu": 1 }],
        "abc": [0.9661929300000001, 0.82298053, 0.10081501],
        "properties": { "magmom": -0.0 },
        "label": "Tb",
        "xyz": [-7.822067746490569, -1.5630345610944156, -6.72615802470317]
      },
      {
        "species": [{ "element": "Tb", "occu": 1 }],
        "abc": [0.46619293, 0.6770194700000001, 0.10081501],
        "properties": { "magmom": -0.0 },
        "label": "Tb",
        "xyz": [-3.774186881490569, -1.5630345610944156, -5.53322925029683]
      },
      {
        "species": [{ "element": "Tb", "occu": 1 }],
        "abc": [0.9661929300000001, 0.82298053, 0.39918499],
        "properties": { "magmom": -0.0 },
        "label": "Tb",
        "xyz": [-7.822067746490569, -6.188958723905585, -6.72615802470317]
      },
      {
        "species": [{ "element": "Tb", "occu": 1 }],
        "abc": [0.53380707, 0.32298053, 0.60081501],
        "properties": { "magmom": -0.0 },
        "label": "Tb",
        "xyz": [-4.321574848509432, -9.315027846094416, -2.6396955997031704]
      },
      {
        "species": [{ "element": "Tb", "occu": 1 }],
        "abc": [0.03380707, 0.17701947, 0.8991849900000001],
        "properties": { "magmom": -0.0 },
        "label": "Tb",
        "xyz": [-0.2736939835094311, -13.940952008905585, -1.4467668252968295]
      },
      {
        "species": [{ "element": "Tb", "occu": 1 }],
        "abc": [0.21233204, 0.50329566, 0.75],
        "properties": { "magmom": -0.0 },
        "label": "Tb",
        "xyz": [-1.718989603484829, -11.6279899275, -4.113397606511151]
      },
      {
        "species": [{ "element": "Tb", "occu": 1 }],
        "abc": [0.71233204, 0.99670434, 0.75],
        "properties": { "magmom": -0.0 },
        "label": "Tb",
        "xyz": [-5.7668704684848295, -11.6279899275, -8.145989668488848]
      },
      {
        "species": [{ "element": "Tb", "occu": 1 }],
        "abc": [0.7876679600000001, 0.49670434, 0.25],
        "properties": { "magmom": -0.0 },
        "label": "Tb",
        "xyz": [-6.376772126515171, -3.8759966425, -4.059527243488849]
      },
      {
        "species": [{ "element": "Tb", "occu": 1 }],
        "abc": [0.28766796, 0.00329566, 0.25],
        "properties": { "magmom": -0.0 },
        "label": "Tb",
        "xyz": [-2.3288912615151705, -3.8759966425, -0.026935181511151]
      },
      {
        "species": [{ "element": "Sn", "occu": 1 }],
        "abc": [0.28037937, 0.03189798, 0.04342268],
        "properties": { "magmom": 0.0 },
        "label": "Sn",
        "xyz": [-2.26988457352751, -0.6732246475534076, -0.260699793406803]
      },
      {
        "species": [{ "element": "Sn", "occu": 1 }],
        "abc": [0.78037937, 0.46810202, 0.45657732],
        "properties": { "magmom": 0.0 },
        "label": "Sn",
        "xyz": [-6.31776543852751, -7.078768637446593, -3.825762631593197]
      },
      {
        "species": [{ "element": "Sn", "occu": 1 }],
        "abc": [0.71962063, 0.96810202, 0.54342268],
        "properties": { "magmom": 0.0 },
        "label": "Sn",
        "xyz": [-5.825877156472489, -8.425217932553409, -7.912225056593196]
      },
      {
        "species": [{ "element": "Sn", "occu": 1 }],
        "abc": [0.21962063, 0.53189798, 0.9565773200000001],
        "properties": { "magmom": 0.0 },
        "label": "Sn",
        "xyz": [-1.7779962914724898, -14.830761922446595, -4.347162218406803]
      },
      {
        "species": [{ "element": "Sn", "occu": 1 }],
        "abc": [0.71962063, 0.96810202, 0.9565773200000001],
        "properties": { "magmom": 0.0 },
        "label": "Sn",
        "xyz": [-5.825877156472489, -14.830761922446595, -7.912225056593196]
      },
      {
        "species": [{ "element": "Sn", "occu": 1 }],
        "abc": [0.21962063, 0.53189798, 0.54342268],
        "properties": { "magmom": 0.0 },
        "label": "Sn",
        "xyz": [-1.7779962914724898, -8.425217932553409, -4.347162218406803]
      },
      {
        "species": [{ "element": "Sn", "occu": 1 }],
        "abc": [0.28037937, 0.03189798, 0.45657732],
        "properties": { "magmom": 0.0 },
        "label": "Sn",
        "xyz": [-2.26988457352751, -7.078768637446593, -0.260699793406803]
      },
      {
        "species": [{ "element": "Sn", "occu": 1 }],
        "abc": [0.78037937, 0.46810202, 0.04342268],
        "properties": { "magmom": 0.0 },
        "label": "Sn",
        "xyz": [-6.31776543852751, -0.6732246475534076, -3.825762631593197]
      },
      {
        "species": [{ "element": "Sn", "occu": 1 }],
        "abc": [0.57792157, 0.62090951, 0.75],
        "properties": { "magmom": -0.0 },
        "label": "Sn",
        "xyz": [-4.678715329347516, -11.6279899275, -5.074646763880324]
      },
      {
        "species": [{ "element": "Sn", "occu": 1 }],
        "abc": [0.07792157, 0.8790904900000001, 0.75],
        "properties": { "magmom": -0.0 },
        "label": "Sn",
        "xyz": [-0.630834464347516, -11.6279899275, -7.184740511119676]
      },
      {
        "species": [{ "element": "Sn", "occu": 1 }],
        "abc": [0.42207843, 0.37909049, 0.25],
        "properties": { "magmom": -0.0 },
        "label": "Sn",
        "xyz": [-3.4170464006524837, -3.8759966425, -3.0982780861196764]
      },
      {
        "species": [{ "element": "Sn", "occu": 1 }],
        "abc": [0.92207843, 0.12090951, 0.25],
        "properties": { "magmom": -0.0 },
        "label": "Sn",
        "xyz": [-7.464927265652483, -3.8759966425, -0.9881843388803234]
      },
      {
        "species": [{ "element": "Sn", "occu": 1 }],
        "abc": [0.34139563, 0.1443766, 0.75],
        "properties": { "magmom": 0.0 },
        "label": "Sn",
        "xyz": [-2.76385767614324, -11.6279899275, -1.17997910189851]
      },
      {
        "species": [{ "element": "Sn", "occu": 1 }],
        "abc": [0.8413956300000001, 0.3556234, 0.75],
        "properties": { "magmom": 0.0 },
        "label": "Sn",
        "xyz": [-6.81173854114324, -11.6279899275, -2.9064833231014897]
      },
      {
        "species": [{ "element": "Sn", "occu": 1 }],
        "abc": [0.65860437, 0.855623399999999, 0.25],
        "properties": { "magmom": 0.0 },
        "label": "Sn",
        "xyz": [-5.331904053856761, -3.8759966425, -6.992945748101482]
      },
      {
        "species": [{ "element": "Sn", "occu": 1 }],
        "abc": [0.15860437, 0.6443766, 0.25],
        "properties": { "magmom": 0.0 },
        "label": "Sn",
        "xyz": [-1.28402318885676, -3.8759966425, -5.266441526898509]
      }
    ]
  },
  "task_ids": null,
  "uncorrected_energy_per_atom": null,
  "energy_per_atom": -5.10148897194445,
  "formation_energy_per_atom": -0.7428661345370411,
  "energy_above_hull": 0.0,
  "is_stable": true,
  "equilibrium_reaction_energy_per_atom": null,
  "decomposes_to": null,
  "xas": null,
  "grain_boundaries": null,
  "band_gap": 0.0,
  "cbm": null,
  "vbm": null,
  "efermi": 5.28026433,
  "is_gap_direct": null,
  "is_metal": null,
  "es_source_calc_id": null,
  "bandstructure": null,
  "dos": null,
  "dos_energy_up": null,
  "dos_energy_down": null,
  "is_magnetic": null,
  "ordering": null,
  "total_magnetization": 1.5100000000000001e-5,
  "total_magnetization_normalized_vol": null,
  "total_magnetization_normalized_formula_units": null,
  "num_magnetic_sites": null,
  "num_unique_magnetic_sites": null,
  "types_of_magnetic_species": null,
  "bulk_modulus": null,
  "shear_modulus": null,
  "universal_anisotropy": null,
  "homogeneous_poisson": null,
  "e_total": null,
  "e_ionic": null,
  "e_electronic": null,
  "n": null,
  "e_ij_max": null,
  "weighted_surface_energy_EV_PER_ANG2": null,
  "weighted_surface_energy": null,
  "weighted_work_function": null,
  "surface_anisotropy": null,
  "shape_factor": null,
  "has_reconstructed": null,
  "possible_species": null,
  "has_props": null,
  "theoretical": null,
  "database_IDs": null,
  "fields_not_requested": [
    "builder_meta",
    "nsites",
    "elements",
    "nelements",
    "composition",
    "composition_reduced",
    "chemsys",
    "symmetry",
    "property_name",
    "deprecated",
    "deprecation_reasons",
    "last_updated",
    "origins",
    "warnings",
    "task_ids",
    "uncorrected_energy_per_atom",
    "equilibrium_reaction_energy_per_atom",
    "decomposes_to",
    "xas",
    "grain_boundaries",
    "cbm",
    "vbm",
    "is_gap_direct",
    "is_metal",
    "es_source_calc_id",
    "bandstructure",
    "dos",
    "dos_energy_up",
    "dos_energy_down",
    "is_magnetic",
    "ordering",
    "total_magnetization_normalized_vol",
    "total_magnetization_normalized_formula_units",
    "num_magnetic_sites",
    "num_unique_magnetic_sites",
    "types_of_magnetic_species",
    "bulk_modulus",
    "shear_modulus",
    "universal_anisotropy",
    "homogeneous_poisson",
    "e_total",
    "e_ionic",
    "e_electronic",
    "n",
    "e_ij_max",
    "weighted_surface_energy_EV_PER_ANG2",
    "weighted_surface_energy",
    "weighted_work_function",
    "surface_anisotropy",
    "shape_factor",
    "has_reconstructed",
    "possible_species",
    "has_props",
    "theoretical",
    "database_IDs"
  ]
}
