{
  "builder_meta": null,
  "nsites": null,
  "elements": null,
  "nelements": null,
  "composition": null,
  "composition_reduced": null,
  "formula_pretty": "Tb5Tl3",
  "formula_anonymous": "A3B5",
  "chemsys": null,
  "volume": 464.64479345282336,
  "density": 10.062172899865388,
  "density_atomic": 29.04029959080146,
  "symmetry": null,
  "property_name": null,
  "material_id": "mp-1188772",
  "deprecated": null,
  "deprecation_reasons": null,
  "last_updated": null,
  "origins": null,
  "warnings": null,
  "structure": {
    "@module": "pymatgen.core.structure",
    "@class": "Structure",
    "charge": 0,
    "lattice": {
      "matrix": [
        [0.0, 0.0, -6.229216],
        [-6.107013, -6.107013, -3.114608],
        [-6.107013, 6.107013, -3.114608]
      ],
      "pbc": [true, true, true],
      "a": 6.229216,
      "b": 9.181067397530747,
      "c": 9.181067397530747,
      "alpha": 83.39144602403363,
      "beta": 70.16927189664482,
      "gamma": 70.16927189664482,
      "volume": 464.64479345282336
    },
    "properties": {},
    "sites": [
      {
        "species": [{ "element": "Tb", "occu": 1 }],
        "abc": [0.717113999999999, 0.700062, 0.865711],
        "properties": { "magmom": 0.061 },
        "label": "Tb",
        "xyz": [-9.562196066049001, 1.0116205964370009, -9.343827114607993]
      },
      {
        "species": [{ "element": "Tb", "occu": 1 }],
        "abc": [0.282885999999999, 0.299938, 0.134289],
        "properties": { "magmom": 0.061 },
        "label": "Tb",
        "xyz": [-2.651829933951, -1.011620596437, -3.1146048853919943]
      },
      {
        "species": [{ "element": "Tb", "occu": 1 }],
        "abc": [0.782886, 0.134289, 0.299938],
        "properties": { "magmom": 0.061 },
        "label": "Tb",
        "xyz": [-2.651829933951, 1.011620596437, -6.229212885392]
      },
      {
        "species": [{ "element": "Tb", "occu": 1 }],
        "abc": [0.217114, 0.865711, 0.700062],
        "properties": { "magmom": 0.061 },
        "label": "Tb",
        "xyz": [-9.562196066049001, -1.0116205964370009, -6.229219114608]
      },
      {
        "species": [{ "element": "Tb", "occu": 1 }],
        "abc": [0.582824999999999, 0.134289, 0.700062],
        "properties": { "magmom": 0.061 },
        "label": "Tb",
        "xyz": [-5.095392403562999, 3.455183066049, -6.229219114607994]
      },
      {
        "species": [{ "element": "Tb", "occu": 1 }],
        "abc": [0.417174999999999, 0.865711, 0.299938],
        "properties": { "magmom": 0.061 },
        "label": "Tb",
        "xyz": [-7.118633596437, -3.455183066049001, -6.229212885391993]
      },
      {
        "species": [{ "element": "Tb", "occu": 1 }],
        "abc": [0.082825, 0.700062, 0.134289],
        "properties": { "magmom": 0.061 },
        "label": "Tb",
        "xyz": [-5.095392403562999, -3.455183066049, -3.114611114608]
      },
      {
        "species": [{ "element": "Tb", "occu": 1 }],
        "abc": [0.917175, 0.299938, 0.865711],
        "properties": { "magmom": 0.061 },
        "label": "Tb",
        "xyz": [-7.118633596437, 3.455183066049001, -9.343820885391999]
      },
      {
        "species": [{ "element": "Tb", "occu": 1 }],
        "abc": [0.25, 0.5, 0.5],
        "properties": { "magmom": 0.05 },
        "label": "Tb",
        "xyz": [-6.107013, 0.0, -4.671912]
      },
      {
        "species": [{ "element": "Tb", "occu": 1 }],
        "abc": [0.75, 0.5, 0.5],
        "properties": { "magmom": 0.05 },
        "label": "Tb",
        "xyz": [-6.107013, 0.0, -7.78652]
      },
      {
        "species": [{ "element": "Tl", "occu": 1 }],
        "abc": [0.161375, 0.17725000000000002, 0.5],
        "properties": { "magmom": -0.003 },
        "label": "Tl",
        "xyz": [-4.135974554250001, 1.9710384457499999, -3.114608]
      },
      {
        "species": [{ "element": "Tl", "occu": 1 }],
        "abc": [0.838625, 0.8227500000000001, 0.5],
        "properties": { "magmom": -0.003 },
        "label": "Tl",
        "xyz": [-8.07805144575, -1.9710384457500005, -9.343824]
      },
      {
        "species": [{ "element": "Tl", "occu": 1 }],
        "abc": [0.338625, 0.5, 0.8227500000000001],
        "properties": { "magmom": -0.003 },
        "label": "Tl",
        "xyz": [-8.07805144575, 1.9710384457500005, -6.229216000000001]
      },
      {
        "species": [{ "element": "Tl", "occu": 1 }],
        "abc": [0.661374999999999, 0.5, 0.17725000000000002],
        "properties": { "magmom": -0.003 },
        "label": "Tl",
        "xyz": [-4.135974554250001, -1.9710384457499999, -6.229215999999994]
      },
      {
        "species": [{ "element": "Tl", "occu": 1 }],
        "abc": [0.75, 0.0, 0.0],
        "properties": { "magmom": 0.003 },
        "label": "Tl",
        "xyz": [0.0, 0.0, -4.671912]
      },
      {
        "species": [{ "element": "Tl", "occu": 1 }],
        "abc": [0.25, 0.0, 0.0],
        "properties": { "magmom": 0.003 },
        "label": "Tl",
        "xyz": [0.0, 0.0, -1.557304]
      }
    ]
  },
  "task_ids": null,
  "uncorrected_energy_per_atom": null,
  "energy_per_atom": -4.091482255,
  "formation_energy_per_atom": -0.303515446666668,
  "energy_above_hull": 0.0,
  "is_stable": true,
  "equilibrium_reaction_energy_per_atom": null,
  "decomposes_to": null,
  "xas": null,
  "grain_boundaries": null,
  "band_gap": 0.0,
  "cbm": null,
  "vbm": null,
  "efermi": 4.7923591,
  "is_gap_direct": null,
  "is_metal": null,
  "es_source_calc_id": null,
  "bandstructure": null,
  "dos": null,
  "dos_energy_up": null,
  "dos_energy_down": null,
  "is_magnetic": null,
  "ordering": null,
  "total_magnetization": 0.9297945,
  "total_magnetization_normalized_vol": null,
  "total_magnetization_normalized_formula_units": null,
  "num_magnetic_sites": null,
  "num_unique_magnetic_sites": null,
  "types_of_magnetic_species": null,
  "bulk_modulus": null,
  "shear_modulus": null,
  "universal_anisotropy": null,
  "homogeneous_poisson": null,
  "e_total": null,
  "e_ionic": null,
  "e_electronic": null,
  "n": null,
  "e_ij_max": null,
  "weighted_surface_energy_EV_PER_ANG2": null,
  "weighted_surface_energy": null,
  "weighted_work_function": null,
  "surface_anisotropy": null,
  "shape_factor": null,
  "has_reconstructed": null,
  "possible_species": null,
  "has_props": null,
  "theoretical": null,
  "database_IDs": null,
  "fields_not_requested": [
    "builder_meta",
    "nsites",
    "elements",
    "nelements",
    "composition",
    "composition_reduced",
    "chemsys",
    "symmetry",
    "property_name",
    "deprecated",
    "deprecation_reasons",
    "last_updated",
    "origins",
    "warnings",
    "task_ids",
    "uncorrected_energy_per_atom",
    "equilibrium_reaction_energy_per_atom",
    "decomposes_to",
    "xas",
    "grain_boundaries",
    "cbm",
    "vbm",
    "is_gap_direct",
    "is_metal",
    "es_source_calc_id",
    "bandstructure",
    "dos",
    "dos_energy_up",
    "dos_energy_down",
    "is_magnetic",
    "ordering",
    "total_magnetization_normalized_vol",
    "total_magnetization_normalized_formula_units",
    "num_magnetic_sites",
    "num_unique_magnetic_sites",
    "types_of_magnetic_species",
    "bulk_modulus",
    "shear_modulus",
    "universal_anisotropy",
    "homogeneous_poisson",
    "e_total",
    "e_ionic",
    "e_electronic",
    "n",
    "e_ij_max",
    "weighted_surface_energy_EV_PER_ANG2",
    "weighted_surface_energy",
    "weighted_work_function",
    "surface_anisotropy",
    "shape_factor",
    "has_reconstructed",
    "possible_species",
    "has_props",
    "theoretical",
    "database_IDs"
  ]
}
