{
  "builder_meta": null,
  "nsites": null,
  "elements": null,
  "nelements": null,
  "composition": null,
  "composition_reduced": null,
  "formula_pretty": "Tb6Br7",
  "formula_anonymous": "A6B7",
  "chemsys": null,
  "volume": 390.5430309916053,
  "density": 6.432572878725146,
  "density_atomic": 30.04177161473887,
  "symmetry": null,
  "property_name": null,
  "material_id": "mp-30985",
  "deprecated": null,
  "deprecation_reasons": null,
  "last_updated": null,
  "origins": null,
  "warnings": null,
  "structure": {
    "@module": "pymatgen.core.structure",
    "@class": "Structure",
    "charge": 0,
    "lattice": {
      "matrix": [
        [1.89806796, 10.52150748, 0.13887053],
        [-1.89806796, 10.52150748, 0.13887053],
        [0.0, 6.42944623, 9.8628411]
      ],
      "pbc": [true, true, true],
      "a": 10.692243293929343,
      "b": 10.692243293929343,
      "c": 11.773419783066874,
      "alpha": 56.75237706089586,
      "beta": 56.75237706089586,
      "gamma": 20.45047236719612,
      "volume": 390.5430309916053
    },
    "properties": {},
    "sites": [
      {
        "species": [{ "element": "Tb", "occu": 1 }],
        "abc": [0.87149573, 0.87149573, 0.56251853],
        "properties": { "magmom": 0.38 },
        "label": "Tb",
        "xyz": [0.0, 21.955580325979764, 5.790081025031256]
      },
      {
        "species": [{ "element": "Tb", "occu": 1 }],
        "abc": [0.12850427, 0.12850427, 0.43748147],
        "properties": { "magmom": 0.38 },
        "label": "Tb",
        "xyz": [0.0, 5.516880864020237, 4.350501134968743]
      },
      {
        "species": [{ "element": "Tb", "occu": 1 }],
        "abc": [0.68087228, 0.68087228, 0.64347981],
        "properties": { "magmom": 0.176 },
        "label": "Tb",
        "xyz": [0.0, 18.464824412374924, 6.535645305860008]
      },
      {
        "species": [{ "element": "Tb", "occu": 1 }],
        "abc": [0.31912772, 0.31912772, 0.35652019],
        "properties": { "magmom": 0.176 },
        "label": "Tb",
        "xyz": [0.0, 9.007636777625075, 3.6049368541399924]
      },
      {
        "species": [{ "element": "Tb", "occu": 1 }],
        "abc": [0.22939392, 0.22939392, 0.84322878],
        "properties": { "magmom": 0.04 },
        "label": "Tb",
        "xyz": [0.0, 10.248633790891542, 8.380343578585215]
      },
      {
        "species": [{ "element": "Tb", "occu": 1 }],
        "abc": [0.77060608, 0.77060608, 0.15677122000000002],
        "properties": { "magmom": 0.04 },
        "label": "Tb",
        "xyz": [0.0, 17.22382739910846, 1.760238581414787]
      },
      {
        "species": [{ "element": "Br", "occu": 1 }],
        "abc": [0.5, 0.5, 0.5],
        "properties": { "magmom": 0.015 },
        "label": "Br",
        "xyz": [0.0, 13.736230595, 5.0702910800000005]
      },
      {
        "species": [{ "element": "Br", "occu": 1 }],
        "abc": [0.94718226, 0.94718226, 0.27280782],
        "properties": { "magmom": 0.009000000000000001 },
        "label": "Br",
        "xyz": [0.0, 21.68557367684013, 2.953731584402998]
      },
      {
        "species": [{ "element": "Br", "occu": 1 }],
        "abc": [0.05281774, 0.05281774, 0.72719218],
        "properties": { "magmom": 0.009000000000000001 },
        "label": "Br",
        "xyz": [0.0, 5.786887513159872, 7.186850575597003]
      },
      {
        "species": [{ "element": "Br", "occu": 1 }],
        "abc": [0.83514458, 0.83514458, 0.84657833],
        "properties": { "magmom": 0.005 },
        "label": "Br",
        "xyz": [0.0, 23.016989742921112, 8.58162148839582]
      },
      {
        "species": [{ "element": "Br", "occu": 1 }],
        "abc": [0.16485542, 0.16485542, 0.15342167],
        "properties": { "magmom": 0.005 },
        "label": "Br",
        "xyz": [0.0, 4.455471447078887, 1.5589606716041824]
      },
      {
        "species": [{ "element": "Br", "occu": 1 }],
        "abc": [0.60581534, 0.60581534, 0.94267261],
        "properties": { "magmom": 0.003 },
        "label": "Br",
        "xyz": [0.0, 18.809044121106247, 9.465689956448132]
      },
      {
        "species": [{ "element": "Br", "occu": 1 }],
        "abc": [0.39418466, 0.39418466, 0.05732739],
        "properties": { "magmom": 0.003 },
        "label": "Br",
        "xyz": [0.0, 8.663417068893756, 0.6748922035518686]
      }
    ]
  },
  "task_ids": null,
  "uncorrected_energy_per_atom": null,
  "energy_per_atom": -4.594118876923075,
  "formation_energy_per_atom": -1.572133685769228,
  "energy_above_hull": 0.045527377478635,
  "is_stable": false,
  "equilibrium_reaction_energy_per_atom": null,
  "decomposes_to": null,
  "xas": null,
  "grain_boundaries": null,
  "band_gap": 0.0,
  "cbm": null,
  "vbm": null,
  "efermi": 3.32611516,
  "is_gap_direct": null,
  "is_metal": null,
  "es_source_calc_id": null,
  "bandstructure": null,
  "dos": null,
  "dos_energy_up": null,
  "dos_energy_down": null,
  "is_magnetic": null,
  "ordering": null,
  "total_magnetization": 1.803864,
  "total_magnetization_normalized_vol": null,
  "total_magnetization_normalized_formula_units": null,
  "num_magnetic_sites": null,
  "num_unique_magnetic_sites": null,
  "types_of_magnetic_species": null,
  "bulk_modulus": null,
  "shear_modulus": null,
  "universal_anisotropy": null,
  "homogeneous_poisson": null,
  "e_total": null,
  "e_ionic": null,
  "e_electronic": null,
  "n": null,
  "e_ij_max": null,
  "weighted_surface_energy_EV_PER_ANG2": null,
  "weighted_surface_energy": null,
  "weighted_work_function": null,
  "surface_anisotropy": null,
  "shape_factor": null,
  "has_reconstructed": null,
  "possible_species": null,
  "has_props": null,
  "theoretical": null,
  "database_IDs": null,
  "fields_not_requested": [
    "builder_meta",
    "nsites",
    "elements",
    "nelements",
    "composition",
    "composition_reduced",
    "chemsys",
    "symmetry",
    "property_name",
    "deprecated",
    "deprecation_reasons",
    "last_updated",
    "origins",
    "warnings",
    "task_ids",
    "uncorrected_energy_per_atom",
    "equilibrium_reaction_energy_per_atom",
    "decomposes_to",
    "xas",
    "grain_boundaries",
    "cbm",
    "vbm",
    "is_gap_direct",
    "is_metal",
    "es_source_calc_id",
    "bandstructure",
    "dos",
    "dos_energy_up",
    "dos_energy_down",
    "is_magnetic",
    "ordering",
    "total_magnetization_normalized_vol",
    "total_magnetization_normalized_formula_units",
    "num_magnetic_sites",
    "num_unique_magnetic_sites",
    "types_of_magnetic_species",
    "bulk_modulus",
    "shear_modulus",
    "universal_anisotropy",
    "homogeneous_poisson",
    "e_total",
    "e_ionic",
    "e_electronic",
    "n",
    "e_ij_max",
    "weighted_surface_energy_EV_PER_ANG2",
    "weighted_surface_energy",
    "weighted_work_function",
    "surface_anisotropy",
    "shape_factor",
    "has_reconstructed",
    "possible_species",
    "has_props",
    "theoretical",
    "database_IDs"
  ]
}
