{"builder_meta": null, "nsites": null, "elements": null, "nelements": null, "composition": null, "composition_reduced": null, "formula_pretty": "Tb7Rh3", "formula_anonymous": "A3B7", "chemsys": null, "volume": 515.3732870468792, "density": 9.158208756659528, "density_atomic": 25.76866435234396, "symmetry": null, "property_name": null, "material_id": "mp-1106174", "deprecated": null, "deprecation_reasons": null, "last_updated": null, "origins": null, "warnings": null, "structure": {"@module": "pymatgen.core.structure", "@class": "Structure", "charge": 0, "lattice": {"matrix": [[0.00010935, -3.609999999999999e-06, -6.19766051], [-4.89950308, -8.48621, 8.249000000000003e-05], [-4.89947442, 8.48619383, 9.175000000000003e-05]], "pbc": [true, true, true], "a": 6.197660510965724, "b": 9.799024982202774, "c": 9.798996648687174, "alpha": 120.00022492367353, "beta": 90.00107082827569, "gamma": 90.00095887946514, "volume": 515.3732870468792}, "properties": {}, "sites": [{"species": [{"element": "Tb", "occu": 1}], "abc": [0.46163455000000003, 0.33337882, 0.6666582600000001], "properties": {"magmom": 0.0}, "label": "Tb", "xyz": [-4.899615167410432, 2.8282668701576106, -2.860965554272404]}, {"species": [{"element": "Tb", "occu": 1}], "abc": [0.96164499, 0.6666261800000001, 0.33334821000000003], "properties": {"magmom": 0.0}, "label": "Tb", "xyz": [-4.899262894086767, -2.8282757035726704, -5.95986360447049]}, {"species": [{"element": "Tb", "occu": 1}], "abc": [0.25373777000000003, 0.12379201000000001, 0.87625385], "properties": {"magmom": -0.0}, "label": "Tb", "xyz": [-4.8996749115507585, 6.385534106208295, -1.5724899491308209]}, {"species": [{"element": "Tb", "occu": 1}], "abc": [0.25371549, 0.75242535, 0.87618774], "properties": {"magmom": -0.0}, "label": "Tb", "xyz": [-7.979341995253857, 1.0502585477732245, -1.5723000153560336]}, {"species": [{"element": "Tb", "occu": 1}], "abc": [0.25373475, 0.12383078, 0.24756667000000002], "properties": {"magmom": -0.0}, "label": "Tb", "xyz": [-1.8196281090234714, 1.0500438279413984, -1.572528911046708]}, {"species": [{"element": "Tb", "occu": 1}], "abc": [0.75373048, 0.87624599, 0.12373541], "properties": {"magmom": -0.0}, "label": "Tb", "xyz": [-4.8993259825578725, -6.385967530870413, -4.671281996823763]}, {"species": [{"element": "Tb", "occu": 1}], "abc": [0.753711599999999, 0.247532099999999, 0.12379482], "properties": {"magmom": -0.0}, "label": "Tb", "xyz": [-1.8192314219039076, -1.0500652655699072, -4.671216842151246]}, {"species": [{"element": "Tb", "occu": 1}], "abc": [0.75372346, 0.87620335, 0.75248224], "properties": {"magmom": -0.0}, "label": "Tb", "xyz": [-7.979646078755268, -1.0499382094726126, -4.671180805242703]}, {"species": [{"element": "Tb", "occu": 1}], "abc": [0.4420232, 0.54105695, 0.45894789], "properties": {"magmom": 0.0}, "label": "Tb", "xyz": [-4.899465304911459, -0.6968037429537337, -2.7394229908871193]}, {"species": [{"element": "Tb", "occu": 1}], "abc": [0.44208787, 0.917882099999999, 0.45894741], "properties": {"magmom": -0.0}, "label": "Tb", "xyz": [-6.745718929138531, -3.894625172741722, -2.7397927093297176]}, {"species": [{"element": "Tb", "occu": 1}], "abc": [0.44204673, 0.54105856, 0.0821266], "properties": {"magmom": 0.0}, "label": "Tb", "xyz": [-3.053246919272011, -3.894595912047416, -2.739603395059468]}, {"species": [{"element": "Tb", "occu": 1}], "abc": [0.94202544, 0.45887209, 0.54111076], "properties": {"magmom": 0.0}, "label": "Tb", "xyz": [-4.899300534805932, 0.6978824732678723, -5.83826636963244]}, {"species": [{"element": "Tb", "occu": 1}], "abc": [0.94209674, 0.08225265, 0.54111926], "properties": {"magmom": -0.0}, "label": "Tb", "xyz": [-3.054094066273972, 3.894026263580434, -5.838739329384534]}, {"species": [{"element": "Tb", "occu": 1}], "abc": [0.9420432, 0.45887031, 0.91774244], "properties": {"magmom": 0.0}, "label": "Tb", "xyz": [-6.744589093670021, 3.8940670176560936, -5.83834188427329]}, {"species": [{"element": "Rh", "occu": 1}], "abc": [0.18133765000000002, 0.81056257, 0.18941578], "properties": {"magmom": 0.0}, "label": "Rh", "xyz": [-4.899371747830036, -5.271185818247979, -1.1237849501769872]}, {"species": [{"element": "Rh", "occu": 1}], "abc": [0.18133392, 0.37887777, 0.18948629], "properties": {"magmom": 0.0}, "label": "Rh", "xyz": [-2.7846762029900813, -1.6072195900995605, -1.1237974361131444]}, {"species": [{"element": "Rh", "occu": 1}], "abc": [0.18135103, 0.81050908, 0.62113121], "properties": {"magmom": 0.0}, "label": "Rh", "xyz": [-7.014288377951484, -1.607111072541584, -1.1238282693962987]}, {"species": [{"element": "Rh", "occu": 1}], "abc": [0.68134121, 0.18950332, 0.81049277], "properties": {"magmom": -0.0}, "label": "Rh", "xyz": [-4.8993861895588555, 5.269831315174641, -4.222631516212104]}, {"species": [{"element": "Rh", "occu": 1}], "abc": [0.68134027, 0.62095936, 0.81042438], "properties": {"magmom": -0.0}, "label": "Rh", "xyz": [-7.012971311470663, 1.6078243831736012, -4.222590105877267]}, {"species": [{"element": "Rh", "occu": 1}], "abc": [0.68133964, 0.18956266, 0.37902798], "properties": {"magmom": 0.0}, "label": "Rh", "xyz": [-2.78572622450763, 1.6078339047186627, -4.222661367884629]}]}, "task_ids": null, "uncorrected_energy_per_atom": null, "energy_per_atom": -6.055130586500002, "formation_energy_per_atom": -0.5993336891666671, "energy_above_hull": 0.0, "is_stable": true, "equilibrium_reaction_energy_per_atom": null, "decomposes_to": null, "xas": null, "grain_boundaries": null, "band_gap": 0.0, "cbm": null, "vbm": null, "efermi": 3.9900721999999993, "is_gap_direct": null, "is_metal": null, "es_source_calc_id": null, "bandstructure": null, "dos": null, "dos_energy_up": null, "dos_energy_down": null, "is_magnetic": null, "ordering": null, "total_magnetization": 4.2e-06, "total_magnetization_normalized_vol": null, "total_magnetization_normalized_formula_units": null, "num_magnetic_sites": null, "num_unique_magnetic_sites": null, "types_of_magnetic_species": null, "bulk_modulus": null, "shear_modulus": null, "universal_anisotropy": null, "homogeneous_poisson": null, "e_total": null, "e_ionic": null, "e_electronic": null, "n": null, "e_ij_max": null, "weighted_surface_energy_EV_PER_ANG2": null, "weighted_surface_energy": null, "weighted_work_function": null, "surface_anisotropy": null, "shape_factor": null, "has_reconstructed": null, "possible_species": null, "has_props": null, "theoretical": null, "database_IDs": null, "fields_not_requested": ["builder_meta", "nsites", "elements", "nelements", "composition", "composition_reduced", "chemsys", "symmetry", "property_name", "deprecated", "deprecation_reasons", "last_updated", "origins", "warnings", "task_ids", "uncorrected_energy_per_atom", "equilibrium_reaction_energy_per_atom", "decomposes_to", "xas", "grain_boundaries", "cbm", "vbm", "is_gap_direct", "is_metal", "es_source_calc_id", "bandstructure", "dos", "dos_energy_up", "dos_energy_down", "is_magnetic", "ordering", "total_magnetization_normalized_vol", "total_magnetization_normalized_formula_units", "num_magnetic_sites", "num_unique_magnetic_sites", "types_of_magnetic_species", "bulk_modulus", "shear_modulus", "universal_anisotropy", "homogeneous_poisson", "e_total", "e_ionic", "e_electronic", "n", "e_ij_max", "weighted_surface_energy_EV_PER_ANG2", "weighted_surface_energy", "weighted_work_function", "surface_anisotropy", "shape_factor", "has_reconstructed", "possible_species", "has_props", "theoretical", "database_IDs"]}