{"builder_meta": null, "nsites": null, "elements": null, "nelements": null, "composition": null, "composition_reduced": null, "formula_pretty": "TbAl3", "formula_anonymous": "AB3", "chemsys": null, "volume": 156.4682731461171, "density": 5.091299866816359, "density_atomic": 19.558534143264637, "symmetry": null, "property_name": null, "material_id": "mp-867232", "deprecated": null, "deprecation_reasons": null, "last_updated": null, "origins": null, "warnings": null, "structure": {"@module": "pymatgen.core.structure", "@class": "Structure", "charge": 0, "lattice": {"matrix": [[6.27593254, 0.00080766, -1.1200000000000001e-05], [-3.13728269, 5.43541428, -2.265e-05], [1.295e-05, 2.526e-05, 4.58651812]], "pbc": [true, true, true], "a": 6.275932591979536, "b": 6.275848235315651, "c": 4.586518120087841, "alpha": 90.00001435939336, "beta": 89.99994043496302, "gamma": 119.98586486578716, "volume": 156.46827314611713}, "properties": {}, "sites": [{"species": [{"element": "Tb", "occu": 1}], "abc": [0.33340364, 0.66662287, 0.75000285], "properties": {"magmom": -0.0}, "label": "Tb", "xyz": [0.0010440749582330965, 3.623659688828457, 3.439882828447869]}, {"species": [{"element": "Tb", "occu": 1}], "abc": [0.6666049, 0.33338255, 0.25000169], "properties": {"magmom": 0.0}, "label": "Tb", "xyz": [3.137655317492272, 1.8126169781290375, 1.1466222641259851]}, {"species": [{"element": "Al", "occu": 1}], "abc": [0.70962834, 0.85484509, 0.24999217], "properties": {"magmom": 0.0}, "label": "Al", "xyz": [1.771692124222293, 4.6470166626011835, 1.146566307484424]}, {"species": [{"element": "Al", "occu": 1}], "abc": [0.14523492, 0.8547559, 0.25000538], "properties": {"magmom": -0.0}, "label": "Al", "xyz": [-1.7701230913034034, 4.646076040345638, 1.1466332186152466]}, {"species": [{"element": "Al", "occu": 1}], "abc": [0.85484237, 0.70961964, 0.75000274], "properties": {"magmom": 0.0}, "label": "Al", "xyz": [3.138665345933171, 3.8577860916822257, 3.4398755099402587]}, {"species": [{"element": "Al", "occu": 1}], "abc": [0.29037247, 0.14516563, 0.75000211], "properties": {"magmom": 0.0}, "label": "Al", "xyz": [1.3669421275385536, 0.7892888055496151, 3.4398917273800502]}, {"species": [{"element": "Al", "occu": 1}], "abc": [0.85476251, 0.14522816, 0.74998484], "properties": {"magmom": -0.0}, "label": "Al", "xyz": [4.908819770316203, 0.7900845168280098, 3.4398061956273644]}, {"species": [{"element": "Al", "occu": 1}], "abc": [0.14515485, 0.29038316000000003, 0.25000421], "properties": {"magmom": -0.0}, "label": "Al", "xyz": [-2.8777327161974706e-05, 1.5784763254080203, 1.1466406363283912]}]}, "task_ids": null, "uncorrected_energy_per_atom": null, "energy_per_atom": -13.34441760875, "formation_energy_per_atom": -0.48873532374999906, "energy_above_hull": 0.0, "is_stable": true, "equilibrium_reaction_energy_per_atom": null, "decomposes_to": null, "xas": null, "grain_boundaries": null, "band_gap": 0.0, "cbm": null, "vbm": null, "efermi": 5.89874738, "is_gap_direct": null, "is_metal": null, "es_source_calc_id": null, "bandstructure": null, "dos": null, "dos_energy_up": null, "dos_energy_down": null, "is_magnetic": null, "ordering": null, "total_magnetization": 0.0, "total_magnetization_normalized_vol": null, "total_magnetization_normalized_formula_units": null, "num_magnetic_sites": null, "num_unique_magnetic_sites": null, "types_of_magnetic_species": null, "bulk_modulus": null, "shear_modulus": null, "universal_anisotropy": null, "homogeneous_poisson": null, "e_total": null, "e_ionic": null, "e_electronic": null, "n": null, "e_ij_max": null, "weighted_surface_energy_EV_PER_ANG2": null, "weighted_surface_energy": null, "weighted_work_function": null, "surface_anisotropy": null, "shape_factor": null, "has_reconstructed": null, "possible_species": null, "has_props": null, "theoretical": null, "database_IDs": null, "fields_not_requested": ["builder_meta", "nsites", "elements", "nelements", "composition", "composition_reduced", "chemsys", "symmetry", "property_name", "deprecated", "deprecation_reasons", "last_updated", "origins", "warnings", "task_ids", "uncorrected_energy_per_atom", "equilibrium_reaction_energy_per_atom", "decomposes_to", "xas", "grain_boundaries", "cbm", "vbm", "is_gap_direct", "is_metal", "es_source_calc_id", "bandstructure", "dos", "dos_energy_up", "dos_energy_down", "is_magnetic", "ordering", "total_magnetization_normalized_vol", "total_magnetization_normalized_formula_units", "num_magnetic_sites", "num_unique_magnetic_sites", "types_of_magnetic_species", "bulk_modulus", "shear_modulus", "universal_anisotropy", "homogeneous_poisson", "e_total", "e_ionic", "e_electronic", "n", "e_ij_max", "weighted_surface_energy_EV_PER_ANG2", "weighted_surface_energy", "weighted_work_function", "surface_anisotropy", "shape_factor", "has_reconstructed", "possible_species", "has_props", "theoretical", "database_IDs"]}