{"builder_meta": null, "nsites": null, "elements": null, "nelements": null, "composition": null, "composition_reduced": null, "formula_pretty": "TbAl4", "formula_anonymous": "AB4", "chemsys": null, "volume": 188.35402659351675, "density": 4.705153970437435, "density_atomic": 18.835402659351676, "symmetry": null, "property_name": null, "material_id": "mp-1079618", "deprecated": null, "deprecation_reasons": null, "last_updated": null, "origins": null, "warnings": null, "structure": {"@module": "pymatgen.core.structure", "@class": "Structure", "charge": 0, "lattice": {"matrix": [[-2.206419, 3.12917977, 6.8201890800000005], [2.206419, -3.12917977, 6.8201890800000005], [2.206419, 3.12917977, -6.8201890800000005]], "pbc": [true, true, true], "a": 7.821446792217506, "b": 7.821446792217506, "c": 7.821446792217506, "alpha": 147.2290114529126, "beta": 132.83403474065412, "gamma": 58.61958619775768, "volume": 188.35402659351678}, "properties": {}, "sites": [{"species": [{"element": "Tb", "occu": 1}], "abc": [0.63724099, 0.88724099, 0.75], "properties": {"magmom": -0.0}, "label": "Tb", "xyz": [2.2064189999999995, 1.564589885, 5.2821135426527785]}, {"species": [{"element": "Tb", "occu": 1}], "abc": [0.36275901, 0.11275901, 0.25], "properties": {"magmom": -0.0}, "label": "Tb", "xyz": [1.1102230246251565e-16, 1.5645898850000002, 1.538075537347222]}, {"species": [{"element": "Al", "occu": 1}], "abc": [-0.0, 0.5, 0.5], "properties": {"magmom": 0.0}, "label": "Al", "xyz": [2.206419, 0.0, 0.0]}, {"species": [{"element": "Al", "occu": 1}], "abc": [0.5, 0.5, -0.0], "properties": {"magmom": 0.0}, "label": "Al", "xyz": [0.0, 0.0, 6.8201890800000005]}, {"species": [{"element": "Al", "occu": 1}], "abc": [0.86339676, 0.11339676, 0.75], "properties": {"magmom": -0.0}, "label": "Al", "xyz": [0.0, 4.693769655, 1.5467746885187612]}, {"species": [{"element": "Al", "occu": 1}], "abc": [0.13660324000000001, 0.88660324, 0.25], "properties": {"magmom": -0.0}, "label": "Al", "xyz": [2.206419, -1.5645898849999997, 5.273414391481239]}, {"species": [{"element": "Al", "occu": 1}], "abc": [0.16105893000000002, 0.69825506, 0.46280387], "properties": {"magmom": -0.0}, "label": "Al", "xyz": [2.2064190000000004, -0.2327867550365803, 2.70427399053349]}, {"species": [{"element": "Al", "occu": 1}], "abc": [0.8389410700000001, 0.30174494, 0.53719613], "properties": {"magmom": -0.0}, "label": "Al", "xyz": [0.0, 3.3619665250365807, 4.115915089466512]}, {"species": [{"element": "Al", "occu": 1}], "abc": [0.26454881, 0.30174494, 0.96280387], "properties": {"magmom": -0.0}, "label": "Al", "xyz": [2.206419, 2.89639301496342, -2.7042739905334896]}, {"species": [{"element": "Al", "occu": 1}], "abc": [0.73545119, 0.69825506, 0.03719613], "properties": {"magmom": -0.0}, "label": "Al", "xyz": [1.5265566588595902e-16, 0.23278675503658003, 9.524463070533491]}]}, "task_ids": null, "uncorrected_energy_per_atom": null, "energy_per_atom": -12.007310563, "formation_energy_per_atom": -0.37634506899999903, "energy_above_hull": 0.014643189999997001, "is_stable": false, "equilibrium_reaction_energy_per_atom": null, "decomposes_to": null, "xas": null, "grain_boundaries": null, "band_gap": 0.0, "cbm": null, "vbm": null, "efermi": 6.48563411, "is_gap_direct": null, "is_metal": null, "es_source_calc_id": null, "bandstructure": null, "dos": null, "dos_energy_up": null, "dos_energy_down": null, "is_magnetic": null, "ordering": null, "total_magnetization": 0.0, "total_magnetization_normalized_vol": null, "total_magnetization_normalized_formula_units": null, "num_magnetic_sites": null, "num_unique_magnetic_sites": null, "types_of_magnetic_species": null, "bulk_modulus": null, "shear_modulus": null, "universal_anisotropy": null, "homogeneous_poisson": null, "e_total": null, "e_ionic": null, "e_electronic": null, "n": null, "e_ij_max": null, "weighted_surface_energy_EV_PER_ANG2": null, "weighted_surface_energy": null, "weighted_work_function": null, "surface_anisotropy": null, "shape_factor": null, "has_reconstructed": null, "possible_species": null, "has_props": null, "theoretical": null, "database_IDs": null, "fields_not_requested": ["builder_meta", "nsites", "elements", "nelements", "composition", "composition_reduced", "chemsys", "symmetry", "property_name", "deprecated", "deprecation_reasons", "last_updated", "origins", "warnings", "task_ids", "uncorrected_energy_per_atom", "equilibrium_reaction_energy_per_atom", "decomposes_to", "xas", "grain_boundaries", "cbm", "vbm", "is_gap_direct", "is_metal", "es_source_calc_id", "bandstructure", "dos", "dos_energy_up", "dos_energy_down", "is_magnetic", "ordering", "total_magnetization_normalized_vol", "total_magnetization_normalized_formula_units", "num_magnetic_sites", "num_unique_magnetic_sites", "types_of_magnetic_species", "bulk_modulus", "shear_modulus", "universal_anisotropy", "homogeneous_poisson", "e_total", "e_ionic", "e_electronic", "n", "e_ij_max", "weighted_surface_energy_EV_PER_ANG2", "weighted_surface_energy", "weighted_work_function", "surface_anisotropy", "shape_factor", "has_reconstructed", "possible_species", "has_props", "theoretical", "database_IDs"]}