{
  "builder_meta": null,
  "nsites": null,
  "elements": null,
  "nelements": null,
  "composition": null,
  "composition_reduced": null,
  "formula_pretty": "TbAl",
  "formula_anonymous": "AB",
  "chemsys": null,
  "volume": 375.0432404608942,
  "density": 6.58496126240767,
  "density_atomic": 23.440202528805887,
  "symmetry": null,
  "property_name": null,
  "material_id": "mp-11225",
  "deprecated": null,
  "deprecation_reasons": null,
  "last_updated": null,
  "origins": null,
  "warnings": null,
  "structure": {
    "@module": "pymatgen.core.structure",
    "@class": "Structure",
    "charge": 0,
    "lattice": {
      "matrix": [
        [5.62146619, -0.0, 0.0],
        [-0.0, 5.83130166, -1.579e-5],
        [1.02e-6, -3.493e-5, 11.44105915]
      ],
      "pbc": [true, true, true],
      "a": 5.62146619,
      "b": 5.831301660021378,
      "c": 11.441059150053364,
      "alpha": 90.00033007177564,
      "beta": 89.99999489193313,
      "gamma": 90.0,
      "volume": 375.0432404608942
    },
    "properties": {},
    "sites": [
      {
        "species": [{ "element": "Tb", "occu": 1 }],
        "abc": [0.250001, 0.16341935, 0.01416602],
        "properties": { "magmom": -0.0 },
        "label": "Tb",
        "xyz": [1.4053721834155302, 0.9529470321120423, 0.1620716923485465]
      },
      {
        "species": [{ "element": "Tb", "occu": 1 }],
        "abc": [0.749999, 0.83658065, 0.98583498],
        "properties": { "magmom": -0.0 },
        "label": "Tb",
        "xyz": [4.216095026585489, 4.878319697853028, 11.278983108710603]
      },
      {
        "species": [{ "element": "Tb", "occu": 1 }],
        "abc": [0.749999, 0.163401, 0.48583001000000003],
        "properties": { "magmom": -0.0 },
        "label": "Tb",
        "xyz": [4.216094516580419, 0.9528235525034107, 5.558407301153301]
      },
      {
        "species": [{ "element": "Tb", "occu": 1 }],
        "abc": [0.250001, 0.836599, 0.51416999],
        "properties": { "magmom": -0.0 },
        "label": "Tb",
        "xyz": [1.4053726934195796, 4.87844317749659, 5.882636058846698]
      },
      {
        "species": [{ "element": "Tb", "occu": 1 }],
        "abc": [0.250001, 0.40369247, 0.33306163],
        "properties": { "magmom": 0.0 },
        "label": "Tb",
        "xyz": [1.4053725086890523, 2.3540409365977646, 3.8105714351213127]
      },
      {
        "species": [{ "element": "Tb", "occu": 1 }],
        "abc": [0.749999, 0.59630753, 0.66693837],
        "properties": { "magmom": 0.0 },
        "label": "Tb",
        "xyz": [4.216094701310947, 3.477225793402236, 7.6304719248786865]
      },
      {
        "species": [{ "element": "Tb", "occu": 1 }],
        "abc": [0.749999, 0.40367296, 0.16694198],
        "properties": { "magmom": 0.0 },
        "label": "Tb",
        "xyz": [4.216094191314629, 2.353932970461752, 1.9099866938020784]
      },
      {
        "species": [{ "element": "Tb", "occu": 1 }],
        "abc": [0.250001, 0.59632704, 0.8330580200000001],
        "properties": { "magmom": 0.0 },
        "label": "Tb",
        "xyz": [1.4053730186853701, 3.477333759538248, 9.531056666197921]
      },
      {
        "species": [{ "element": "Al", "occu": 1 }],
        "abc": [-1.3330000000000001e-5, 0.9323352500000001, 0.25000724],
        "properties": { "magmom": 0.0 },
        "label": "Al",
        "xyz": [-7.46791369279e-5, 5.436719358248622, 2.8603328991946486]
      },
      {
        "species": [{ "element": "Al", "occu": 1 }],
        "abc": [0.49998667, 0.06766475, 0.74999276],
        "properties": { "magmom": 0.0 },
        "label": "Al",
        "xyz": [2.810658925848302, 0.3945473717513782, 8.580710460805351]
      },
      {
        "species": [{ "element": "Al", "occu": 1 }],
        "abc": [1.3330000000000001e-5, 0.06766475, 0.74999276],
        "properties": { "magmom": 0.0 },
        "label": "Al",
        "xyz": [7.56991369279e-5, 0.3945473717513782, 8.580710460805351]
      },
      {
        "species": [{ "element": "Al", "occu": 1 }],
        "abc": [0.50001333, 0.9323352500000001, 0.25000724],
        "properties": { "magmom": 0.0 },
        "label": "Al",
        "xyz": [2.8108082841516975, 5.436719358248622, 2.8603328991946486]
      },
      {
        "species": [{ "element": "Al", "occu": 1 }],
        "abc": [0.25, 0.664222, 0.09918485],
        "properties": { "magmom": 0.0 },
        "label": "Al",
        "xyz": [1.405366648668547, 3.87327538668171, 1.1347692475684976]
      },
      {
        "species": [{ "element": "Al", "occu": 1 }],
        "abc": [0.75, 0.335777999999999, 0.90081515],
        "properties": { "magmom": 0.0 },
        "label": "Al",
        "xyz": [4.216100561331452, 1.957991343318285, 10.306274112431502]
      },
      {
        "species": [{ "element": "Al", "occu": 1 }],
        "abc": [0.75, 0.66420066, 0.40080145],
        "properties": { "magmom": 0.0 },
        "label": "Al",
        "xyz": [4.216100051317479, 3.8731404112364474, 4.5855826091273455]
      },
      {
        "species": [{ "element": "Al", "occu": 1 }],
        "abc": [0.25, 0.33579934, 0.59919855],
        "properties": { "magmom": 0.0 },
        "label": "Al",
        "xyz": [1.405367158682521, 1.958126318763553, 6.855460750872654]
      }
    ]
  },
  "task_ids": null,
  "uncorrected_energy_per_atom": null,
  "energy_per_atom": -19.464839743125,
  "formation_energy_per_atom": -0.48557350312499903,
  "energy_above_hull": 0.0,
  "is_stable": true,
  "equilibrium_reaction_energy_per_atom": null,
  "decomposes_to": null,
  "xas": null,
  "grain_boundaries": null,
  "band_gap": 0.0,
  "cbm": null,
  "vbm": null,
  "efermi": 4.70791835,
  "is_gap_direct": null,
  "is_metal": null,
  "es_source_calc_id": null,
  "bandstructure": null,
  "dos": null,
  "dos_energy_up": null,
  "dos_energy_down": null,
  "is_magnetic": null,
  "ordering": null,
  "total_magnetization": 2e-7,
  "total_magnetization_normalized_vol": null,
  "total_magnetization_normalized_formula_units": null,
  "num_magnetic_sites": null,
  "num_unique_magnetic_sites": null,
  "types_of_magnetic_species": null,
  "bulk_modulus": null,
  "shear_modulus": null,
  "universal_anisotropy": null,
  "homogeneous_poisson": null,
  "e_total": null,
  "e_ionic": null,
  "e_electronic": null,
  "n": null,
  "e_ij_max": null,
  "weighted_surface_energy_EV_PER_ANG2": null,
  "weighted_surface_energy": null,
  "weighted_work_function": null,
  "surface_anisotropy": null,
  "shape_factor": null,
  "has_reconstructed": null,
  "possible_species": null,
  "has_props": null,
  "theoretical": null,
  "database_IDs": null,
  "fields_not_requested": [
    "builder_meta",
    "nsites",
    "elements",
    "nelements",
    "composition",
    "composition_reduced",
    "chemsys",
    "symmetry",
    "property_name",
    "deprecated",
    "deprecation_reasons",
    "last_updated",
    "origins",
    "warnings",
    "task_ids",
    "uncorrected_energy_per_atom",
    "equilibrium_reaction_energy_per_atom",
    "decomposes_to",
    "xas",
    "grain_boundaries",
    "cbm",
    "vbm",
    "is_gap_direct",
    "is_metal",
    "es_source_calc_id",
    "bandstructure",
    "dos",
    "dos_energy_up",
    "dos_energy_down",
    "is_magnetic",
    "ordering",
    "total_magnetization_normalized_vol",
    "total_magnetization_normalized_formula_units",
    "num_magnetic_sites",
    "num_unique_magnetic_sites",
    "types_of_magnetic_species",
    "bulk_modulus",
    "shear_modulus",
    "universal_anisotropy",
    "homogeneous_poisson",
    "e_total",
    "e_ionic",
    "e_electronic",
    "n",
    "e_ij_max",
    "weighted_surface_energy_EV_PER_ANG2",
    "weighted_surface_energy",
    "weighted_work_function",
    "surface_anisotropy",
    "shape_factor",
    "has_reconstructed",
    "possible_species",
    "has_props",
    "theoretical",
    "database_IDs"
  ]
}
