{"builder_meta": null, "nsites": null, "elements": null, "nelements": null, "composition": null, "composition_reduced": null, "formula_pretty": "TbAu3", "formula_anonymous": "AB3", "chemsys": null, "volume": 159.47437697175587, "density": 15.615220750912115, "density_atomic": 19.934297121469484, "symmetry": null, "property_name": null, "material_id": "mp-1025478", "deprecated": null, "deprecation_reasons": null, "last_updated": null, "origins": null, "warnings": null, "structure": {"@module": "pymatgen.core.structure", "@class": "Structure", "charge": 0, "lattice": {"matrix": [[0.0, -5.00920306, 0.0], [-6.24779167, 0.0, 0.0], [0.0, 0.0, -5.09560479]], "pbc": [true, true, true], "a": 5.00920306, "b": 6.24779167, "c": 5.09560479, "alpha": 90.0, "beta": 90.0, "gamma": 90.0, "volume": 159.47437697175587}, "properties": {}, "sites": [{"species": [{"element": "Tb", "occu": 1}], "abc": [-0.0, 0.0, 0.34421642], "properties": {"magmom": 0.0}, "label": "Tb", "xyz": [0.0, 0.0, -1.753990838548652]}, {"species": [{"element": "Tb", "occu": 1}], "abc": [0.5, 0.5, 0.65578358], "properties": {"magmom": 0.0}, "label": "Tb", "xyz": [-3.123895835, -2.50460153, -3.3416139514513485]}, {"species": [{"element": "Au", "occu": 1}], "abc": [0.5, 0.0, 0.66850464], "properties": {"magmom": 0.0}, "label": "Au", "xyz": [0.0, -2.50460153, -3.406435445721226]}, {"species": [{"element": "Au", "occu": 1}], "abc": [0.0, 0.5, 0.33149536], "properties": {"magmom": 0.0}, "label": "Au", "xyz": [-3.123895835, 0.0, -1.6891693442787745]}, {"species": [{"element": "Au", "occu": 1}], "abc": [-0.0, 0.74158416, 0.83891359], "properties": {"magmom": 0.0}, "label": "Au", "xyz": [-4.633263337451948, 0.0, -4.274772107600096]}, {"species": [{"element": "Au", "occu": 1}], "abc": [0.0, 0.25841584, 0.83891359], "properties": {"magmom": 0.0}, "label": "Au", "xyz": [-1.6145283325480528, 0.0, -4.274772107600096]}, {"species": [{"element": "Au", "occu": 1}], "abc": [0.5, 0.7584158400000001, 0.16108641], "properties": {"magmom": 0.0}, "label": "Au", "xyz": [-4.738424167548053, -2.50460153, -0.820832682399904]}, {"species": [{"element": "Au", "occu": 1}], "abc": [0.5, 0.24158416, 0.16108641], "properties": {"magmom": 0.0}, "label": "Au", "xyz": [-1.509367502451947, -2.50460153, -0.820832682399904]}]}, "task_ids": null, "uncorrected_energy_per_atom": null, "energy_per_atom": -4.328531438749998, "formation_energy_per_atom": -0.7136540329166641, "energy_above_hull": 0.0, "is_stable": true, "equilibrium_reaction_energy_per_atom": null, "decomposes_to": null, "xas": null, "grain_boundaries": null, "band_gap": 0.0, "cbm": null, "vbm": null, "efermi": 4.87793196, "is_gap_direct": null, "is_metal": null, "es_source_calc_id": null, "bandstructure": null, "dos": null, "dos_energy_up": null, "dos_energy_down": null, "is_magnetic": null, "ordering": null, "total_magnetization": 0.0, "total_magnetization_normalized_vol": null, "total_magnetization_normalized_formula_units": null, "num_magnetic_sites": null, "num_unique_magnetic_sites": null, "types_of_magnetic_species": null, "bulk_modulus": null, "shear_modulus": null, "universal_anisotropy": null, "homogeneous_poisson": null, "e_total": null, "e_ionic": null, "e_electronic": null, "n": null, "e_ij_max": null, "weighted_surface_energy_EV_PER_ANG2": null, "weighted_surface_energy": null, "weighted_work_function": null, "surface_anisotropy": null, "shape_factor": null, "has_reconstructed": null, "possible_species": null, "has_props": null, "theoretical": null, "database_IDs": null, "fields_not_requested": ["builder_meta", "nsites", "elements", "nelements", "composition", "composition_reduced", "chemsys", "symmetry", "property_name", "deprecated", "deprecation_reasons", "last_updated", "origins", "warnings", "task_ids", "uncorrected_energy_per_atom", "equilibrium_reaction_energy_per_atom", "decomposes_to", "xas", "grain_boundaries", "cbm", "vbm", "is_gap_direct", "is_metal", "es_source_calc_id", "bandstructure", "dos", "dos_energy_up", "dos_energy_down", "is_magnetic", "ordering", "total_magnetization_normalized_vol", "total_magnetization_normalized_formula_units", "num_magnetic_sites", "num_unique_magnetic_sites", "types_of_magnetic_species", "bulk_modulus", "shear_modulus", "universal_anisotropy", "homogeneous_poisson", "e_total", "e_ionic", "e_electronic", "n", "e_ij_max", "weighted_surface_energy_EV_PER_ANG2", "weighted_surface_energy", "weighted_work_function", "surface_anisotropy", "shape_factor", "has_reconstructed", "possible_species", "has_props", "theoretical", "database_IDs"]}