{
  "builder_meta": null,
  "nsites": null,
  "elements": null,
  "nelements": null,
  "composition": null,
  "composition_reduced": null,
  "formula_pretty": "TbB4",
  "formula_anonymous": "AB4",
  "chemsys": null,
  "volume": 203.56427130635953,
  "density": 6.596640983994539,
  "density_atomic": 10.178213565317977,
  "symmetry": null,
  "property_name": null,
  "material_id": "mp-568225",
  "deprecated": null,
  "deprecation_reasons": null,
  "last_updated": null,
  "origins": null,
  "warnings": null,
  "structure": {
    "@module": "pymatgen.core.structure",
    "@class": "Structure",
    "charge": 0,
    "lattice": {
      "matrix": [
        [4.02548072, 0.0, 0.0],
        [-0.0, 7.11118377, 0.0],
        [0.0, 0.0, 7.11118377]
      ],
      "pbc": [true, true, true],
      "a": 4.02548072,
      "b": 7.11118377,
      "c": 7.11118377,
      "alpha": 90.0,
      "beta": 90.0,
      "gamma": 90.0,
      "volume": 203.56427130635953
    },
    "properties": {},
    "sites": [
      {
        "species": [{ "element": "Tb", "occu": 1 }],
        "abc": [-0.0, 0.31750002, 0.81750002],
        "properties": { "magmom": 0.0 },
        "label": "Tb",
        "xyz": [0.0, 2.2578009891986754, 5.813392874198676]
      },
      {
        "species": [{ "element": "Tb", "occu": 1 }],
        "abc": [0.0, 0.18249998, 0.31750002],
        "properties": { "magmom": 0.0 },
        "label": "Tb",
        "xyz": [0.0, 1.2977908958013247, 2.2578009891986754]
      },
      {
        "species": [{ "element": "Tb", "occu": 1 }],
        "abc": [-0.0, 0.81750002, 0.68249998],
        "properties": { "magmom": 0.0 },
        "label": "Tb",
        "xyz": [0.0, 5.813392874198676, 4.853382780801325]
      },
      {
        "species": [{ "element": "Tb", "occu": 1 }],
        "abc": [0.0, 0.68249998, 0.18249998],
        "properties": { "magmom": 0.0 },
        "label": "Tb",
        "xyz": [0.0, 4.853382780801325, 1.2977908958013247]
      },
      {
        "species": [{ "element": "B", "occu": 1 }],
        "abc": [0.5, 0.32437603, 0.53847678],
        "properties": { "magmom": -0.0 },
        "label": "B",
        "xyz": [2.01274036, 2.306697559913033, 3.8292073384578607]
      },
      {
        "species": [{ "element": "B", "occu": 1 }],
        "abc": [0.5, 0.03847778, 0.82437603],
        "properties": { "magmom": -0.0 },
        "label": "B",
        "xyz": [2.01274036, 0.27362256464163065, 5.862289444913033]
      },
      {
        "species": [{ "element": "B", "occu": 1 }],
        "abc": [0.5, 0.17562397, 0.03847778],
        "properties": { "magmom": -0.0 },
        "label": "B",
        "xyz": [2.01274036, 1.2488943250869668, 0.27362256464163065]
      },
      {
        "species": [{ "element": "B", "occu": 1 }],
        "abc": [0.5, 0.46152222, 0.32437603],
        "properties": { "magmom": -0.0 },
        "label": "B",
        "xyz": [2.01274036, 3.2819693203583693, 2.306697559913033]
      },
      {
        "species": [{ "element": "B", "occu": 1 }],
        "abc": [0.5, 0.53847678, 0.67562397],
        "properties": { "magmom": -0.0 },
        "label": "B",
        "xyz": [2.01274036, 3.8292073384578607, 4.804486210086967]
      },
      {
        "species": [{ "element": "B", "occu": 1 }],
        "abc": [0.79688536, 0.5, 0.5],
        "properties": { "magmom": 0.0 },
        "label": "B",
        "xyz": [3.207846652730259, 3.555591885, 3.555591885]
      },
      {
        "species": [{ "element": "B", "occu": 1 }],
        "abc": [0.5, 0.82437603, 0.96152322],
        "properties": { "magmom": -0.0 },
        "label": "B",
        "xyz": [2.01274036, 5.862289444913033, 6.83756831654214]
      },
      {
        "species": [{ "element": "B", "occu": 1 }],
        "abc": [0.5, 0.08721773000000001, 0.58721773],
        "properties": { "magmom": 0.0 },
        "label": "B",
        "xyz": [2.01274036, 0.6202213060322421, 4.175813191032242]
      },
      {
        "species": [{ "element": "B", "occu": 1 }],
        "abc": [0.5, 0.91278227, 0.41278227],
        "properties": { "magmom": 0.0 },
        "label": "B",
        "xyz": [2.01274036, 6.490962463967758, 2.935370578967758]
      },
      {
        "species": [{ "element": "B", "occu": 1 }],
        "abc": [0.5, 0.41278227, 0.08721773000000001],
        "properties": { "magmom": 0.0 },
        "label": "B",
        "xyz": [2.01274036, 2.935370578967758, 0.6202213060322421]
      },
      {
        "species": [{ "element": "B", "occu": 1 }],
        "abc": [0.5, 0.67562397, 0.46152222],
        "properties": { "magmom": -0.0 },
        "label": "B",
        "xyz": [2.01274036, 4.804486210086967, 3.2819693203583693]
      },
      {
        "species": [{ "element": "B", "occu": 1 }],
        "abc": [0.5, 0.96152322, 0.17562397],
        "properties": { "magmom": -0.0 },
        "label": "B",
        "xyz": [2.01274036, 6.83756831654214, 1.2488943250869668]
      },
      {
        "species": [{ "element": "B", "occu": 1 }],
        "abc": [0.79688536, -0.0, -0.0],
        "properties": { "magmom": 0.0 },
        "label": "B",
        "xyz": [3.207846652730259, 0.0, 0.0]
      },
      {
        "species": [{ "element": "B", "occu": 1 }],
        "abc": [0.20311464, 0.5, 0.5],
        "properties": { "magmom": 0.0 },
        "label": "B",
        "xyz": [0.8176340672697409, 3.555591885, 3.555591885]
      },
      {
        "species": [{ "element": "B", "occu": 1 }],
        "abc": [0.5, 0.58721773, 0.91278227],
        "properties": { "magmom": 0.0 },
        "label": "B",
        "xyz": [2.01274036, 4.175813191032242, 6.490962463967758]
      },
      {
        "species": [{ "element": "B", "occu": 1 }],
        "abc": [0.20311464, -0.0, -0.0],
        "properties": { "magmom": 0.0 },
        "label": "B",
        "xyz": [0.8176340672697409, 0.0, 0.0]
      }
    ]
  },
  "task_ids": null,
  "uncorrected_energy_per_atom": null,
  "energy_per_atom": -12.7962515605,
  "formation_energy_per_atom": -0.6738813725,
  "energy_above_hull": 0.0,
  "is_stable": true,
  "equilibrium_reaction_energy_per_atom": null,
  "decomposes_to": null,
  "xas": null,
  "grain_boundaries": null,
  "band_gap": 0.0,
  "cbm": null,
  "vbm": null,
  "efermi": 5.92258972,
  "is_gap_direct": null,
  "is_metal": null,
  "es_source_calc_id": null,
  "bandstructure": null,
  "dos": null,
  "dos_energy_up": null,
  "dos_energy_down": null,
  "is_magnetic": null,
  "ordering": null,
  "total_magnetization": 0.0,
  "total_magnetization_normalized_vol": null,
  "total_magnetization_normalized_formula_units": null,
  "num_magnetic_sites": null,
  "num_unique_magnetic_sites": null,
  "types_of_magnetic_species": null,
  "bulk_modulus": null,
  "shear_modulus": null,
  "universal_anisotropy": null,
  "homogeneous_poisson": null,
  "e_total": null,
  "e_ionic": null,
  "e_electronic": null,
  "n": null,
  "e_ij_max": null,
  "weighted_surface_energy_EV_PER_ANG2": null,
  "weighted_surface_energy": null,
  "weighted_work_function": null,
  "surface_anisotropy": null,
  "shape_factor": null,
  "has_reconstructed": null,
  "possible_species": null,
  "has_props": null,
  "theoretical": null,
  "database_IDs": null,
  "fields_not_requested": [
    "builder_meta",
    "nsites",
    "elements",
    "nelements",
    "composition",
    "composition_reduced",
    "chemsys",
    "symmetry",
    "property_name",
    "deprecated",
    "deprecation_reasons",
    "last_updated",
    "origins",
    "warnings",
    "task_ids",
    "uncorrected_energy_per_atom",
    "equilibrium_reaction_energy_per_atom",
    "decomposes_to",
    "xas",
    "grain_boundaries",
    "cbm",
    "vbm",
    "is_gap_direct",
    "is_metal",
    "es_source_calc_id",
    "bandstructure",
    "dos",
    "dos_energy_up",
    "dos_energy_down",
    "is_magnetic",
    "ordering",
    "total_magnetization_normalized_vol",
    "total_magnetization_normalized_formula_units",
    "num_magnetic_sites",
    "num_unique_magnetic_sites",
    "types_of_magnetic_species",
    "bulk_modulus",
    "shear_modulus",
    "universal_anisotropy",
    "homogeneous_poisson",
    "e_total",
    "e_ionic",
    "e_electronic",
    "n",
    "e_ij_max",
    "weighted_surface_energy_EV_PER_ANG2",
    "weighted_surface_energy",
    "weighted_work_function",
    "surface_anisotropy",
    "shape_factor",
    "has_reconstructed",
    "possible_species",
    "has_props",
    "theoretical",
    "database_IDs"
  ]
}
