{
  "builder_meta": null,
  "nsites": null,
  "elements": null,
  "nelements": null,
  "composition": null,
  "composition_reduced": null,
  "formula_pretty": "TbBr",
  "formula_anonymous": "AB",
  "chemsys": null,
  "volume": 127.78659971535146,
  "density": 6.206996145278,
  "density_atomic": 31.946649928837864,
  "symmetry": null,
  "property_name": null,
  "material_id": "mp-27924",
  "deprecated": null,
  "deprecation_reasons": null,
  "last_updated": null,
  "origins": null,
  "warnings": null,
  "structure": {
    "@module": "pymatgen.core.structure",
    "@class": "Structure",
    "charge": 0,
    "lattice": {
      "matrix": [
        [10.13502324, -1.913497, -0.06863777],
        [10.13502324, 1.913497, -0.06863777],
        [9.79608123, -0.0, 3.22825834]
      ],
      "pbc": [true, true, true],
      "a": 10.314304532435509,
      "b": 10.314304532435509,
      "c": 10.314303630131212,
      "alpha": 21.382753634530154,
      "beta": 21.382753634530154,
      "gamma": 21.382757607758542,
      "volume": 127.78659971535146
    },
    "properties": {},
    "sites": [
      {
        "species": [{ "element": "Tb", "occu": 1 }],
        "abc": [0.87904135, 0.87904135, 0.87904135],
        "properties": { "magmom": -0.524 },
        "label": "Tb",
        "xyz": [26.429369491470812, 0.0, 2.71710169333878]
      },
      {
        "species": [{ "element": "Tb", "occu": 1 }],
        "abc": [0.12095865, 0.12095865, 0.12095865],
        "properties": { "magmom": -0.524 },
        "label": "Tb",
        "xyz": [3.6367582185291916, 0.0, 0.37388110666122]
      },
      {
        "species": [{ "element": "Br", "occu": 1 }],
        "abc": [0.60848228, 0.60848228, 0.60848228],
        "properties": { "magmom": -0.018000000000000002 },
        "label": "Br",
        "xyz": [18.29470593975198, 0.0, 1.880808261584784]
      },
      {
        "species": [{ "element": "Br", "occu": 1 }],
        "abc": [0.39151772, 0.39151772, 0.39151772],
        "properties": { "magmom": -0.018000000000000002 },
        "label": "Br",
        "xyz": [11.771421770248022, 0.0, 1.210174538415216]
      }
    ]
  },
  "task_ids": null,
  "uncorrected_energy_per_atom": null,
  "energy_per_atom": -4.628040985000002,
  "formation_energy_per_atom": -1.490635905833334,
  "energy_above_hull": 0.011477938611110001,
  "is_stable": false,
  "equilibrium_reaction_energy_per_atom": null,
  "decomposes_to": null,
  "xas": null,
  "grain_boundaries": null,
  "band_gap": 0.0,
  "cbm": null,
  "vbm": null,
  "efermi": 2.47796269,
  "is_gap_direct": null,
  "is_metal": null,
  "es_source_calc_id": null,
  "bandstructure": null,
  "dos": null,
  "dos_energy_up": null,
  "dos_energy_down": null,
  "is_magnetic": null,
  "ordering": null,
  "total_magnetization": 1.6736876,
  "total_magnetization_normalized_vol": null,
  "total_magnetization_normalized_formula_units": null,
  "num_magnetic_sites": null,
  "num_unique_magnetic_sites": null,
  "types_of_magnetic_species": null,
  "bulk_modulus": null,
  "shear_modulus": null,
  "universal_anisotropy": null,
  "homogeneous_poisson": null,
  "e_total": null,
  "e_ionic": null,
  "e_electronic": null,
  "n": null,
  "e_ij_max": null,
  "weighted_surface_energy_EV_PER_ANG2": null,
  "weighted_surface_energy": null,
  "weighted_work_function": null,
  "surface_anisotropy": null,
  "shape_factor": null,
  "has_reconstructed": null,
  "possible_species": null,
  "has_props": null,
  "theoretical": null,
  "database_IDs": null,
  "fields_not_requested": [
    "builder_meta",
    "nsites",
    "elements",
    "nelements",
    "composition",
    "composition_reduced",
    "chemsys",
    "symmetry",
    "property_name",
    "deprecated",
    "deprecation_reasons",
    "last_updated",
    "origins",
    "warnings",
    "task_ids",
    "uncorrected_energy_per_atom",
    "equilibrium_reaction_energy_per_atom",
    "decomposes_to",
    "xas",
    "grain_boundaries",
    "cbm",
    "vbm",
    "is_gap_direct",
    "is_metal",
    "es_source_calc_id",
    "bandstructure",
    "dos",
    "dos_energy_up",
    "dos_energy_down",
    "is_magnetic",
    "ordering",
    "total_magnetization_normalized_vol",
    "total_magnetization_normalized_formula_units",
    "num_magnetic_sites",
    "num_unique_magnetic_sites",
    "types_of_magnetic_species",
    "bulk_modulus",
    "shear_modulus",
    "universal_anisotropy",
    "homogeneous_poisson",
    "e_total",
    "e_ionic",
    "e_electronic",
    "n",
    "e_ij_max",
    "weighted_surface_energy_EV_PER_ANG2",
    "weighted_surface_energy",
    "weighted_work_function",
    "surface_anisotropy",
    "shape_factor",
    "has_reconstructed",
    "possible_species",
    "has_props",
    "theoretical",
    "database_IDs"
  ]
}
