{"builder_meta": null, "nsites": null, "elements": null, "nelements": null, "composition": null, "composition_reduced": null, "formula_pretty": "TbBr3", "formula_anonymous": "AB3", "chemsys": null, "volume": 324.4291431151911, "density": 4.08072398629038, "density_atomic": 40.55364288939889, "symmetry": null, "property_name": null, "material_id": "mp-863746", "deprecated": null, "deprecation_reasons": null, "last_updated": null, "origins": null, "warnings": null, "structure": {"@module": "pymatgen.core.structure", "@class": "Structure", "charge": 0, "lattice": {"matrix": [[9.98231699, -1e-08, 0.0], [-4.99116001, 8.64494393, -0.0], [-0.0, 0.0, 3.75946739]], "pbc": [true, true, true], "a": 9.98231699, "b": 9.9823210626721, "c": 3.75946739, "alpha": 90.0, "beta": 90.0, "gamma": 119.99999660215728, "volume": 324.4291431151911}, "properties": {}, "sites": [{"species": [{"element": "Tb", "occu": 1}], "abc": [0.333333, 0.666667, 0.750002], "properties": {"magmom": 0.0}, "label": "Tb", "xyz": [-6.001159000401657e-06, 5.7632988316479805, 2.81960806143478]}, {"species": [{"element": "Tb", "occu": 1}], "abc": [0.666666, 0.333333, 0.25], "properties": {"magmom": 0.0}, "label": "Tb", "xyz": [4.99115299884201, 2.88164508835203, 0.9398668475]}, {"species": [{"element": "Br", "occu": 1}], "abc": [0.21123628, 0.42247056, 0.25], "properties": {"magmom": -0.0}, "label": "Br", "xyz": [9.342274091217462e-06, 3.6522343011633382, 0.9398668475]}, {"species": [{"element": "Br", "occu": 1}], "abc": [0.5775294400000001, 0.7887637200000001, 0.25], "properties": {"magmom": -0.0}, "label": "Br", "xyz": [1.828236004534348, 6.818818127642926, 0.9398668475]}, {"species": [{"element": "Br", "occu": 1}], "abc": [0.21123728, 0.7887637200000001, 0.25], "properties": {"magmom": -0.0}, "label": "Br", "xyz": [-1.8282084475374503, 6.818818131305847, 0.9398668475]}, {"species": [{"element": "Br", "occu": 1}], "abc": [0.78876272, 0.5775294400000001, 0.750002], "properties": {"magmom": -0.0}, "label": "Br", "xyz": [4.9911376554089175, 4.992709618836672, 2.81960806143478]}, {"species": [{"element": "Br", "occu": 1}], "abc": [0.42247156, 0.21123728, 0.750002], "properties": {"magmom": -0.0}, "label": "Br", "xyz": [3.162925966622632, 1.8261344373009947, 2.81960806143478]}, {"species": [{"element": "Br", "occu": 1}], "abc": [0.7887637200000001, 0.21123728, 0.750002], "properties": {"magmom": -0.0}, "label": "Br", "xyz": [6.81937041869443, 1.8261344336380732, 2.81960806143478]}]}, "task_ids": null, "uncorrected_energy_per_atom": null, "energy_per_atom": -4.640346573750001, "formation_energy_per_atom": -2.253170766666668, "energy_above_hull": 0.0, "is_stable": true, "equilibrium_reaction_energy_per_atom": null, "decomposes_to": null, "xas": null, "grain_boundaries": null, "band_gap": 2.8564, "cbm": null, "vbm": null, "efermi": -1.8331869200000002, "is_gap_direct": null, "is_metal": null, "es_source_calc_id": null, "bandstructure": null, "dos": null, "dos_energy_up": null, "dos_energy_down": null, "is_magnetic": null, "ordering": null, "total_magnetization": 0.0, "total_magnetization_normalized_vol": null, "total_magnetization_normalized_formula_units": null, "num_magnetic_sites": null, "num_unique_magnetic_sites": null, "types_of_magnetic_species": null, "bulk_modulus": null, "shear_modulus": null, "universal_anisotropy": null, "homogeneous_poisson": null, "e_total": null, "e_ionic": null, "e_electronic": null, "n": null, "e_ij_max": null, "weighted_surface_energy_EV_PER_ANG2": null, "weighted_surface_energy": null, "weighted_work_function": null, "surface_anisotropy": null, "shape_factor": null, "has_reconstructed": null, "possible_species": null, "has_props": null, "theoretical": null, "database_IDs": null, "fields_not_requested": ["builder_meta", "nsites", "elements", "nelements", "composition", "composition_reduced", "chemsys", "symmetry", "property_name", "deprecated", "deprecation_reasons", "last_updated", "origins", "warnings", "task_ids", "uncorrected_energy_per_atom", "equilibrium_reaction_energy_per_atom", "decomposes_to", "xas", "grain_boundaries", "cbm", "vbm", "is_gap_direct", "is_metal", "es_source_calc_id", "bandstructure", "dos", "dos_energy_up", "dos_energy_down", "is_magnetic", "ordering", "total_magnetization_normalized_vol", "total_magnetization_normalized_formula_units", "num_magnetic_sites", "num_unique_magnetic_sites", "types_of_magnetic_species", "bulk_modulus", "shear_modulus", "universal_anisotropy", "homogeneous_poisson", "e_total", "e_ionic", "e_electronic", "n", "e_ij_max", "weighted_surface_energy_EV_PER_ANG2", "weighted_surface_energy", "weighted_work_function", "surface_anisotropy", "shape_factor", "has_reconstructed", "possible_species", "has_props", "theoretical", "database_IDs"]}