{"builder_meta": null, "nsites": null, "elements": null, "nelements": null, "composition": null, "composition_reduced": null, "formula_pretty": "TbC2", "formula_anonymous": "AB2", "chemsys": null, "volume": 42.188094797034196, "density": 7.200851968879615, "density_atomic": 14.062698265678065, "symmetry": null, "property_name": null, "material_id": "mp-2119", "deprecated": null, "deprecation_reasons": null, "last_updated": null, "origins": null, "warnings": null, "structure": {"@module": "pymatgen.core.structure", "@class": "Structure", "charge": 0, "lattice": {"matrix": [[3.27971442, 0.0, -1.67397104], [-0.85439695, 3.16646963, -1.6739710300000001], [0.00374231, 0.00488537, 4.05719583]], "pbc": [true, true, true], "a": 3.682214784544027, "b": 3.6822144254729245, "c": 4.0572004972263285, "alpha": 116.98697297488178, "beta": 116.98696277004608, "gamma": 89.99999565296477, "volume": 42.188094797034196}, "properties": {}, "sites": [{"species": [{"element": "Tb", "occu": 1}], "abc": [-0.0, 0.0, 0.0], "properties": {"magmom": 0.0}, "label": "Tb", "xyz": [0.0, 0.0, 0.0]}, {"species": [{"element": "C", "occu": 1}], "abc": [0.60402884, 0.60402884, 0.20805967], "properties": {"magmom": 0.0}, "label": "C", "xyz": [1.4657403218194727, 1.9136554259741572, -1.1781147394141227]}, {"species": [{"element": "C", "occu": 1}], "abc": [0.39597116, 0.39597116, 0.79194033], "properties": {"magmom": 0.0}, "label": "C", "xyz": [0.9633194581805274, 1.2576995740258428, 1.8873684994141229]}]}, "task_ids": null, "uncorrected_energy_per_atom": null, "energy_per_atom": -7.884681969999999, "formation_energy_per_atom": -0.186283767222221, "energy_above_hull": 0.043770546041667004, "is_stable": false, "equilibrium_reaction_energy_per_atom": null, "decomposes_to": null, "xas": null, "grain_boundaries": null, "band_gap": 0.0, "cbm": null, "vbm": null, "efermi": 4.40364321, "is_gap_direct": null, "is_metal": null, "es_source_calc_id": null, "bandstructure": null, "dos": null, "dos_energy_up": null, "dos_energy_down": null, "is_magnetic": null, "ordering": null, "total_magnetization": 0.0, "total_magnetization_normalized_vol": null, "total_magnetization_normalized_formula_units": null, "num_magnetic_sites": null, "num_unique_magnetic_sites": null, "types_of_magnetic_species": null, "bulk_modulus": null, "shear_modulus": null, "universal_anisotropy": null, "homogeneous_poisson": null, "e_total": null, "e_ionic": null, "e_electronic": null, "n": null, "e_ij_max": null, "weighted_surface_energy_EV_PER_ANG2": null, "weighted_surface_energy": null, "weighted_work_function": null, "surface_anisotropy": null, "shape_factor": null, "has_reconstructed": null, "possible_species": null, "has_props": null, "theoretical": null, "database_IDs": null, "fields_not_requested": ["builder_meta", "nsites", "elements", "nelements", "composition", "composition_reduced", "chemsys", "symmetry", "property_name", "deprecated", "deprecation_reasons", "last_updated", "origins", "warnings", "task_ids", "uncorrected_energy_per_atom", "equilibrium_reaction_energy_per_atom", "decomposes_to", "xas", "grain_boundaries", "cbm", "vbm", "is_gap_direct", "is_metal", "es_source_calc_id", "bandstructure", "dos", "dos_energy_up", "dos_energy_down", "is_magnetic", "ordering", "total_magnetization_normalized_vol", "total_magnetization_normalized_formula_units", "num_magnetic_sites", "num_unique_magnetic_sites", "types_of_magnetic_species", "bulk_modulus", "shear_modulus", "universal_anisotropy", "homogeneous_poisson", "e_total", "e_ionic", "e_electronic", "n", "e_ij_max", "weighted_surface_energy_EV_PER_ANG2", "weighted_surface_energy", "weighted_work_function", "surface_anisotropy", "shape_factor", "has_reconstructed", "possible_species", "has_props", "theoretical", "database_IDs"]}