{
  "builder_meta": null,
  "nsites": null,
  "elements": null,
  "nelements": null,
  "composition": null,
  "composition_reduced": null,
  "formula_pretty": "TbCl",
  "formula_anonymous": "AB",
  "chemsys": null,
  "volume": 118.453049366198,
  "density": 5.449802189193032,
  "density_atomic": 29.6132623415495,
  "symmetry": null,
  "property_name": null,
  "material_id": "mp-27923",
  "deprecated": null,
  "deprecation_reasons": null,
  "last_updated": null,
  "origins": null,
  "warnings": null,
  "structure": {
    "@module": "pymatgen.core.structure",
    "@class": "Structure",
    "charge": 0,
    "lattice": {
      "matrix": [
        [9.684738, -1.88501, 0.0],
        [9.684738, 1.88501, 0.0],
        [9.317845, 0.0, 3.244253]
      ],
      "pbc": [true, true, true],
      "a": 9.866479251928927,
      "b": 9.866479251928927,
      "c": 9.866479259190383,
      "alpha": 22.028361037247358,
      "beta": 22.028361037247358,
      "gamma": 22.028361123008583,
      "volume": 118.453049366198
    },
    "properties": {},
    "sites": [
      {
        "species": [{ "element": "Tb", "occu": 1 }],
        "abc": [0.215365, 0.215365, 0.215365],
        "properties": { "magmom": 0.505 },
        "label": "Tb",
        "xyz": [6.1782448871649995, 0.0, 0.698698547345]
      },
      {
        "species": [{ "element": "Tb", "occu": 1 }],
        "abc": [0.784635, 0.784635, 0.784635],
        "properties": { "magmom": 0.505 },
        "label": "Tb",
        "xyz": [22.509076112834997, 0.0, 2.545554452655]
      },
      {
        "species": [{ "element": "Cl", "occu": 1 }],
        "abc": [0.391034999999999, 0.391034999999999, 0.391034999999999],
        "properties": { "magmom": 0.009000000000000001 },
        "label": "Cl",
        "xyz": [11.217746567234972, 0.0, 1.2686164718549968]
      },
      {
        "species": [{ "element": "Cl", "occu": 1 }],
        "abc": [0.608965, 0.608965, 0.608965],
        "properties": { "magmom": 0.009000000000000001 },
        "label": "Cl",
        "xyz": [17.469574432765, 0.0, 1.975636528145]
      }
    ]
  },
  "task_ids": null,
  "uncorrected_energy_per_atom": null,
  "energy_per_atom": -20.363447717499994,
  "formation_energy_per_atom": -1.674011193749994,
  "energy_above_hull": 0.071820185833335,
  "is_stable": false,
  "equilibrium_reaction_energy_per_atom": null,
  "decomposes_to": null,
  "xas": null,
  "grain_boundaries": null,
  "band_gap": 0.0,
  "cbm": null,
  "vbm": null,
  "efermi": 2.87011491,
  "is_gap_direct": null,
  "is_metal": null,
  "es_source_calc_id": null,
  "bandstructure": null,
  "dos": null,
  "dos_energy_up": null,
  "dos_energy_down": null,
  "is_magnetic": null,
  "ordering": null,
  "total_magnetization": 1.574593699999999,
  "total_magnetization_normalized_vol": null,
  "total_magnetization_normalized_formula_units": null,
  "num_magnetic_sites": null,
  "num_unique_magnetic_sites": null,
  "types_of_magnetic_species": null,
  "bulk_modulus": null,
  "shear_modulus": null,
  "universal_anisotropy": null,
  "homogeneous_poisson": null,
  "e_total": null,
  "e_ionic": null,
  "e_electronic": null,
  "n": null,
  "e_ij_max": null,
  "weighted_surface_energy_EV_PER_ANG2": null,
  "weighted_surface_energy": null,
  "weighted_work_function": null,
  "surface_anisotropy": null,
  "shape_factor": null,
  "has_reconstructed": null,
  "possible_species": null,
  "has_props": null,
  "theoretical": null,
  "database_IDs": null,
  "fields_not_requested": [
    "builder_meta",
    "nsites",
    "elements",
    "nelements",
    "composition",
    "composition_reduced",
    "chemsys",
    "symmetry",
    "property_name",
    "deprecated",
    "deprecation_reasons",
    "last_updated",
    "origins",
    "warnings",
    "task_ids",
    "uncorrected_energy_per_atom",
    "equilibrium_reaction_energy_per_atom",
    "decomposes_to",
    "xas",
    "grain_boundaries",
    "cbm",
    "vbm",
    "is_gap_direct",
    "is_metal",
    "es_source_calc_id",
    "bandstructure",
    "dos",
    "dos_energy_up",
    "dos_energy_down",
    "is_magnetic",
    "ordering",
    "total_magnetization_normalized_vol",
    "total_magnetization_normalized_formula_units",
    "num_magnetic_sites",
    "num_unique_magnetic_sites",
    "types_of_magnetic_species",
    "bulk_modulus",
    "shear_modulus",
    "universal_anisotropy",
    "homogeneous_poisson",
    "e_total",
    "e_ionic",
    "e_electronic",
    "n",
    "e_ij_max",
    "weighted_surface_energy_EV_PER_ANG2",
    "weighted_surface_energy",
    "weighted_work_function",
    "surface_anisotropy",
    "shape_factor",
    "has_reconstructed",
    "possible_species",
    "has_props",
    "theoretical",
    "database_IDs"
  ]
}
