{"builder_meta": null, "nsites": null, "elements": null, "nelements": null, "composition": null, "composition_reduced": null, "formula_pretty": "TbCl3", "formula_anonymous": "AB3", "chemsys": null, "volume": 197.9334778737647, "density": 4.451142188422853, "density_atomic": 24.741684734220588, "symmetry": null, "property_name": null, "material_id": "mp-23293", "deprecated": null, "deprecation_reasons": null, "last_updated": null, "origins": null, "warnings": null, "structure": {"@module": "pymatgen.core.structure", "@class": "Structure", "charge": 0, "lattice": {"matrix": [[3.8179389500000003, -1e-08, 0.0], [-1.908971, 6.0776258, -0.0], [0.0, -0.0, 8.53014315]], "pbc": [true, true, true], "a": 3.8179389500000003, "b": 6.370377197911175, "c": 8.53014315, "alpha": 90.0, "beta": 90.0, "gamma": 107.43740731364191, "volume": 197.9334778737647}, "properties": {}, "sites": [{"species": [{"element": "Tb", "occu": 1}], "abc": [0.75799541, 0.51599182, 0.25], "properties": {"magmom": -0.0}, "label": "Tb", "xyz": [1.9089667791429998, 3.136005190241002, 2.1325357875]}, {"species": [{"element": "Tb", "occu": 1}], "abc": [0.24200459, 0.48400818, 0.75], "properties": {"magmom": -0.0}, "label": "Tb", "xyz": [1.1708570005763974e-06, 2.941620599758998, 6.3976073625000005]}, {"species": [{"element": "Cl", "occu": 1}], "abc": [0.15068908, 0.30137816, 0.06747565], "properties": {"magmom": 0.0}, "label": "Cl", "xyz": [-4.5960169392511574e-07, 1.8316636792656371, 0.5755769536392975]}, {"species": [{"element": "Cl", "occu": 1}], "abc": [0.84931092, 0.69862184, 0.93252435], "properties": {"magmom": 0.0}, "label": "Cl", "xyz": [1.908968409601694, 4.245962110734363, 7.9545661963607035]}, {"species": [{"element": "Cl", "occu": 1}], "abc": [0.58917406, 0.17834611, 0.75], "properties": {"magmom": -0.0}, "label": "Cl", "xyz": [1.9089730400508276, 1.0839209135738974, 6.3976073625000005]}, {"species": [{"element": "Cl", "occu": 1}], "abc": [0.41082594, 0.82165389, 0.25], "properties": {"magmom": -0.0}, "label": "Cl", "xyz": [-5.090050827050163e-06, 4.9937048764261025, 2.1325357875]}, {"species": [{"element": "Cl", "occu": 1}], "abc": [0.15068908, 0.30137816, 0.43252435], "properties": {"magmom": 0.0}, "label": "Cl", "xyz": [-4.5960169392511574e-07, 1.8316636792656371, 3.6894946213607027]}, {"species": [{"element": "Cl", "occu": 1}], "abc": [0.84931092, 0.69862184, 0.56747565], "properties": {"magmom": 0.0}, "label": "Cl", "xyz": [1.908968409601694, 4.245962110734363, 4.8406485286392975]}]}, "task_ids": null, "uncorrected_energy_per_atom": null, "energy_per_atom": -14.9603354, "formation_energy_per_atom": -2.539397689374999, "energy_above_hull": 0.0, "is_stable": true, "equilibrium_reaction_energy_per_atom": null, "decomposes_to": null, "xas": null, "grain_boundaries": null, "band_gap": 3.7966, "cbm": null, "vbm": null, "efermi": 0.27179751, "is_gap_direct": null, "is_metal": null, "es_source_calc_id": null, "bandstructure": null, "dos": null, "dos_energy_up": null, "dos_energy_down": null, "is_magnetic": null, "ordering": null, "total_magnetization": 0.0, "total_magnetization_normalized_vol": null, "total_magnetization_normalized_formula_units": null, "num_magnetic_sites": null, "num_unique_magnetic_sites": null, "types_of_magnetic_species": null, "bulk_modulus": null, "shear_modulus": null, "universal_anisotropy": null, "homogeneous_poisson": null, "e_total": null, "e_ionic": null, "e_electronic": null, "n": null, "e_ij_max": null, "weighted_surface_energy_EV_PER_ANG2": null, "weighted_surface_energy": null, "weighted_work_function": null, "surface_anisotropy": null, "shape_factor": null, "has_reconstructed": null, "possible_species": null, "has_props": null, "theoretical": null, "database_IDs": null, "fields_not_requested": ["builder_meta", "nsites", "elements", "nelements", "composition", "composition_reduced", "chemsys", "symmetry", "property_name", "deprecated", "deprecation_reasons", "last_updated", "origins", "warnings", "task_ids", "uncorrected_energy_per_atom", "equilibrium_reaction_energy_per_atom", "decomposes_to", "xas", "grain_boundaries", "cbm", "vbm", "is_gap_direct", "is_metal", "es_source_calc_id", "bandstructure", "dos", "dos_energy_up", "dos_energy_down", "is_magnetic", "ordering", "total_magnetization_normalized_vol", "total_magnetization_normalized_formula_units", "num_magnetic_sites", "num_unique_magnetic_sites", "types_of_magnetic_species", "bulk_modulus", "shear_modulus", "universal_anisotropy", "homogeneous_poisson", "e_total", "e_ionic", "e_electronic", "n", "e_ij_max", "weighted_surface_energy_EV_PER_ANG2", "weighted_surface_energy", "weighted_work_function", "surface_anisotropy", "shape_factor", "has_reconstructed", "possible_species", "has_props", "theoretical", "database_IDs"]}