{
  "builder_meta": null,
  "nsites": null,
  "elements": null,
  "nelements": null,
  "composition": null,
  "composition_reduced": null,
  "formula_pretty": "TbCo3",
  "formula_anonymous": "AB3",
  "chemsys": null,
  "volume": 174.32620454294877,
  "density": 9.59381359206782,
  "density_atomic": 14.527183711912398,
  "symmetry": null,
  "property_name": null,
  "material_id": "mp-1095562",
  "deprecated": null,
  "deprecation_reasons": null,
  "last_updated": null,
  "origins": null,
  "warnings": null,
  "structure": {
    "@module": "pymatgen.core.structure",
    "@class": "Structure",
    "charge": 0,
    "lattice": {
      "matrix": [
        [8.259639, -2.487358, 0.0],
        [8.259639, 2.487358, 0.0],
        [7.510582, 0.0, 4.242612]
      ],
      "pbc": [true, true, true],
      "a": 8.6260411679104,
      "b": 8.6260411679104,
      "c": 8.626041882652089,
      "alpha": 33.518932900392066,
      "beta": 33.518932900392066,
      "gamma": 33.518938854050226,
      "volume": 174.32620454294877
    },
    "properties": {},
    "sites": [
      {
        "species": [{ "element": "Tb", "occu": 1 }],
        "abc": [0.860333, 0.860333, 0.860333],
        "properties": { "magmom": -0.392 },
        "label": "Tb",
        "xyz": [20.67368154338, 0.0, 3.6500591097960005]
      },
      {
        "species": [{ "element": "Tb", "occu": 1 }],
        "abc": [0.13966699999999901, 0.13966699999999901, 0.13966699999999901],
        "properties": { "magmom": -0.392 },
        "label": "Tb",
        "xyz": [3.3561784566199764, 0.0, 0.5925528902039958]
      },
      {
        "species": [{ "element": "Tb", "occu": 1 }],
        "abc": [0.0, 0.0, 0.0],
        "properties": { "magmom": -0.31 },
        "label": "Tb",
        "xyz": [0.0, 0.0, 0.0]
      },
      {
        "species": [{ "element": "Co", "occu": 1 }],
        "abc": [0.419670999999999, 0.918524, 0.419670999999999],
        "properties": { "magmom": 1.2570000000000001 },
        "label": "Co",
        "xyz": [14.204981070126983, 1.2408260003740026, 1.780501220651996]
      },
      {
        "species": [{ "element": "Co", "occu": 1 }],
        "abc": [0.419670999999999, 0.419670999999999, 0.918524],
        "properties": { "magmom": 1.2570000000000001 },
        "label": "Co",
        "xyz": [13.831311738505985, 0.0, 3.896940944688]
      },
      {
        "species": [{ "element": "Co", "occu": 1 }],
        "abc": [0.918524, 0.419670999999999, 0.419670999999999],
        "properties": { "magmom": 1.2570000000000001 },
        "label": "Co",
        "xyz": [14.204981070126983, -1.2408260003740026, 1.780501220651996]
      },
      {
        "species": [{ "element": "Co", "occu": 1 }],
        "abc": [0.580329, 0.08147599999999901, 0.580329],
        "properties": { "magmom": 1.2570000000000001 },
        "label": "Co",
        "xyz": [9.824878929872991, -1.2408260003740024, 2.462110779348]
      },
      {
        "species": [{ "element": "Co", "occu": 1 }],
        "abc": [0.580329, 0.580329, 0.08147599999999901],
        "properties": { "magmom": 1.2570000000000001 },
        "label": "Co",
        "xyz": [10.198548261493992, 0.0, 0.3456710553119958]
      },
      {
        "species": [{ "element": "Co", "occu": 1 }],
        "abc": [0.08147599999999901, 0.580329, 0.580329],
        "properties": { "magmom": 1.2570000000000001 },
        "label": "Co",
        "xyz": [9.824878929872991, 1.2408260003740024, 2.462110779348]
      },
      {
        "species": [{ "element": "Co", "occu": 1 }],
        "abc": [0.666701, 0.666701, 0.666701],
        "properties": { "magmom": 1.461 },
        "label": "Co",
        "xyz": [16.02073169186, 0.0, 2.8285536630120003]
      },
      {
        "species": [{ "element": "Co", "occu": 1 }],
        "abc": [0.333299, 0.333299, 0.333299],
        "properties": { "magmom": 1.461 },
        "label": "Co",
        "xyz": [8.00912830814, 0.0, 1.4140583369880002]
      },
      {
        "species": [{ "element": "Co", "occu": 1 }],
        "abc": [0.5, 0.5, 0.5],
        "properties": { "magmom": 1.1400000000000001 },
        "label": "Co",
        "xyz": [12.01493, 0.0, 2.121306]
      }
    ]
  },
  "task_ids": null,
  "uncorrected_energy_per_atom": null,
  "energy_per_atom": -6.650108934999999,
  "formation_energy_per_atom": -0.14058048916666602,
  "energy_above_hull": 0.0,
  "is_stable": true,
  "equilibrium_reaction_energy_per_atom": null,
  "decomposes_to": null,
  "xas": null,
  "grain_boundaries": null,
  "band_gap": 0.0,
  "cbm": null,
  "vbm": null,
  "efermi": 4.54797497,
  "is_gap_direct": null,
  "is_metal": null,
  "es_source_calc_id": null,
  "bandstructure": null,
  "dos": null,
  "dos_energy_up": null,
  "dos_energy_down": null,
  "is_magnetic": null,
  "ordering": null,
  "total_magnetization": 10.1770251,
  "total_magnetization_normalized_vol": null,
  "total_magnetization_normalized_formula_units": null,
  "num_magnetic_sites": null,
  "num_unique_magnetic_sites": null,
  "types_of_magnetic_species": null,
  "bulk_modulus": null,
  "shear_modulus": null,
  "universal_anisotropy": null,
  "homogeneous_poisson": null,
  "e_total": null,
  "e_ionic": null,
  "e_electronic": null,
  "n": null,
  "e_ij_max": null,
  "weighted_surface_energy_EV_PER_ANG2": null,
  "weighted_surface_energy": null,
  "weighted_work_function": null,
  "surface_anisotropy": null,
  "shape_factor": null,
  "has_reconstructed": null,
  "possible_species": null,
  "has_props": null,
  "theoretical": null,
  "database_IDs": null,
  "fields_not_requested": [
    "builder_meta",
    "nsites",
    "elements",
    "nelements",
    "composition",
    "composition_reduced",
    "chemsys",
    "symmetry",
    "property_name",
    "deprecated",
    "deprecation_reasons",
    "last_updated",
    "origins",
    "warnings",
    "task_ids",
    "uncorrected_energy_per_atom",
    "equilibrium_reaction_energy_per_atom",
    "decomposes_to",
    "xas",
    "grain_boundaries",
    "cbm",
    "vbm",
    "is_gap_direct",
    "is_metal",
    "es_source_calc_id",
    "bandstructure",
    "dos",
    "dos_energy_up",
    "dos_energy_down",
    "is_magnetic",
    "ordering",
    "total_magnetization_normalized_vol",
    "total_magnetization_normalized_formula_units",
    "num_magnetic_sites",
    "num_unique_magnetic_sites",
    "types_of_magnetic_species",
    "bulk_modulus",
    "shear_modulus",
    "universal_anisotropy",
    "homogeneous_poisson",
    "e_total",
    "e_ionic",
    "e_electronic",
    "n",
    "e_ij_max",
    "weighted_surface_energy_EV_PER_ANG2",
    "weighted_surface_energy",
    "weighted_work_function",
    "surface_anisotropy",
    "shape_factor",
    "has_reconstructed",
    "possible_species",
    "has_props",
    "theoretical",
    "database_IDs"
  ]
}
