{"builder_meta": null, "nsites": null, "elements": null, "nelements": null, "composition": null, "composition_reduced": null, "formula_pretty": "TbCo2", "formula_anonymous": "AB2", "chemsys": null, "volume": 91.99073732779252, "density": 9.992821254261802, "density_atomic": 15.331789554632087, "symmetry": null, "property_name": null, "material_id": "mp-2265", "deprecated": null, "deprecation_reasons": null, "last_updated": null, "origins": null, "warnings": null, "structure": {"@module": "pymatgen.core.structure", "@class": "Structure", "charge": 0, "lattice": {"matrix": [[4.38557762, -0.00492066, 2.53204742], [1.45951564, 4.13553014, 2.53210273], [-0.00696301, -0.00485722, 5.06406568]], "pbc": [true, true, true], "a": 5.064047729935843, "b": 5.064024059730214, "c": 5.0640727964207075, "alpha": 60.076872058900115, "beta": 60.07842650934133, "gamma": 60.078283790075574, "volume": 91.99073732779252}, "properties": {}, "sites": [{"species": [{"element": "Tb", "occu": 1}], "abc": [0.87488955, 0.87490259, 0.87490525], "properties": {"magmom": -0.553}, "label": "Tb", "xyz": [5.107738070028576, 3.609631389217555, 8.861182714262352]}, {"species": [{"element": "Tb", "occu": 1}], "abc": [0.12511045, 0.12509741, 0.12509475], "properties": {"magmom": -0.553}, "label": "Tb", "xyz": [0.7303921799714239, 0.5161208707824453, 1.2670331157376484]}, {"species": [{"element": "Co", "occu": 1}], "abc": [0.5, 0.0, 0.5], "properties": {"magmom": 1.3900000000000001}, "label": "Co", "xyz": [2.1893073050000003, -0.00488894, 3.79805655]}, {"species": [{"element": "Co", "occu": 1}], "abc": [0.0, 0.5, 0.5], "properties": {"magmom": 1.3900000000000001}, "label": "Co", "xyz": [0.726276315, 2.06533646, 3.798084205]}, {"species": [{"element": "Co", "occu": 1}], "abc": [0.5, 0.5, 0.5], "properties": {"magmom": 1.4}, "label": "Co", "xyz": [2.9190651250000004, 2.0628761300000003, 5.064107914999999]}, {"species": [{"element": "Co", "occu": 1}], "abc": [0.5, 0.5, -0.0], "properties": {"magmom": 1.3900000000000001}, "label": "Co", "xyz": [2.9225466300000003, 2.06530474, 2.532075075]}]}, "task_ids": null, "uncorrected_energy_per_atom": null, "energy_per_atom": -6.466324743333335, "formation_energy_per_atom": -0.164759055555557, "energy_above_hull": 0.0, "is_stable": true, "equilibrium_reaction_energy_per_atom": null, "decomposes_to": null, "xas": null, "grain_boundaries": null, "band_gap": 0.0, "cbm": null, "vbm": null, "efermi": 4.90580337, "is_gap_direct": null, "is_metal": null, "es_source_calc_id": null, "bandstructure": null, "dos": null, "dos_energy_up": null, "dos_energy_down": null, "is_magnetic": null, "ordering": null, "total_magnetization": 4.0724612, "total_magnetization_normalized_vol": null, "total_magnetization_normalized_formula_units": null, "num_magnetic_sites": null, "num_unique_magnetic_sites": null, "types_of_magnetic_species": null, "bulk_modulus": null, "shear_modulus": null, "universal_anisotropy": null, "homogeneous_poisson": null, "e_total": null, "e_ionic": null, "e_electronic": null, "n": null, "e_ij_max": null, "weighted_surface_energy_EV_PER_ANG2": null, "weighted_surface_energy": null, "weighted_work_function": null, "surface_anisotropy": null, "shape_factor": null, "has_reconstructed": null, "possible_species": null, "has_props": null, "theoretical": null, "database_IDs": null, "fields_not_requested": ["builder_meta", "nsites", "elements", "nelements", "composition", "composition_reduced", "chemsys", "symmetry", "property_name", "deprecated", "deprecation_reasons", "last_updated", "origins", "warnings", "task_ids", "uncorrected_energy_per_atom", "equilibrium_reaction_energy_per_atom", "decomposes_to", "xas", "grain_boundaries", "cbm", "vbm", "is_gap_direct", "is_metal", "es_source_calc_id", "bandstructure", "dos", "dos_energy_up", "dos_energy_down", "is_magnetic", "ordering", "total_magnetization_normalized_vol", "total_magnetization_normalized_formula_units", "num_magnetic_sites", "num_unique_magnetic_sites", "types_of_magnetic_species", "bulk_modulus", "shear_modulus", "universal_anisotropy", "homogeneous_poisson", "e_total", "e_ionic", "e_electronic", "n", "e_ij_max", "weighted_surface_energy_EV_PER_ANG2", "weighted_surface_energy", "weighted_work_function", "surface_anisotropy", "shape_factor", "has_reconstructed", "possible_species", "has_props", "theoretical", "database_IDs"]}