{
  "builder_meta": null,
  "nsites": null,
  "elements": null,
  "nelements": null,
  "composition": null,
  "composition_reduced": null,
  "formula_pretty": "TbCu2",
  "formula_anonymous": "AB2",
  "chemsys": null,
  "volume": 105.44285297359178,
  "density": 9.00853817981111,
  "density_atomic": 17.573808828931963,
  "symmetry": null,
  "property_name": null,
  "material_id": "mp-1527",
  "deprecated": null,
  "deprecation_reasons": null,
  "last_updated": null,
  "origins": null,
  "warnings": null,
  "structure": {
    "@module": "pymatgen.core.structure",
    "@class": "Structure",
    "charge": 0,
    "lattice": {
      "matrix": [
        [3.93815452, -0.0, 1.706373119999999],
        [1.825213419999999, 4.94945812, 1.18520977],
        [-0.00395263, -0.01441872, 5.4067583]
      ],
      "pbc": [true, true, true],
      "a": 4.291942479583686,
      "b": 5.406779254702885,
      "c": 5.406778970643172,
      "alpha": 77.49532655335557,
      "beta": 66.6152476013144,
      "gamma": 66.61524456865794,
      "volume": 105.44285297359178
    },
    "properties": {},
    "sites": [
      {
        "species": [{ "element": "Tb", "occu": 1 }],
        "abc": [0.54331073, 0.70668927, 0.20668927],
        "properties": { "magmom": 0.0 },
        "label": "Tb",
        "xyz": [3.4286833802787218, 3.494748751007238, 2.882184778731186]
      },
      {
        "species": [{ "element": "Tb", "occu": 1 }],
        "abc": [0.45668927000000004, 0.29331073, 0.79331073],
        "properties": { "magmom": 0.0 },
        "label": "Tb",
        "xyz": [2.3307319297212765, 1.440290648992762, 5.416156411268813]
      },
      {
        "species": [{ "element": "Cu", "occu": 1 }],
        "abc": [0.83506764, 0.71661003, 0.61325469],
        "properties": { "magmom": 0.0 },
        "label": "Cu",
        "xyz": [4.5941676757489995, 3.537988984193147, 5.589990068285256]
      },
      {
        "species": [{ "element": "Cu", "occu": 1 }],
        "abc": [0.16493236, 0.28338997, 0.38674531],
        "properties": { "magmom": 0.0 },
        "label": "Cu",
        "xyz": [1.1652476342509992, 1.397050415806853, 2.7083511217147427]
      },
      {
        "species": [{ "element": "Cu", "occu": 1 }],
        "abc": [0.83506764, 0.11325469, 0.21661003],
        "properties": { "magmom": 0.0 },
        "label": "Cu",
        "xyz": [3.4944832017347935, 0.5574261056768212, 2.7303256169299064]
      },
      {
        "species": [{ "element": "Cu", "occu": 1 }],
        "abc": [0.16493236, 0.88674531, 0.78338997],
        "properties": { "magmom": 0.0 },
        "label": "Cu",
        "xyz": [2.264932108265205, 4.377613294323179, 5.568015573070093]
      }
    ]
  },
  "task_ids": null,
  "uncorrected_energy_per_atom": null,
  "energy_per_atom": -17.90698707,
  "formation_energy_per_atom": -0.26697835333333303,
  "energy_above_hull": 0.0,
  "is_stable": true,
  "equilibrium_reaction_energy_per_atom": null,
  "decomposes_to": null,
  "xas": null,
  "grain_boundaries": null,
  "band_gap": 0.0,
  "cbm": null,
  "vbm": null,
  "efermi": 5.01335444,
  "is_gap_direct": null,
  "is_metal": null,
  "es_source_calc_id": null,
  "bandstructure": null,
  "dos": null,
  "dos_energy_up": null,
  "dos_energy_down": null,
  "is_magnetic": null,
  "ordering": null,
  "total_magnetization": 0.0,
  "total_magnetization_normalized_vol": null,
  "total_magnetization_normalized_formula_units": null,
  "num_magnetic_sites": null,
  "num_unique_magnetic_sites": null,
  "types_of_magnetic_species": null,
  "bulk_modulus": null,
  "shear_modulus": null,
  "universal_anisotropy": null,
  "homogeneous_poisson": null,
  "e_total": null,
  "e_ionic": null,
  "e_electronic": null,
  "n": null,
  "e_ij_max": null,
  "weighted_surface_energy_EV_PER_ANG2": null,
  "weighted_surface_energy": null,
  "weighted_work_function": null,
  "surface_anisotropy": null,
  "shape_factor": null,
  "has_reconstructed": null,
  "possible_species": null,
  "has_props": null,
  "theoretical": null,
  "database_IDs": null,
  "fields_not_requested": [
    "builder_meta",
    "nsites",
    "elements",
    "nelements",
    "composition",
    "composition_reduced",
    "chemsys",
    "symmetry",
    "property_name",
    "deprecated",
    "deprecation_reasons",
    "last_updated",
    "origins",
    "warnings",
    "task_ids",
    "uncorrected_energy_per_atom",
    "equilibrium_reaction_energy_per_atom",
    "decomposes_to",
    "xas",
    "grain_boundaries",
    "cbm",
    "vbm",
    "is_gap_direct",
    "is_metal",
    "es_source_calc_id",
    "bandstructure",
    "dos",
    "dos_energy_up",
    "dos_energy_down",
    "is_magnetic",
    "ordering",
    "total_magnetization_normalized_vol",
    "total_magnetization_normalized_formula_units",
    "num_magnetic_sites",
    "num_unique_magnetic_sites",
    "types_of_magnetic_species",
    "bulk_modulus",
    "shear_modulus",
    "universal_anisotropy",
    "homogeneous_poisson",
    "e_total",
    "e_ionic",
    "e_electronic",
    "n",
    "e_ij_max",
    "weighted_surface_energy_EV_PER_ANG2",
    "weighted_surface_energy",
    "weighted_work_function",
    "surface_anisotropy",
    "shape_factor",
    "has_reconstructed",
    "possible_species",
    "has_props",
    "theoretical",
    "database_IDs"
  ]
}
