{
  "builder_meta": null,
  "nsites": null,
  "elements": null,
  "nelements": null,
  "composition": null,
  "composition_reduced": null,
  "formula_pretty": "TbF3",
  "formula_anonymous": "AB3",
  "chemsys": null,
  "volume": 192.15475558257788,
  "density": 7.463661743075627,
  "density_atomic": 12.009672223911117,
  "symmetry": null,
  "property_name": null,
  "material_id": "mp-11347",
  "deprecated": null,
  "deprecation_reasons": null,
  "last_updated": null,
  "origins": null,
  "warnings": null,
  "structure": {
    "@module": "pymatgen.core.structure",
    "@class": "Structure",
    "charge": 0,
    "lattice": {
      "matrix": [
        [4.3419152, 0.0, 0.0],
        [0.0, 6.44254512, 0.0],
        [0.0, 0.0, 6.86929759]
      ],
      "pbc": [true, true, true],
      "a": 4.3419152,
      "b": 6.44254512,
      "c": 6.86929759,
      "alpha": 90.0,
      "beta": 90.0,
      "gamma": 90.0,
      "volume": 192.15475558257788
    },
    "properties": {},
    "sites": [
      {
        "species": [{ "element": "Tb", "occu": 1 }],
        "abc": [0.93430325, 0.63037236, 0.75],
        "properties": { "magmom": 0.0 },
        "label": "Tb",
        "xyz": [4.0566654825844, 4.061202371700883, 5.1519731925]
      },
      {
        "species": [{ "element": "Tb", "occu": 1 }],
        "abc": [0.43430325000000003, 0.86962764, 0.25],
        "properties": { "magmom": 0.0 },
        "label": "Tb",
        "xyz": [1.8857078825844, 5.602615308299117, 1.7173243975]
      },
      {
        "species": [{ "element": "Tb", "occu": 1 }],
        "abc": [0.56569675, 0.13037236, 0.75],
        "properties": { "magmom": 0.0 },
        "label": "Tb",
        "xyz": [2.4562073174155996, 0.8399298117008832, 5.1519731925]
      },
      {
        "species": [{ "element": "Tb", "occu": 1 }],
        "abc": [0.06569675, 0.36962764000000004, 0.25],
        "properties": { "magmom": 0.0 },
        "label": "Tb",
        "xyz": [0.28524971741559996, 2.381342748299117, 1.7173243975]
      },
      {
        "species": [{ "element": "F", "occu": 1 }],
        "abc": [0.38488809, 0.16585071, 0.437058399999999],
        "properties": { "magmom": 0.0 },
        "label": "F",
        "xyz": [1.671151448269968, 1.0685006823590353, 3.0022842138092494]
      },
      {
        "species": [{ "element": "F", "occu": 1 }],
        "abc": [0.88488809, 0.33414929, 0.562941599999999],
        "properties": { "magmom": 0.0 },
        "label": "F",
        "xyz": [3.842109048269968, 2.152771877640965, 3.8670133761907377]
      },
      {
        "species": [{ "element": "F", "occu": 1 }],
        "abc": [0.11511191, 0.6658507100000001, 0.0629416],
        "properties": { "magmom": 0.0 },
        "label": "F",
        "xyz": [0.49980615173003196, 4.289773242359035, 0.432364581190744]
      },
      {
        "species": [{ "element": "F", "occu": 1 }],
        "abc": [0.61511191, 0.83414929, 0.9370584],
        "properties": { "magmom": 0.0 },
        "label": "F",
        "xyz": [2.670763751730032, 5.374044437640965, 6.436933008809256]
      },
      {
        "species": [{ "element": "F", "occu": 1 }],
        "abc": [0.58234139, 0.5207159100000001, 0.25],
        "properties": { "magmom": -0.0 },
        "label": "F",
        "xyz": [2.5284769328301278, 3.3547357448768595, 1.7173243975]
      },
      {
        "species": [{ "element": "F", "occu": 1 }],
        "abc": [0.08234139, 0.97928409, 0.75],
        "properties": { "magmom": -0.0 },
        "label": "F",
        "xyz": [0.357519332830128, 6.3090819351231415, 5.1519731925]
      },
      {
        "species": [{ "element": "F", "occu": 1 }],
        "abc": [0.91765861, 0.02071691, 0.25],
        "properties": { "magmom": -0.0 },
        "label": "F",
        "xyz": [3.984395867169872, 0.1334696274219792, 1.7173243975]
      },
      {
        "species": [{ "element": "F", "occu": 1 }],
        "abc": [0.41765861, 0.47928309, 0.75],
        "properties": { "magmom": -0.0 },
        "label": "F",
        "xyz": [1.8134382671698719, 3.087802932578021, 5.1519731925]
      },
      {
        "species": [{ "element": "F", "occu": 1 }],
        "abc": [0.38488809, 0.16585071, 0.0629416],
        "properties": { "magmom": 0.0 },
        "label": "F",
        "xyz": [1.671151448269968, 1.0685006823590353, 0.432364581190744]
      },
      {
        "species": [{ "element": "F", "occu": 1 }],
        "abc": [0.88488809, 0.33414929, 0.9370584],
        "properties": { "magmom": 0.0 },
        "label": "F",
        "xyz": [3.842109048269968, 2.152771877640965, 6.436933008809256]
      },
      {
        "species": [{ "element": "F", "occu": 1 }],
        "abc": [0.11511191, 0.6658507100000001, 0.437058399999999],
        "properties": { "magmom": 0.0 },
        "label": "F",
        "xyz": [0.49980615173003196, 4.289773242359035, 3.0022842138092494]
      },
      {
        "species": [{ "element": "F", "occu": 1 }],
        "abc": [0.61511191, 0.83414929, 0.562941599999999],
        "properties": { "magmom": 0.0 },
        "label": "F",
        "xyz": [2.670763751730032, 5.374044437640965, 3.8670133761907377]
      }
    ]
  },
  "task_ids": null,
  "uncorrected_energy_per_atom": null,
  "energy_per_atom": -14.65387218625,
  "formation_energy_per_atom": -4.50274268625,
  "energy_above_hull": 0.0,
  "is_stable": true,
  "equilibrium_reaction_energy_per_atom": null,
  "decomposes_to": null,
  "xas": null,
  "grain_boundaries": null,
  "band_gap": 7.7552,
  "cbm": null,
  "vbm": null,
  "efermi": -0.53332945,
  "is_gap_direct": null,
  "is_metal": null,
  "es_source_calc_id": null,
  "bandstructure": null,
  "dos": null,
  "dos_energy_up": null,
  "dos_energy_down": null,
  "is_magnetic": null,
  "ordering": null,
  "total_magnetization": 0.0,
  "total_magnetization_normalized_vol": null,
  "total_magnetization_normalized_formula_units": null,
  "num_magnetic_sites": null,
  "num_unique_magnetic_sites": null,
  "types_of_magnetic_species": null,
  "bulk_modulus": null,
  "shear_modulus": null,
  "universal_anisotropy": null,
  "homogeneous_poisson": null,
  "e_total": null,
  "e_ionic": null,
  "e_electronic": null,
  "n": null,
  "e_ij_max": null,
  "weighted_surface_energy_EV_PER_ANG2": null,
  "weighted_surface_energy": null,
  "weighted_work_function": null,
  "surface_anisotropy": null,
  "shape_factor": null,
  "has_reconstructed": null,
  "possible_species": null,
  "has_props": null,
  "theoretical": null,
  "database_IDs": null,
  "fields_not_requested": [
    "builder_meta",
    "nsites",
    "elements",
    "nelements",
    "composition",
    "composition_reduced",
    "chemsys",
    "symmetry",
    "property_name",
    "deprecated",
    "deprecation_reasons",
    "last_updated",
    "origins",
    "warnings",
    "task_ids",
    "uncorrected_energy_per_atom",
    "equilibrium_reaction_energy_per_atom",
    "decomposes_to",
    "xas",
    "grain_boundaries",
    "cbm",
    "vbm",
    "is_gap_direct",
    "is_metal",
    "es_source_calc_id",
    "bandstructure",
    "dos",
    "dos_energy_up",
    "dos_energy_down",
    "is_magnetic",
    "ordering",
    "total_magnetization_normalized_vol",
    "total_magnetization_normalized_formula_units",
    "num_magnetic_sites",
    "num_unique_magnetic_sites",
    "types_of_magnetic_species",
    "bulk_modulus",
    "shear_modulus",
    "universal_anisotropy",
    "homogeneous_poisson",
    "e_total",
    "e_ionic",
    "e_electronic",
    "n",
    "e_ij_max",
    "weighted_surface_energy_EV_PER_ANG2",
    "weighted_surface_energy",
    "weighted_work_function",
    "surface_anisotropy",
    "shape_factor",
    "has_reconstructed",
    "possible_species",
    "has_props",
    "theoretical",
    "database_IDs"
  ]
}
