{
  "builder_meta": null,
  "nsites": null,
  "elements": null,
  "nelements": null,
  "composition": null,
  "composition_reduced": null,
  "formula_pretty": "TbF4",
  "formula_anonymous": "AB4",
  "chemsys": null,
  "volume": 454.13820953797625,
  "density": 5.153833441296442,
  "density_atomic": 15.137940317932541,
  "symmetry": null,
  "property_name": null,
  "material_id": "mp-1208439",
  "deprecated": null,
  "deprecation_reasons": null,
  "last_updated": null,
  "origins": null,
  "warnings": null,
  "structure": {
    "@module": "pymatgen.core.structure",
    "@class": "Structure",
    "charge": 0,
    "lattice": {
      "matrix": [
        [5.60576371, 5.99094964, -0.0085836],
        [-5.60576371, 5.99094964, -0.0085836],
        [0.0, 4.18664911, 6.75526082]
      ],
      "pbc": [true, true, true],
      "a": 8.204641249899842,
      "b": 8.204641249899842,
      "c": 7.947425967977989,
      "alpha": 67.43260058401437,
      "beta": 67.43260058401437,
      "gamma": 86.19517064083121,
      "volume": 454.13820953797625
    },
    "properties": {},
    "sites": [
      {
        "species": [{ "element": "Tb", "occu": 1 }],
        "abc": [0.65227622, 0.76645688, 0.63370622],
        "properties": { "magmom": -0.018000000000000002 },
        "label": "Tb",
        "xyz": [-0.6400698002118488, 11.152664136665548, 4.26867296191914]
      },
      {
        "species": [{ "element": "Tb", "occu": 1 }],
        "abc": [0.34772378, 0.23354312, 0.36629378],
        "properties": { "magmom": -0.018000000000000002 },
        "label": "Tb",
        "xyz": [0.6400698002118486, 5.015884253334452, 2.46942065808086]
      },
      {
        "species": [{ "element": "Tb", "occu": 1 }],
        "abc": [0.23354312, 0.34772378, 0.86629378],
        "properties": { "magmom": -0.018000000000000002 },
        "label": "Tb",
        "xyz": [-0.6400698002118486, 7.1092088083344525, 5.84705106808086]
      },
      {
        "species": [{ "element": "Tb", "occu": 1 }],
        "abc": [0.76645688, 0.65227622, 0.13370622000000001],
        "properties": { "magmom": -0.018000000000000002 },
        "label": "Tb",
        "xyz": [0.6400698002118488, 9.059339581665547, 0.8910425519191405]
      },
      {
        "species": [{ "element": "Tb", "occu": 1 }],
        "abc": [0.80167848, 0.19832152, 0.75],
        "properties": { "magmom": -0.024 },
        "label": "Tb",
        "xyz": [3.382276550543921, 9.1309364725, 5.057862015]
      },
      {
        "species": [{ "element": "Tb", "occu": 1 }],
        "abc": [0.19832152, 0.80167848, 0.25],
        "properties": { "magmom": -0.024 },
        "label": "Tb",
        "xyz": [-3.382276550543921, 7.0376119175000005, 1.6802316050000001]
      },
      {
        "species": [{ "element": "F", "occu": 1 }],
        "abc": [0.34236508, 0.24885505, 0.63550536],
        "properties": { "magmom": 0.033 },
        "label": "F",
        "xyz": [0.5241951326950112, 6.202607974828483, 4.287929662200127]
      },
      {
        "species": [{ "element": "F", "occu": 1 }],
        "abc": [0.65763492, 0.75114495, 0.36449464],
        "properties": { "magmom": 0.033 },
        "label": "F",
        "xyz": [-0.5241951326950116, 9.965940415171517, 2.4501639577998726]
      },
      {
        "species": [{ "element": "F", "occu": 1 }],
        "abc": [0.75114495, 0.65763492, 0.86449464],
        "properties": { "magmom": 0.033 },
        "label": "F",
        "xyz": [0.5241951326950116, 12.059264970171517, 5.827794367799873]
      },
      {
        "species": [{ "element": "F", "occu": 1 }],
        "abc": [0.24885505, 0.34236508, 0.13550536],
        "properties": { "magmom": 0.033 },
        "label": "F",
        "xyz": [-0.5241951326950112, 4.109283419828483, 0.9102992522001272]
      },
      {
        "species": [{ "element": "F", "occu": 1 }],
        "abc": [0.83136099, 0.9396456200000001, 0.94323754],
        "properties": { "magmom": 0.02 },
        "label": "F",
        "xyz": [-0.6070180492047781, 14.55901601997671, 6.356613985577587]
      },
      {
        "species": [{ "element": "F", "occu": 1 }],
        "abc": [0.16863901, 0.06035438, 0.05676246],
        "properties": { "magmom": 0.02 },
        "label": "F",
        "xyz": [0.6070180492047773, 1.6095323700232904, 0.3814796344224132]
      },
      {
        "species": [{ "element": "F", "occu": 1 }],
        "abc": [0.06035438, 0.16863901, 0.55676246],
        "properties": { "magmom": 0.02 },
        "label": "F",
        "xyz": [-0.6070180492047773, 3.7028569250232906, 3.759110044422413]
      },
      {
        "species": [{ "element": "F", "occu": 1 }],
        "abc": [0.9396456200000001, 0.83136099, 0.44323754],
        "properties": { "magmom": 0.02 },
        "label": "F",
        "xyz": [0.6070180492047781, 12.465691464976711, 2.978983575577587]
      },
      {
        "species": [{ "element": "F", "occu": 1 }],
        "abc": [0.42058407000000003, 0.57941593, 0.75],
        "properties": { "magmom": 0.03 },
        "label": "F",
        "xyz": [-0.8903738767798006, 9.1309364725, 5.057862015]
      },
      {
        "species": [{ "element": "F", "occu": 1 }],
        "abc": [0.57941593, 0.42058407000000003, 0.25],
        "properties": { "magmom": 0.03 },
        "label": "F",
        "xyz": [0.8903738767798006, 7.0376119175000005, 1.6802316050000001]
      },
      {
        "species": [{ "element": "F", "occu": 1 }],
        "abc": [0.5, -0.0, 0.5],
        "properties": { "magmom": 0.47900000000000004 },
        "label": "F",
        "xyz": [2.802881855, 5.088799375000001, 3.3733386100000002]
      },
      {
        "species": [{ "element": "F", "occu": 1 }],
        "abc": [-0.0, 0.5, 0.0],
        "properties": { "magmom": 0.47900000000000004 },
        "label": "F",
        "xyz": [-2.802881855, 2.99547482, -0.0042918]
      },
      {
        "species": [{ "element": "F", "occu": 1 }],
        "abc": [0.50041754, 0.20950695, 0.86709737],
        "properties": { "magmom": 0.41300000000000003 },
        "label": "F",
        "xyz": [1.6307760282766892, 7.883354300186525, 5.851375182833679]
      },
      {
        "species": [{ "element": "F", "occu": 1 }],
        "abc": [0.49958246, 0.79049305, 0.13290263],
        "properties": { "magmom": 0.41300000000000003 },
        "label": "F",
        "xyz": [-1.6307760282766885, 8.285194089813476, 0.8867184371663206]
      },
      {
        "species": [{ "element": "F", "occu": 1 }],
        "abc": [0.79049305, 0.49958246, 0.63290263],
        "properties": { "magmom": 0.41300000000000003 },
        "label": "F",
        "xyz": [1.6307760282766885, 10.378518644813477, 4.264348847166321]
      },
      {
        "species": [{ "element": "F", "occu": 1 }],
        "abc": [0.20950695, 0.50041754, 0.36709737000000003],
        "properties": { "magmom": 0.41300000000000003 },
        "label": "F",
        "xyz": [-1.6307760282766892, 5.790029745186525, 2.4737447728336797]
      },
      {
        "species": [{ "element": "F", "occu": 1 }],
        "abc": [0.40395468, 0.78024423, 0.94655711],
        "properties": { "magmom": 0.497 },
        "label": "F",
        "xyz": [-2.1093903038422304, 11.057378515698565, 6.384075469311554]
      },
      {
        "species": [{ "element": "F", "occu": 1 }],
        "abc": [0.59604532, 0.21975577000000002, 0.05344289],
        "properties": { "magmom": 0.497 },
        "label": "F",
        "xyz": [2.10939030384223, 5.111169874301436, 0.3540181506884458]
      },
      {
        "species": [{ "element": "F", "occu": 1 }],
        "abc": [0.21975577000000002, 0.59604532, 0.55344289],
        "properties": { "magmom": 0.497 },
        "label": "F",
        "xyz": [-2.10939030384223, 7.204494429301436, 3.731648560688446]
      },
      {
        "species": [{ "element": "F", "occu": 1 }],
        "abc": [0.78024423, 0.40395468, 0.44655711000000003],
        "properties": { "magmom": 0.497 },
        "label": "F",
        "xyz": [2.1093903038422304, 8.964053960698564, 3.0064450593115546]
      },
      {
        "species": [{ "element": "F", "occu": 1 }],
        "abc": [0.69554222, 0.03368949, 0.6318320900000001],
        "properties": { "magmom": 0.214 },
        "label": "F",
        "xyz": [3.710190015198428, 7.014049707769026, 4.261931129089759]
      },
      {
        "species": [{ "element": "F", "occu": 1 }],
        "abc": [0.30445778, 0.96631051, 0.36816791],
        "properties": { "magmom": 0.214 },
        "label": "F",
        "xyz": [-3.710190015198428, 9.154498682230976, 2.476162490910242]
      },
      {
        "species": [{ "element": "F", "occu": 1 }],
        "abc": [0.96631051, 0.30445778, 0.86816791],
        "properties": { "magmom": 0.214 },
        "label": "F",
        "xyz": [3.710190015198428, 11.247823237230977, 5.853792900910243]
      },
      {
        "species": [{ "element": "F", "occu": 1 }],
        "abc": [0.03368949, 0.69554222, 0.13183209],
        "properties": { "magmom": 0.214 },
        "label": "F",
        "xyz": [-3.710190015198428, 4.920725152769025, 0.8843007190897579]
      }
    ]
  },
  "task_ids": null,
  "uncorrected_energy_per_atom": null,
  "energy_per_atom": -12.189352611,
  "formation_energy_per_atom": -3.443243420999999,
  "energy_above_hull": 0.15895072799999702,
  "is_stable": false,
  "equilibrium_reaction_energy_per_atom": null,
  "decomposes_to": null,
  "xas": null,
  "grain_boundaries": null,
  "band_gap": 0.0,
  "cbm": null,
  "vbm": null,
  "efermi": -3.10647085,
  "is_gap_direct": null,
  "is_metal": null,
  "es_source_calc_id": null,
  "bandstructure": null,
  "dos": null,
  "dos_energy_up": null,
  "dos_energy_down": null,
  "is_magnetic": null,
  "ordering": null,
  "total_magnetization": 6.0065982,
  "total_magnetization_normalized_vol": null,
  "total_magnetization_normalized_formula_units": null,
  "num_magnetic_sites": null,
  "num_unique_magnetic_sites": null,
  "types_of_magnetic_species": null,
  "bulk_modulus": null,
  "shear_modulus": null,
  "universal_anisotropy": null,
  "homogeneous_poisson": null,
  "e_total": null,
  "e_ionic": null,
  "e_electronic": null,
  "n": null,
  "e_ij_max": null,
  "weighted_surface_energy_EV_PER_ANG2": null,
  "weighted_surface_energy": null,
  "weighted_work_function": null,
  "surface_anisotropy": null,
  "shape_factor": null,
  "has_reconstructed": null,
  "possible_species": null,
  "has_props": null,
  "theoretical": null,
  "database_IDs": null,
  "fields_not_requested": [
    "builder_meta",
    "nsites",
    "elements",
    "nelements",
    "composition",
    "composition_reduced",
    "chemsys",
    "symmetry",
    "property_name",
    "deprecated",
    "deprecation_reasons",
    "last_updated",
    "origins",
    "warnings",
    "task_ids",
    "uncorrected_energy_per_atom",
    "equilibrium_reaction_energy_per_atom",
    "decomposes_to",
    "xas",
    "grain_boundaries",
    "cbm",
    "vbm",
    "is_gap_direct",
    "is_metal",
    "es_source_calc_id",
    "bandstructure",
    "dos",
    "dos_energy_up",
    "dos_energy_down",
    "is_magnetic",
    "ordering",
    "total_magnetization_normalized_vol",
    "total_magnetization_normalized_formula_units",
    "num_magnetic_sites",
    "num_unique_magnetic_sites",
    "types_of_magnetic_species",
    "bulk_modulus",
    "shear_modulus",
    "universal_anisotropy",
    "homogeneous_poisson",
    "e_total",
    "e_ionic",
    "e_electronic",
    "n",
    "e_ij_max",
    "weighted_surface_energy_EV_PER_ANG2",
    "weighted_surface_energy",
    "weighted_work_function",
    "surface_anisotropy",
    "shape_factor",
    "has_reconstructed",
    "possible_species",
    "has_props",
    "theoretical",
    "database_IDs"
  ]
}
