{
  "builder_meta": null,
  "nsites": null,
  "elements": null,
  "nelements": null,
  "composition": null,
  "composition_reduced": null,
  "formula_pretty": "TbFe3",
  "formula_anonymous": "AB3",
  "chemsys": null,
  "volume": 188.18675915804437,
  "density": 8.641949634973608,
  "density_atomic": 15.68222992983703,
  "symmetry": null,
  "property_name": null,
  "material_id": "mp-2584",
  "deprecated": null,
  "deprecation_reasons": null,
  "last_updated": null,
  "origins": null,
  "warnings": null,
  "structure": {
    "@module": "pymatgen.core.structure",
    "@class": "Structure",
    "charge": 0,
    "lattice": {
      "matrix": [
        [8.2539204, -2.58692002, -0.019650360000000002],
        [8.2539204, 2.58692002, -0.019650360000000002],
        [7.45363113, -0.0, 4.38897829]
      ],
      "pbc": [true, true, true],
      "a": 8.649840651483766,
      "b": 8.649840651483766,
      "c": 8.649840891727223,
      "alpha": 34.803678656112915,
      "beta": 34.803678656112915,
      "gamma": 34.803676525417025,
      "volume": 188.18675915804437
    },
    "properties": {},
    "sites": [
      {
        "species": [{ "element": "Tb", "occu": 1 }],
        "abc": [-0.0, -0.0, -0.0],
        "properties": { "magmom": -0.706 },
        "label": "Tb",
        "xyz": [0.0, 0.0, 0.0]
      },
      {
        "species": [{ "element": "Tb", "occu": 1 }],
        "abc": [0.14201432, 0.14201432, 0.14201432],
        "properties": { "magmom": -0.873 },
        "label": "Tb",
        "xyz": [3.4028721423380377, 0.0, 0.6177165023228024]
      },
      {
        "species": [{ "element": "Tb", "occu": 1 }],
        "abc": [0.85798568, 0.85798568, 0.85798568],
        "properties": { "magmom": -0.873 },
        "label": "Tb",
        "xyz": [20.55859978766196, 0.0, 3.7319610676771977]
      },
      {
        "species": [{ "element": "Fe", "occu": 1 }],
        "abc": [0.5, 0.5, 0.5],
        "properties": { "magmom": 2.493 },
        "label": "Fe",
        "xyz": [11.980735965000001, 0.0, 2.174838785]
      },
      {
        "species": [{ "element": "Fe", "occu": 1 }],
        "abc": [0.33276832, 0.33276832, 0.33276832],
        "properties": { "magmom": 2.68 },
        "label": "Fe",
        "xyz": [7.973618758873258, 0.0, 1.4474348975105824]
      },
      {
        "species": [{ "element": "Fe", "occu": 1 }],
        "abc": [0.66723168, 0.66723168, 0.66723168],
        "properties": { "magmom": 2.68 },
        "label": "Fe",
        "xyz": [15.987853171126742, 0.0, 2.9022426724894173]
      },
      {
        "species": [{ "element": "Fe", "occu": 1 }],
        "abc": [0.08332223, 0.57890749, 0.57890749],
        "properties": { "magmom": 2.644 },
        "label": "Fe",
        "xyz": [9.780954284248452, 1.282039430710905, 2.5277993531276928]
      },
      {
        "species": [{ "element": "Fe", "occu": 1 }],
        "abc": [0.57890749, 0.57890749, 0.08332223],
        "properties": { "magmom": 2.644 },
        "label": "Fe",
        "xyz": [10.177565850196611, 0.0, 0.34294797737399385]
      },
      {
        "species": [{ "element": "Fe", "occu": 1 }],
        "abc": [0.57890749, 0.08332223, 0.57890749],
        "properties": { "magmom": 2.644 },
        "label": "Fe",
        "xyz": [9.780954284248452, -1.282039430710905, 2.5277993531276928]
      },
      {
        "species": [{ "element": "Fe", "occu": 1 }],
        "abc": [0.42109251000000003, 0.9166777700000001, 0.42109251000000003],
        "properties": { "magmom": 2.644 },
        "label": "Fe",
        "xyz": [14.18051764575155, 1.282039430710905, 1.821878216872307]
      },
      {
        "species": [{ "element": "Fe", "occu": 1 }],
        "abc": [0.9166777700000001, 0.42109251000000003, 0.42109251000000003],
        "properties": { "magmom": 2.644 },
        "label": "Fe",
        "xyz": [14.18051764575155, -1.282039430710905, 1.821878216872307]
      },
      {
        "species": [{ "element": "Fe", "occu": 1 }],
        "abc": [0.42109251000000003, 0.42109251000000003, 0.9166777700000001],
        "properties": { "magmom": 2.644 },
        "label": "Fe",
        "xyz": [13.783906079803389, 0.0, 4.006729592626006]
      }
    ]
  },
  "task_ids": null,
  "uncorrected_energy_per_atom": null,
  "energy_per_atom": -7.565504375833335,
  "formation_energy_per_atom": -0.0535225625,
  "energy_above_hull": 0.0,
  "is_stable": true,
  "equilibrium_reaction_energy_per_atom": null,
  "decomposes_to": null,
  "xas": null,
  "grain_boundaries": null,
  "band_gap": 0.0,
  "cbm": null,
  "vbm": null,
  "efermi": 4.54138901,
  "is_gap_direct": null,
  "is_metal": null,
  "es_source_calc_id": null,
  "bandstructure": null,
  "dos": null,
  "dos_energy_up": null,
  "dos_energy_down": null,
  "is_magnetic": null,
  "ordering": null,
  "total_magnetization": 19.8644458,
  "total_magnetization_normalized_vol": null,
  "total_magnetization_normalized_formula_units": null,
  "num_magnetic_sites": null,
  "num_unique_magnetic_sites": null,
  "types_of_magnetic_species": null,
  "bulk_modulus": null,
  "shear_modulus": null,
  "universal_anisotropy": null,
  "homogeneous_poisson": null,
  "e_total": null,
  "e_ionic": null,
  "e_electronic": null,
  "n": null,
  "e_ij_max": null,
  "weighted_surface_energy_EV_PER_ANG2": null,
  "weighted_surface_energy": null,
  "weighted_work_function": null,
  "surface_anisotropy": null,
  "shape_factor": null,
  "has_reconstructed": null,
  "possible_species": null,
  "has_props": null,
  "theoretical": null,
  "database_IDs": null,
  "fields_not_requested": [
    "builder_meta",
    "nsites",
    "elements",
    "nelements",
    "composition",
    "composition_reduced",
    "chemsys",
    "symmetry",
    "property_name",
    "deprecated",
    "deprecation_reasons",
    "last_updated",
    "origins",
    "warnings",
    "task_ids",
    "uncorrected_energy_per_atom",
    "equilibrium_reaction_energy_per_atom",
    "decomposes_to",
    "xas",
    "grain_boundaries",
    "cbm",
    "vbm",
    "is_gap_direct",
    "is_metal",
    "es_source_calc_id",
    "bandstructure",
    "dos",
    "dos_energy_up",
    "dos_energy_down",
    "is_magnetic",
    "ordering",
    "total_magnetization_normalized_vol",
    "total_magnetization_normalized_formula_units",
    "num_magnetic_sites",
    "num_unique_magnetic_sites",
    "types_of_magnetic_species",
    "bulk_modulus",
    "shear_modulus",
    "universal_anisotropy",
    "homogeneous_poisson",
    "e_total",
    "e_ionic",
    "e_electronic",
    "n",
    "e_ij_max",
    "weighted_surface_energy_EV_PER_ANG2",
    "weighted_surface_energy",
    "weighted_work_function",
    "surface_anisotropy",
    "shape_factor",
    "has_reconstructed",
    "possible_species",
    "has_props",
    "theoretical",
    "database_IDs"
  ]
}
