{
  "builder_meta": null,
  "nsites": null,
  "elements": null,
  "nelements": null,
  "composition": null,
  "composition_reduced": null,
  "formula_pretty": "TbGa3",
  "formula_anonymous": "AB3",
  "chemsys": null,
  "volume": 153.23725202547263,
  "density": 7.977629986057542,
  "density_atomic": 19.15465650318408,
  "symmetry": null,
  "property_name": null,
  "material_id": "mp-867246",
  "deprecated": null,
  "deprecation_reasons": null,
  "last_updated": null,
  "origins": null,
  "warnings": null,
  "structure": {
    "@module": "pymatgen.core.structure",
    "@class": "Structure",
    "charge": 0,
    "lattice": {
      "matrix": [
        [6.28012838, -2e-8, 0.0],
        [-3.14006522, 5.43875225, -0.0],
        [0.0, 0.0, 4.48638519]
      ],
      "pbc": [true, true, true],
      "a": 6.28012838,
      "b": 6.280130223389776,
      "c": 4.48638519,
      "alpha": 90.0,
      "beta": 90.0,
      "gamma": 120.00000132343187,
      "volume": 153.23725202547263
    },
    "properties": {},
    "sites": [
      {
        "species": [{ "element": "Tb", "occu": 1 }],
        "abc": [0.333333999999999, 0.666667999999999, 0.75],
        "properties": { "magmom": -0.0 },
        "label": "Tb",
        "xyz": [-6.866680433148531e-7, 3.6258420783363148, 3.3647888925]
      },
      {
        "species": [{ "element": "Tb", "occu": 1 }],
        "abc": [0.666667, 0.333333, 0.249999],
        "properties": { "magmom": -0.0 },
        "label": "Tb",
        "xyz": [3.1400669867312, 1.81291559041591, 1.12159181111481]
      },
      {
        "species": [{ "element": "Ga", "occu": 1 }],
        "abc": [0.14457189, 0.28914179, 0.249999],
        "properties": { "magmom": -0.0 },
        "label": "Ga",
        "xyz": [5.950911694529992e-6, 1.57257055804009, 1.12159181111481]
      },
      {
        "species": [{ "element": "Ga", "occu": 1 }],
        "abc": [0.71085821, 0.85542811, 0.249999],
        "properties": { "magmom": -0.0 },
        "label": "Ga",
        "xyz": [1.7781807623556656, 4.652461543758583, 1.12159181111481]
      },
      {
        "species": [{ "element": "Ga", "occu": 1 }],
        "abc": [0.14457089, 0.85542811, 0.249999],
        "properties": { "magmom": -0.0 },
        "label": "Ga",
        "xyz": [-1.7781763072104757, 4.652461555084329, 1.12159181111481]
      },
      {
        "species": [{ "element": "Ga", "occu": 1 }],
        "abc": [0.85542911, 0.71085721, 0.75],
        "properties": { "magmom": -0.0 },
        "label": "Ga",
        "xyz": [3.1400666292819057, 3.8661762332076406, 3.3647888925]
      },
      {
        "species": [{ "element": "Ga", "occu": 1 }],
        "abc": [0.28914079, 0.14457089, 0.75],
        "properties": { "magmom": -0.0 },
        "label": "Ga",
        "xyz": [1.3618792575811742, 0.7862852474891868, 3.3647888925]
      },
      {
        "species": [{ "element": "Ga", "occu": 1 }],
        "abc": [0.85542711, 0.14457089, 0.75],
        "properties": { "magmom": -0.0 },
        "label": "Ga",
        "xyz": [4.918230047018936, 0.7862852361634604, 3.3647888925]
      }
    ]
  },
  "task_ids": null,
  "uncorrected_energy_per_atom": null,
  "energy_per_atom": -16.99509771125,
  "formation_energy_per_atom": -0.6064072112500011,
  "energy_above_hull": 0.0,
  "is_stable": true,
  "equilibrium_reaction_energy_per_atom": null,
  "decomposes_to": null,
  "xas": null,
  "grain_boundaries": null,
  "band_gap": 0.0,
  "cbm": null,
  "vbm": null,
  "efermi": 3.97942954,
  "is_gap_direct": null,
  "is_metal": null,
  "es_source_calc_id": null,
  "bandstructure": null,
  "dos": null,
  "dos_energy_up": null,
  "dos_energy_down": null,
  "is_magnetic": null,
  "ordering": null,
  "total_magnetization": 1e-7,
  "total_magnetization_normalized_vol": null,
  "total_magnetization_normalized_formula_units": null,
  "num_magnetic_sites": null,
  "num_unique_magnetic_sites": null,
  "types_of_magnetic_species": null,
  "bulk_modulus": null,
  "shear_modulus": null,
  "universal_anisotropy": null,
  "homogeneous_poisson": null,
  "e_total": null,
  "e_ionic": null,
  "e_electronic": null,
  "n": null,
  "e_ij_max": null,
  "weighted_surface_energy_EV_PER_ANG2": null,
  "weighted_surface_energy": null,
  "weighted_work_function": null,
  "surface_anisotropy": null,
  "shape_factor": null,
  "has_reconstructed": null,
  "possible_species": null,
  "has_props": null,
  "theoretical": null,
  "database_IDs": null,
  "fields_not_requested": [
    "builder_meta",
    "nsites",
    "elements",
    "nelements",
    "composition",
    "composition_reduced",
    "chemsys",
    "symmetry",
    "property_name",
    "deprecated",
    "deprecation_reasons",
    "last_updated",
    "origins",
    "warnings",
    "task_ids",
    "uncorrected_energy_per_atom",
    "equilibrium_reaction_energy_per_atom",
    "decomposes_to",
    "xas",
    "grain_boundaries",
    "cbm",
    "vbm",
    "is_gap_direct",
    "is_metal",
    "es_source_calc_id",
    "bandstructure",
    "dos",
    "dos_energy_up",
    "dos_energy_down",
    "is_magnetic",
    "ordering",
    "total_magnetization_normalized_vol",
    "total_magnetization_normalized_formula_units",
    "num_magnetic_sites",
    "num_unique_magnetic_sites",
    "types_of_magnetic_species",
    "bulk_modulus",
    "shear_modulus",
    "universal_anisotropy",
    "homogeneous_poisson",
    "e_total",
    "e_ionic",
    "e_electronic",
    "n",
    "e_ij_max",
    "weighted_surface_energy_EV_PER_ANG2",
    "weighted_surface_energy",
    "weighted_work_function",
    "surface_anisotropy",
    "shape_factor",
    "has_reconstructed",
    "possible_species",
    "has_props",
    "theoretical",
    "database_IDs"
  ]
}
