{"builder_meta": null, "nsites": null, "elements": null, "nelements": null, "composition": null, "composition_reduced": null, "formula_pretty": "TbGa6", "formula_anonymous": "AB6", "chemsys": null, "volume": 263.39106327159874, "density": 7.278670221266772, "density_atomic": 18.813647376542768, "symmetry": null, "property_name": null, "material_id": "mp-1104458", "deprecated": null, "deprecation_reasons": null, "last_updated": null, "origins": null, "warnings": null, "structure": {"@module": "pymatgen.core.structure", "@class": "Structure", "charge": 0, "lattice": {"matrix": [[5.91702282, 0.0, 0.0], [0.0, 5.91705131, -5.78e-06], [0.0, -7.98e-06, 7.52302415]], "pbc": [true, true, true], "a": 5.91702282, "b": 5.917051310002823, "c": 7.5230241500042325, "alpha": 90.00011674482273, "beta": 90.0, "gamma": 90.0, "volume": 263.3910632715988}, "properties": {}, "sites": [{"species": [{"element": "Tb", "occu": 1}], "abc": [0.7499280500000001, 0.25000456, 2.98e-06], "properties": {"magmom": -0.0}, "label": "Tb", "xyz": [4.437341385208101, 1.4792898092301932, 2.0973585610200002e-05]}, {"species": [{"element": "Tb", "occu": 1}], "abc": [0.25007195, 0.75000456, 2.98e-06], "properties": {"magmom": -0.0}, "label": "Tb", "xyz": [1.479681434791899, 4.4378154642301935, 1.80835856102e-05]}, {"species": [{"element": "Ga", "occu": 1}], "abc": [0.75004344, 0.75001256, 0.1609209], "properties": {"magmom": 0.0}, "label": "Ga", "xyz": [4.438024150471301, 4.437861516515672, 1.2106074818671382]}, {"species": [{"element": "Ga", "occu": 1}], "abc": [0.24995656, 0.25001256, 0.1609209], "properties": {"magmom": 0.0}, "label": "Ga", "xyz": [1.4789986695286992, 1.4793358615156715, 1.2106103718671384]}, {"species": [{"element": "Ga", "occu": 1}], "abc": [0.24997899, 0.24998591, 0.8390677200000001], "properties": {"magmom": 0.0}, "label": "Ga", "xyz": [1.4791313883505517, 1.4791727604866365, 6.312325276126879]}, {"species": [{"element": "Ga", "occu": 1}], "abc": [0.75002101, 0.74998591, 0.8390677200000001], "properties": {"magmom": 0.0}, "label": "Ga", "xyz": [4.437891431649448, 4.437698415486636, 6.312322386126879]}, {"species": [{"element": "Ga", "occu": 1}], "abc": [0.06421535, 0.93579961, 0.34966322], "properties": {"magmom": 0.0}, "label": "Ga", "xyz": [0.379963691344287, 5.5371715179354934, 2.6305194395050173]}, {"species": [{"element": "Ga", "occu": 1}], "abc": [0.56417971, 0.06415185, 0.349636499999999], "properties": {"magmom": -0.0}, "label": "Ga", "xyz": [3.338264218650982, 0.37958699798215345, 2.6303234624237746]}, {"species": [{"element": "Ga", "occu": 1}], "abc": [0.93578465, 0.43579961, 0.34966322], "properties": {"magmom": 0.0}, "label": "Ga", "xyz": [5.537059128655713, 2.578645862935493, 2.630522329505017]}, {"species": [{"element": "Ga", "occu": 1}], "abc": [0.43582029, 0.56415185, 0.349636499999999], "properties": {"magmom": -0.0}, "label": "Ga", "xyz": [2.578758601349018, 3.3381126529821534, 2.6303205724237744]}, {"species": [{"element": "Ga", "occu": 1}], "abc": [0.93575034, 0.06423849, 0.65035807], "properties": {"magmom": -0.0}, "label": "Ga", "xyz": [5.536856115602759, 0.38009725154952323, 4.892659095458919]}, {"species": [{"element": "Ga", "occu": 1}], "abc": [0.43579053, 0.93580601, 0.65035061], "properties": {"magmom": 0.0}, "label": "Ga", "xyz": [2.5785825107498943, 5.537206987578505, 4.892597936038494]}, {"species": [{"element": "Ga", "occu": 1}], "abc": [0.06424966, 0.56423849, 0.65035807], "properties": {"magmom": -0.0}, "label": "Ga", "xyz": [0.3801667043972412, 3.3386229065495234, 4.892656205458919]}, {"species": [{"element": "Ga", "occu": 1}], "abc": [0.56420947, 0.43580601, 0.65035061], "properties": {"magmom": 0.0}, "label": "Ga", "xyz": [3.3384403092501054, 2.578681332578505, 4.892600826038494]}]}, "task_ids": null, "uncorrected_energy_per_atom": null, "energy_per_atom": -14.630326320714286, "formation_energy_per_atom": -0.36131348499999805, "energy_above_hull": 0.0, "is_stable": true, "equilibrium_reaction_energy_per_atom": null, "decomposes_to": null, "xas": null, "grain_boundaries": null, "band_gap": 0.0, "cbm": null, "vbm": null, "efermi": 3.83273312, "is_gap_direct": null, "is_metal": null, "es_source_calc_id": null, "bandstructure": null, "dos": null, "dos_energy_up": null, "dos_energy_down": null, "is_magnetic": null, "ordering": null, "total_magnetization": 0.0, "total_magnetization_normalized_vol": null, "total_magnetization_normalized_formula_units": null, "num_magnetic_sites": null, "num_unique_magnetic_sites": null, "types_of_magnetic_species": null, "bulk_modulus": null, "shear_modulus": null, "universal_anisotropy": null, "homogeneous_poisson": null, "e_total": null, "e_ionic": null, "e_electronic": null, "n": null, "e_ij_max": null, "weighted_surface_energy_EV_PER_ANG2": null, "weighted_surface_energy": null, "weighted_work_function": null, "surface_anisotropy": null, "shape_factor": null, "has_reconstructed": null, "possible_species": null, "has_props": null, "theoretical": null, "database_IDs": null, "fields_not_requested": ["builder_meta", "nsites", "elements", "nelements", "composition", "composition_reduced", "chemsys", "symmetry", "property_name", "deprecated", "deprecation_reasons", "last_updated", "origins", "warnings", "task_ids", "uncorrected_energy_per_atom", "equilibrium_reaction_energy_per_atom", "decomposes_to", "xas", "grain_boundaries", "cbm", "vbm", "is_gap_direct", "is_metal", "es_source_calc_id", "bandstructure", "dos", "dos_energy_up", "dos_energy_down", "is_magnetic", "ordering", "total_magnetization_normalized_vol", "total_magnetization_normalized_formula_units", "num_magnetic_sites", "num_unique_magnetic_sites", "types_of_magnetic_species", "bulk_modulus", "shear_modulus", "universal_anisotropy", "homogeneous_poisson", "e_total", "e_ionic", "e_electronic", "n", "e_ij_max", "weighted_surface_energy_EV_PER_ANG2", "weighted_surface_energy", "weighted_work_function", "surface_anisotropy", "shape_factor", "has_reconstructed", "possible_species", "has_props", "theoretical", "database_IDs"]}