{"builder_meta": null, "nsites": null, "elements": null, "nelements": null, "composition": null, "composition_reduced": null, "formula_pretty": "TbGa", "formula_anonymous": "AB", "chemsys": null, "volume": 95.97292716596766, "density": 7.9122212669838365, "density_atomic": 23.993231791491915, "symmetry": null, "property_name": null, "material_id": "mp-11417", "deprecated": null, "deprecation_reasons": null, "last_updated": null, "origins": null, "warnings": null, "structure": {"@module": "pymatgen.core.structure", "@class": "Structure", "charge": 0, "lattice": {"matrix": [[4.05750615, -4.119999999999999e-06, -2.05e-06], [-3.11e-06, 4.0397482, -1.6049667300000001], [-3.089999999999999e-06, -0.011193960000000001, 5.85955998]], "pbc": [true, true, true], "a": 4.0575061500026095, "b": 4.3468935717153006, "c": 5.859570672324692, "alpha": 111.77707185152136, "beta": 90.00005905121455, "gamma": 90.00008437172684, "volume": 95.97292716596765}, "properties": {}, "sites": [{"species": [{"element": "Tb", "occu": 1}], "abc": [0.75, 0.13902924, 0.27806349], "properties": {"magmom": 0.149}, "label": "Tb", "xyz": [3.0431283209028797, 0.5585274004528477, 1.4061908557059453]}, {"species": [{"element": "Tb", "occu": 1}], "abc": [0.25, 0.86097176, 0.7219375100000001], "properties": {"magmom": 0.149}, "label": "Tb", "xyz": [1.0143716290909206, 3.4700267481013927, 2.8484045988873055]}, {"species": [{"element": "Ga", "occu": 1}], "abc": [0.75, 0.42536045, 0.85101794], "properties": {"magmom": -0.017}, "label": "Ga", "xyz": [3.043125659983566, 1.7088197614590475, 4.303899755478213]}, {"species": [{"element": "Ga", "occu": 1}], "abc": [0.25, 0.57463955, 0.14898206], "properties": {"magmom": -0.017}, "label": "Ga", "xyz": [1.014374290016434, 2.3197303585409528, -0.04930855547821278]}]}, "task_ids": null, "uncorrected_energy_per_atom": null, "energy_per_atom": -22.0856982275, "formation_energy_per_atom": -0.751093177499999, "energy_above_hull": 0.0, "is_stable": true, "equilibrium_reaction_energy_per_atom": null, "decomposes_to": null, "xas": null, "grain_boundaries": null, "band_gap": 0.0, "cbm": null, "vbm": null, "efermi": 3.14004814, "is_gap_direct": null, "is_metal": null, "es_source_calc_id": null, "bandstructure": null, "dos": null, "dos_energy_up": null, "dos_energy_down": null, "is_magnetic": null, "ordering": null, "total_magnetization": 0.4893458, "total_magnetization_normalized_vol": null, "total_magnetization_normalized_formula_units": null, "num_magnetic_sites": null, "num_unique_magnetic_sites": null, "types_of_magnetic_species": null, "bulk_modulus": null, "shear_modulus": null, "universal_anisotropy": null, "homogeneous_poisson": null, "e_total": null, "e_ionic": null, "e_electronic": null, "n": null, "e_ij_max": null, "weighted_surface_energy_EV_PER_ANG2": null, "weighted_surface_energy": null, "weighted_work_function": null, "surface_anisotropy": null, "shape_factor": null, "has_reconstructed": null, "possible_species": null, "has_props": null, "theoretical": null, "database_IDs": null, "fields_not_requested": ["builder_meta", "nsites", "elements", "nelements", "composition", "composition_reduced", "chemsys", "symmetry", "property_name", "deprecated", "deprecation_reasons", "last_updated", "origins", "warnings", "task_ids", "uncorrected_energy_per_atom", "equilibrium_reaction_energy_per_atom", "decomposes_to", "xas", "grain_boundaries", "cbm", "vbm", "is_gap_direct", "is_metal", "es_source_calc_id", "bandstructure", "dos", "dos_energy_up", "dos_energy_down", "is_magnetic", "ordering", "total_magnetization_normalized_vol", "total_magnetization_normalized_formula_units", "num_magnetic_sites", "num_unique_magnetic_sites", "types_of_magnetic_species", "bulk_modulus", "shear_modulus", "universal_anisotropy", "homogeneous_poisson", "e_total", "e_ionic", "e_electronic", "n", "e_ij_max", "weighted_surface_energy_EV_PER_ANG2", "weighted_surface_energy", "weighted_work_function", "surface_anisotropy", "shape_factor", "has_reconstructed", "possible_species", "has_props", "theoretical", "database_IDs"]}