{"builder_meta": null, "nsites": null, "elements": null, "nelements": null, "composition": null, "composition_reduced": null, "formula_pretty": "TbGe5", "formula_anonymous": "AB5", "chemsys": null, "volume": 121.44226102032614, "density": 7.139273709603318, "density_atomic": 20.240376836721023, "symmetry": null, "property_name": null, "material_id": "mp-1071473", "deprecated": null, "deprecation_reasons": null, "last_updated": null, "origins": null, "warnings": null, "structure": {"@module": "pymatgen.core.structure", "@class": "Structure", "charge": 0, "lattice": {"matrix": [[3.987566, 0.0, 0.0], [1.993783, 3.086819, 4.93311], [1.993783, -3.086819, 4.93311]], "pbc": [true, true, true], "a": 3.987566, "b": 6.151357286156447, "c": 6.151357286156447, "alpha": 60.23977995749213, "beta": 71.08768103260451, "gamma": 71.08768103260451, "volume": 121.44226102032614}, "properties": {}, "sites": [{"species": [{"element": "Tb", "occu": 1}], "abc": [0.0, 0.0, 0.0], "properties": {"magmom": 0.0}, "label": "Tb", "xyz": [0.0, 0.0, 0.0]}, {"species": [{"element": "Ge", "occu": 1}], "abc": [0.331424, 0.460331999999999, 0.876821], "properties": {"magmom": -0.0}, "label": "Ge", "xyz": [3.9875679937829984, -1.285626158491003, 6.596322835829995]}, {"species": [{"element": "Ge", "occu": 1}], "abc": [0.668576, 0.539667999999999, 0.123179], "properties": {"magmom": -0.0}, "label": "Ge", "xyz": [3.9875640062169984, 1.2856261584909972, 3.2698971641699957]}, {"species": [{"element": "Ge", "occu": 1}], "abc": [0.668577, 0.123179, 0.539667], "properties": {"magmom": -0.0}, "label": "Ge", "xyz": [3.987566, -1.285623071672, 3.26989223106]}, {"species": [{"element": "Ge", "occu": 1}], "abc": [0.331422999999999, 0.876821, 0.460333], "properties": {"magmom": -0.0}, "label": "Ge", "xyz": [3.987565999999996, 1.2856230716719999, 6.59632776894]}, {"species": [{"element": "Ge", "occu": 1}], "abc": [0.0, 0.5, 0.5], "properties": {"magmom": -0.0}, "label": "Ge", "xyz": [1.993783, 0.0, 4.93311]}]}, "task_ids": null, "uncorrected_energy_per_atom": null, "energy_per_atom": -17.02078817694444, "formation_energy_per_atom": -0.256401168611108, "energy_above_hull": 0.09777429833333401, "is_stable": false, "equilibrium_reaction_energy_per_atom": null, "decomposes_to": null, "xas": null, "grain_boundaries": null, "band_gap": 0.0, "cbm": null, "vbm": null, "efermi": 6.05084209, "is_gap_direct": null, "is_metal": null, "es_source_calc_id": null, "bandstructure": null, "dos": null, "dos_energy_up": null, "dos_energy_down": null, "is_magnetic": null, "ordering": null, "total_magnetization": 2.5700000000000005e-05, "total_magnetization_normalized_vol": null, "total_magnetization_normalized_formula_units": null, "num_magnetic_sites": null, "num_unique_magnetic_sites": null, "types_of_magnetic_species": null, "bulk_modulus": null, "shear_modulus": null, "universal_anisotropy": null, "homogeneous_poisson": null, "e_total": null, "e_ionic": null, "e_electronic": null, "n": null, "e_ij_max": null, "weighted_surface_energy_EV_PER_ANG2": null, "weighted_surface_energy": null, "weighted_work_function": null, "surface_anisotropy": null, "shape_factor": null, "has_reconstructed": null, "possible_species": null, "has_props": null, "theoretical": null, "database_IDs": null, "fields_not_requested": ["builder_meta", "nsites", "elements", "nelements", "composition", "composition_reduced", "chemsys", "symmetry", "property_name", "deprecated", "deprecation_reasons", "last_updated", "origins", "warnings", "task_ids", "uncorrected_energy_per_atom", "equilibrium_reaction_energy_per_atom", "decomposes_to", "xas", "grain_boundaries", "cbm", "vbm", "is_gap_direct", "is_metal", "es_source_calc_id", "bandstructure", "dos", "dos_energy_up", "dos_energy_down", "is_magnetic", "ordering", "total_magnetization_normalized_vol", "total_magnetization_normalized_formula_units", "num_magnetic_sites", "num_unique_magnetic_sites", "types_of_magnetic_species", "bulk_modulus", "shear_modulus", "universal_anisotropy", "homogeneous_poisson", "e_total", "e_ionic", "e_electronic", "n", "e_ij_max", "weighted_surface_energy_EV_PER_ANG2", "weighted_surface_energy", "weighted_work_function", "surface_anisotropy", "shape_factor", "has_reconstructed", "possible_species", "has_props", "theoretical", "database_IDs"]}