{"builder_meta": null, "nsites": null, "elements": null, "nelements": null, "composition": null, "composition_reduced": null, "formula_pretty": "TbGe2", "formula_anonymous": "AB2", "chemsys": null, "volume": 133.88425667214187, "density": 7.545993539490367, "density_atomic": 22.31404277869031, "symmetry": null, "property_name": null, "material_id": "mp-1071768", "deprecated": null, "deprecation_reasons": null, "last_updated": null, "origins": null, "warnings": null, "structure": {"@module": "pymatgen.core.structure", "@class": "Structure", "charge": 0, "lattice": {"matrix": [[-1.993947, 1.993947, 8.418647], [1.993947, -1.993947, 8.418647], [1.993947, 1.993947, -8.418647]], "pbc": [true, true, true], "a": 8.878359453650601, "b": 8.878359453650601, "c": 8.878359453650601, "alpha": 154.0430397389401, "beta": 154.0430397389401, "gamma": 37.03705014956964, "volume": 133.88425667214187}, "properties": {}, "sites": [{"species": [{"element": "Tb", "occu": 1}], "abc": [0.75, 0.25, 0.5], "properties": {"magmom": -0.0}, "label": "Tb", "xyz": [1.1102230246251565e-16, 1.993947, 4.2093235]}, {"species": [{"element": "Tb", "occu": 1}], "abc": [0.0, 0.0, 0.0], "properties": {"magmom": -0.0}, "label": "Tb", "xyz": [0.0, 0.0, 0.0]}, {"species": [{"element": "Ge", "occu": 1}], "abc": [0.172164999999999, 0.672165, 0.5], "properties": {"magmom": -0.0}, "label": "Ge", "xyz": [1.993947000000002, -1.9984014443252818e-15, 2.8987927215099916]}, {"species": [{"element": "Ge", "occu": 1}], "abc": [0.577835, 0.577835, 0.0], "properties": {"magmom": -0.0}, "label": "Ge", "xyz": [0.0, 0.0, 9.72917777849]}, {"species": [{"element": "Ge", "occu": 1}], "abc": [0.327835, 0.827835, 0.5], "properties": {"magmom": -0.0}, "label": "Ge", "xyz": [1.993947, 1.1102230246251565e-16, 5.5198542784899995]}, {"species": [{"element": "Ge", "occu": 1}], "abc": [0.422164999999999, 0.422164999999999, 0.0], "properties": {"magmom": -0.0}, "label": "Ge", "xyz": [0.0, 0.0, 7.108116221509984]}]}, "task_ids": null, "uncorrected_energy_per_atom": null, "energy_per_atom": -20.260316595555555, "formation_energy_per_atom": -0.603520158888888, "energy_above_hull": 0.104830774999999, "is_stable": false, "equilibrium_reaction_energy_per_atom": null, "decomposes_to": null, "xas": null, "grain_boundaries": null, "band_gap": 0.0, "cbm": null, "vbm": null, "efermi": 5.28911066, "is_gap_direct": null, "is_metal": null, "es_source_calc_id": null, "bandstructure": null, "dos": null, "dos_energy_up": null, "dos_energy_down": null, "is_magnetic": null, "ordering": null, "total_magnetization": 0.0072716, "total_magnetization_normalized_vol": null, "total_magnetization_normalized_formula_units": null, "num_magnetic_sites": null, "num_unique_magnetic_sites": null, "types_of_magnetic_species": null, "bulk_modulus": null, "shear_modulus": null, "universal_anisotropy": null, "homogeneous_poisson": null, "e_total": null, "e_ionic": null, "e_electronic": null, "n": null, "e_ij_max": null, "weighted_surface_energy_EV_PER_ANG2": null, "weighted_surface_energy": null, "weighted_work_function": null, "surface_anisotropy": null, "shape_factor": null, "has_reconstructed": null, "possible_species": null, "has_props": null, "theoretical": null, "database_IDs": null, "fields_not_requested": ["builder_meta", "nsites", "elements", "nelements", "composition", "composition_reduced", "chemsys", "symmetry", "property_name", "deprecated", "deprecation_reasons", "last_updated", "origins", "warnings", "task_ids", "uncorrected_energy_per_atom", "equilibrium_reaction_energy_per_atom", "decomposes_to", "xas", "grain_boundaries", "cbm", "vbm", "is_gap_direct", "is_metal", "es_source_calc_id", "bandstructure", "dos", "dos_energy_up", "dos_energy_down", "is_magnetic", "ordering", "total_magnetization_normalized_vol", "total_magnetization_normalized_formula_units", "num_magnetic_sites", "num_unique_magnetic_sites", "types_of_magnetic_species", "bulk_modulus", "shear_modulus", "universal_anisotropy", "homogeneous_poisson", "e_total", "e_ionic", "e_electronic", "n", "e_ij_max", "weighted_surface_energy_EV_PER_ANG2", "weighted_surface_energy", "weighted_work_function", "surface_anisotropy", "shape_factor", "has_reconstructed", "possible_species", "has_props", "theoretical", "database_IDs"]}