{"builder_meta": null, "nsites": null, "elements": null, "nelements": null, "composition": null, "composition_reduced": null, "formula_pretty": "TbGe", "formula_anonymous": "AB", "chemsys": null, "volume": 91.21469192604096, "density": 8.4311705061216, "density_atomic": 22.80367298151024, "symmetry": null, "property_name": null, "material_id": "mp-1405", "deprecated": null, "deprecation_reasons": null, "last_updated": null, "origins": null, "warnings": null, "structure": {"@module": "pymatgen.core.structure", "@class": "Structure", "charge": 0, "lattice": {"matrix": [[4.29622219, 0.0, 0.0], [-2.14811109, 5.36677674, -0.0], [0.0, 0.0, 3.95607515]], "pbc": [true, true, true], "a": 4.29622219, "b": 5.780715685102149, "c": 3.95607515, "alpha": 90.0, "beta": 90.0, "gamma": 111.81429679627804, "volume": 91.21469192604096}, "properties": {}, "sites": [{"species": [{"element": "Tb", "occu": 1}], "abc": [0.13829805, 0.2765931, 0.75], "properties": {"magmom": -0.0}, "label": "Tb", "xyz": [6.445716250524924e-06, 1.484413415524494, 2.9670563625]}, {"species": [{"element": "Tb", "occu": 1}], "abc": [0.86170295, 0.7234069, 0.25], "properties": {"magmom": -0.0}, "label": "Tb", "xyz": [2.1481089505059394, 3.882363324475506, 0.9890187875]}, {"species": [{"element": "Ge", "occu": 1}], "abc": [0.58437954, 0.16875807, 0.25], "properties": {"magmom": -0.0}, "label": "Ge", "xyz": [2.1481132654359962, 0.9056868847632918, 0.9890187875]}, {"species": [{"element": "Ge", "occu": 1}], "abc": [0.41562046, 0.83124193, 0.75], "properties": {"magmom": -0.0}, "label": "Ge", "xyz": [-2.1654359962930414e-06, 4.461089855236708, 2.9670563625]}]}, "task_ids": null, "uncorrected_energy_per_atom": null, "energy_per_atom": -23.533856725, "formation_energy_per_atom": -0.9846508600000021, "energy_above_hull": 0.0, "is_stable": true, "equilibrium_reaction_energy_per_atom": null, "decomposes_to": null, "xas": null, "grain_boundaries": null, "band_gap": 0.0, "cbm": null, "vbm": null, "efermi": 4.97193487, "is_gap_direct": null, "is_metal": null, "es_source_calc_id": null, "bandstructure": null, "dos": null, "dos_energy_up": null, "dos_energy_down": null, "is_magnetic": null, "ordering": null, "total_magnetization": 3.799999999999998e-06, "total_magnetization_normalized_vol": null, "total_magnetization_normalized_formula_units": null, "num_magnetic_sites": null, "num_unique_magnetic_sites": null, "types_of_magnetic_species": null, "bulk_modulus": null, "shear_modulus": null, "universal_anisotropy": null, "homogeneous_poisson": null, "e_total": null, "e_ionic": null, "e_electronic": null, "n": null, "e_ij_max": null, "weighted_surface_energy_EV_PER_ANG2": null, "weighted_surface_energy": null, "weighted_work_function": null, "surface_anisotropy": null, "shape_factor": null, "has_reconstructed": null, "possible_species": null, "has_props": null, "theoretical": null, "database_IDs": null, "fields_not_requested": ["builder_meta", "nsites", "elements", "nelements", "composition", "composition_reduced", "chemsys", "symmetry", "property_name", "deprecated", "deprecation_reasons", "last_updated", "origins", "warnings", "task_ids", "uncorrected_energy_per_atom", "equilibrium_reaction_energy_per_atom", "decomposes_to", "xas", "grain_boundaries", "cbm", "vbm", "is_gap_direct", "is_metal", "es_source_calc_id", "bandstructure", "dos", "dos_energy_up", "dos_energy_down", "is_magnetic", "ordering", "total_magnetization_normalized_vol", "total_magnetization_normalized_formula_units", "num_magnetic_sites", "num_unique_magnetic_sites", "types_of_magnetic_species", "bulk_modulus", "shear_modulus", "universal_anisotropy", "homogeneous_poisson", "e_total", "e_ionic", "e_electronic", "n", "e_ij_max", "weighted_surface_energy_EV_PER_ANG2", "weighted_surface_energy", "weighted_work_function", "surface_anisotropy", "shape_factor", "has_reconstructed", "possible_species", "has_props", "theoretical", "database_IDs"]}