{"builder_meta": null, "nsites": null, "elements": null, "nelements": null, "composition": null, "composition_reduced": null, "formula_pretty": "TbGe3", "formula_anonymous": "AB3", "chemsys": null, "volume": 165.05289369739344, "density": 7.582616841469318, "density_atomic": 20.63161171217418, "symmetry": null, "property_name": null, "material_id": "mp-1025491", "deprecated": null, "deprecation_reasons": null, "last_updated": null, "origins": null, "warnings": null, "structure": {"@module": "pymatgen.core.structure", "@class": "Structure", "charge": 0, "lattice": {"matrix": [[-2.5e-07, 3.799999999999998e-06, 3.89424577], [4.02250508, -0.00050421, -2.6e-07], [-2.01258964, 10.53691757, 1.0440000000000002e-05]], "pbc": [true, true, true], "a": 3.894245770001862, "b": 4.0225051116006805, "c": 10.72740177937412, "alpha": 100.82063964205292, "beta": 89.99988863279121, "gamma": 90.0000073886308, "volume": 165.05289369739344}, "properties": {}, "sites": [{"species": [{"element": "Tb", "occu": 1}], "abc": [0.25000057, 0.91616821, 0.83233428], "properties": {"magmom": -0.0}, "label": "Tb", "xyz": [2.010143867414506, 8.769776707874302, 0.9735721135862374]}, {"species": [{"element": "Tb", "occu": 1}], "abc": [0.74999943, 0.0838416, 0.16768475], "properties": {"magmom": -0.0}, "label": "Tb", "xyz": [-0.00022751622051941922, 1.7668409647207552, 2.920683836609885]}, {"species": [{"element": "Ge", "occu": 1}], "abc": [0.25000271, 0.19182029, 0.38469705], "properties": {"magmom": -0.0}, "label": "Ge", "xyz": [-0.002639268897166258, 4.053425337574046, 0.9735759622699633]}, {"species": [{"element": "Ge", "occu": 1}], "abc": [0.74999729, 0.80818493, 0.6153136], "properties": {"magmom": 0.0}, "label": "Ge", "xyz": [2.0125540222940184, 6.483104037966099, 2.9206799878398657]}, {"species": [{"element": "Ge", "occu": 1}], "abc": [0.25000236, 0.30819435, 0.61915146], "properties": {"magmom": 0.0}, "label": "Ge", "xyz": [-0.006384537985166361, 6.5237934527009065, 0.9735770167307285]}, {"species": [{"element": "Ge", "occu": 1}], "abc": [0.74999764, 0.69180922, 0.38085483000000003], "properties": {"magmom": -0.0}, "label": "Ge", "xyz": [2.0163014291394665, 4.0126899827105795, 2.920678933334011]}, {"species": [{"element": "Ge", "occu": 1}], "abc": [0.25000018, 0.53809267, 0.07550199], "properties": {"magmom": -0.0}, "label": "Ge", "xyz": [2.012525913212335, 0.7952878832965077, 0.9735627918009201]}, {"species": [{"element": "Ge", "occu": 1}], "abc": [0.74999981, 0.46188872000000003, 0.92446203], "properties": {"magmom": -0.0}, "label": "Ge", "xyz": [-0.0026131690566237875, 9.740750167792633, 2.9206931188858296]}]}, "task_ids": null, "uncorrected_energy_per_atom": null, "energy_per_atom": -18.6942357825, "formation_energy_per_atom": -0.48364406000000304, "energy_above_hull": 0.047619140416664006, "is_stable": false, "equilibrium_reaction_energy_per_atom": null, "decomposes_to": null, "xas": null, "grain_boundaries": null, "band_gap": 0.0, "cbm": null, "vbm": null, "efermi": 5.5892927, "is_gap_direct": null, "is_metal": null, "es_source_calc_id": null, "bandstructure": null, "dos": null, "dos_energy_up": null, "dos_energy_down": null, "is_magnetic": null, "ordering": null, "total_magnetization": 0.0, "total_magnetization_normalized_vol": null, "total_magnetization_normalized_formula_units": null, "num_magnetic_sites": null, "num_unique_magnetic_sites": null, "types_of_magnetic_species": null, "bulk_modulus": null, "shear_modulus": null, "universal_anisotropy": null, "homogeneous_poisson": null, "e_total": null, "e_ionic": null, "e_electronic": null, "n": null, "e_ij_max": null, "weighted_surface_energy_EV_PER_ANG2": null, "weighted_surface_energy": null, "weighted_work_function": null, "surface_anisotropy": null, "shape_factor": null, "has_reconstructed": null, "possible_species": null, "has_props": null, "theoretical": null, "database_IDs": null, "fields_not_requested": ["builder_meta", "nsites", "elements", "nelements", "composition", "composition_reduced", "chemsys", "symmetry", "property_name", "deprecated", "deprecation_reasons", "last_updated", "origins", "warnings", "task_ids", "uncorrected_energy_per_atom", "equilibrium_reaction_energy_per_atom", "decomposes_to", "xas", "grain_boundaries", "cbm", "vbm", "is_gap_direct", "is_metal", "es_source_calc_id", "bandstructure", "dos", "dos_energy_up", "dos_energy_down", "is_magnetic", "ordering", "total_magnetization_normalized_vol", "total_magnetization_normalized_formula_units", "num_magnetic_sites", "num_unique_magnetic_sites", "types_of_magnetic_species", "bulk_modulus", "shear_modulus", "universal_anisotropy", "homogeneous_poisson", "e_total", "e_ionic", "e_electronic", "n", "e_ij_max", "weighted_surface_energy_EV_PER_ANG2", "weighted_surface_energy", "weighted_work_function", "surface_anisotropy", "shape_factor", "has_reconstructed", "possible_species", "has_props", "theoretical", "database_IDs"]}