{"builder_meta": null, "nsites": null, "elements": null, "nelements": null, "composition": null, "composition_reduced": null, "formula_pretty": "TbH3", "formula_anonymous": "AB3", "chemsys": null, "volume": 232.14878292492944, "density": 6.950445835645161, "density_atomic": 9.672865955205394, "symmetry": null, "property_name": null, "material_id": "mp-982384", "deprecated": null, "deprecation_reasons": null, "last_updated": null, "origins": null, "warnings": null, "structure": {"@module": "pymatgen.core.structure", "@class": "Structure", "charge": 0, "lattice": {"matrix": [[6.35832169, 2e-08, -0.0], [-3.17915984, 5.50646999, -1e-08], [0.0, -1.029999999999998e-06, 6.63056653]], "pbc": [true, true, true], "a": 6.35832169, "b": 6.358322816516902, "c": 6.63056653000008, "alpha": 90.0000077980798, "beta": 90.00000000000001, "gamma": 119.99998350177331, "volume": 232.14878292492944}, "properties": {}, "sites": [{"species": [{"element": "Tb", "occu": 1}], "abc": [6.599999999999997e-07, 0.66281087, 0.24999977], "properties": {"magmom": -0.0}, "label": "Tb", "xyz": [-2.107177502927146, 3.649747907201042, 1.6576401008415895]}, {"species": [{"element": "Tb", "occu": 1}], "abc": [0.33718913, 0.33718879, 0.24999977], "properties": {"magmom": -0.0}, "label": "Tb", "xyz": [1.071979899245036, 1.8567197023434319, 1.6576401040978104]}, {"species": [{"element": "Tb", "occu": 1}], "abc": [0.6628102100000001, 3.4e-07, 0.24999977], "properties": {"magmom": -0.0}, "label": "Tb", "xyz": [4.21435945368211, 1.6279562377000006e-06, 1.657640107469695]}, {"species": [{"element": "Tb", "occu": 1}], "abc": [0.66281187, 0.66281121, 0.75000023], "properties": {"magmom": -0.0}, "label": "Tb", "xyz": [2.107188309076654, 3.6497492776565883, 4.97292641590219]}, {"species": [{"element": "Tb", "occu": 1}], "abc": [-6.599999999999997e-07, 0.33718913, 0.75000023], "properties": {"magmom": -0.0}, "label": "Tb", "xyz": [-1.0719823370728547, 1.8567210527989588, 4.972926419158411]}, {"species": [{"element": "Tb", "occu": 1}], "abc": [0.33718879, -3.4e-07, 0.75000023], "properties": {"magmom": -0.0}, "label": "Tb", "xyz": [2.1439558779962007, -2.6379562576999986e-06, 4.972926422530306]}, {"species": [{"element": "H", "occu": 1}], "abc": [0.67946008, 0.64855544, 0.09086079], "properties": {"magmom": 0.0}, "label": "H", "xyz": [2.2583643552916057, 3.571250987213834, 0.6024585065778043]}, {"species": [{"element": "H", "occu": 1}], "abc": [0.35144456, 0.03090464, 0.09086079], "properties": {"magmom": 0.0}, "label": "H", "xyz": [2.136346778322849, 0.1701753861540311, 0.6024585127543123]}, {"species": [{"element": "H", "occu": 1}], "abc": [0.9690953600000001, 0.32053992000000003, 0.09086079], "properties": {"magmom": 0.0}, "label": "H", "xyz": [5.1427724063855464, 1.7650433758722945, 0.6024585098579596]}, {"species": [{"element": "H", "occu": 1}], "abc": [0.333333, 0.666667, 0.18694879], "properties": {"magmom": 0.0}, "label": "H", "xyz": [-2.509160510033581e-06, 3.6709816429327367, 1.2395763831313287]}, {"species": [{"element": "H", "occu": 1}], "abc": [0.0, 1e-06, 0.24999871], "properties": {"magmom": -0.0}, "label": "H", "xyz": [-3.17915984e-06, 5.248971318700001e-06, 1.6576330790691665]}, {"species": [{"element": "H", "occu": 1}], "abc": [0.666666, 0.333333, 0.31304888000000003], "properties": {"magmom": -0.0}, "label": "H", "xyz": [3.1791580008388207, 1.8354878520696436, 2.0756914226486565]}, {"species": [{"element": "H", "occu": 1}], "abc": [0.03090547, 0.35144573, 0.40913936], "properties": {"magmom": 0.0}, "label": "H", "xyz": [-0.9207952305148389, 1.9352249445632115, 2.712825743007164]}, {"species": [{"element": "H", "occu": 1}], "abc": [0.64855427, 0.67946074, 0.40913936], "properties": {"magmom": 0.0}, "label": "H", "xyz": [1.9636023846184343, 3.7414297657507376, 2.7128257397270135]}, {"species": [{"element": "H", "occu": 1}], "abc": [0.32053926, 0.96909453, 0.40913936], "properties": {"magmom": 0.0}, "label": "H", "xyz": [-1.042814681585126, 5.3362895319154, 2.7128257368306756]}, {"species": [{"element": "H", "occu": 1}], "abc": [0.67946074, 0.030906470000000002, 0.59086064], "properties": {"magmom": 0.0}, "label": "H", "xyz": [4.221973352425286, 0.17018495455459093, 3.917740783169315]}, {"species": [{"element": "H", "occu": 1}], "abc": [0.35144573, 0.32054026, 0.59086064], "properties": {"magmom": 0.0}, "label": "H", "xyz": [1.2155562862217253, 1.765044720719253, 3.917740780272977]}, {"species": [{"element": "H", "occu": 1}], "abc": [0.96909453, 0.64855427, 0.59086064], "properties": {"magmom": 0.0}, "label": "H", "xyz": [4.099957080514839, 3.571244035436789, 3.917740776992837]}, {"species": [{"element": "H", "occu": 1}], "abc": [0.333333999999999, 0.666667, 0.68695112], "properties": {"magmom": -0.0}, "label": "H", "xyz": [3.849161173796745e-06, 3.670981127930357, 4.554875097351344]}, {"species": [{"element": "H", "occu": 1}], "abc": [-0.0, -0.0, 0.75000029], "properties": {"magmom": -0.0}, "label": "H", "xyz": [0.0, -7.725002986999985e-07, 4.972926820364294]}, {"species": [{"element": "H", "occu": 1}], "abc": [0.666667, 0.333333999999999, 0.81305121], "properties": {"magmom": 0.0}, "label": "H", "xyz": [3.179161180000673, 1.8354928435372484, 5.390990136868662]}, {"species": [{"element": "H", "occu": 1}], "abc": [0.03090464, 0.67946008, 0.90913921], "properties": {"magmom": 0.0}, "label": "H", "xyz": [-1.9636105563855455, 3.7414256041277056, 6.028108010142041]}, {"species": [{"element": "H", "occu": 1}], "abc": [0.64855544, 0.9690953600000001, 0.90913921], "properties": {"magmom": 0.0}, "label": "H", "xyz": [1.0428150716771505, 5.33629359384597, 6.028108007245687]}, {"species": [{"element": "H", "occu": 1}], "abc": [0.32053992000000003, 0.35144456, 0.90913921], "properties": {"magmom": 0.0}, "label": "H", "xyz": [0.9207974947083948, 1.9352179927861666, 6.028108013422195]}]}, "task_ids": null, "uncorrected_energy_per_atom": null, "energy_per_atom": -11.120175309166667, "formation_energy_per_atom": -0.7222324707291671, "energy_above_hull": 0.0, "is_stable": true, "equilibrium_reaction_energy_per_atom": null, "decomposes_to": null, "xas": null, "grain_boundaries": null, "band_gap": 0.0, "cbm": null, "vbm": null, "efermi": 2.57994652, "is_gap_direct": null, "is_metal": null, "es_source_calc_id": null, "bandstructure": null, "dos": null, "dos_energy_up": null, "dos_energy_down": null, "is_magnetic": null, "ordering": null, "total_magnetization": 0.0, "total_magnetization_normalized_vol": null, "total_magnetization_normalized_formula_units": null, "num_magnetic_sites": null, "num_unique_magnetic_sites": null, "types_of_magnetic_species": null, "bulk_modulus": null, "shear_modulus": null, "universal_anisotropy": null, "homogeneous_poisson": null, "e_total": null, "e_ionic": null, "e_electronic": null, "n": null, "e_ij_max": null, "weighted_surface_energy_EV_PER_ANG2": null, "weighted_surface_energy": null, "weighted_work_function": null, "surface_anisotropy": null, "shape_factor": null, "has_reconstructed": null, "possible_species": null, "has_props": null, "theoretical": null, "database_IDs": null, "fields_not_requested": ["builder_meta", "nsites", "elements", "nelements", "composition", "composition_reduced", "chemsys", "symmetry", "property_name", "deprecated", "deprecation_reasons", "last_updated", "origins", "warnings", "task_ids", "uncorrected_energy_per_atom", "equilibrium_reaction_energy_per_atom", "decomposes_to", "xas", "grain_boundaries", "cbm", "vbm", "is_gap_direct", "is_metal", "es_source_calc_id", "bandstructure", "dos", "dos_energy_up", "dos_energy_down", "is_magnetic", "ordering", "total_magnetization_normalized_vol", "total_magnetization_normalized_formula_units", "num_magnetic_sites", "num_unique_magnetic_sites", "types_of_magnetic_species", "bulk_modulus", "shear_modulus", "universal_anisotropy", "homogeneous_poisson", "e_total", "e_ionic", "e_electronic", "n", "e_ij_max", "weighted_surface_energy_EV_PER_ANG2", "weighted_surface_energy", "weighted_work_function", "surface_anisotropy", "shape_factor", "has_reconstructed", "possible_species", "has_props", "theoretical", "database_IDs"]}