{"builder_meta": null, "nsites": null, "elements": null, "nelements": null, "composition": null, "composition_reduced": null, "formula_pretty": "TbHg3", "formula_anonymous": "AB3", "chemsys": null, "volume": 188.1141577284292, "density": 13.429763731866753, "density_atomic": 23.51426971605365, "symmetry": null, "property_name": null, "material_id": "mp-867288", "deprecated": null, "deprecation_reasons": null, "last_updated": null, "origins": null, "warnings": null, "structure": {"@module": "pymatgen.core.structure", "@class": "Structure", "charge": 0, "lattice": {"matrix": [[6.62477376, 1e-08, 0.0], [-3.31238586, 5.7372212099999995, 0.0], [0.0, -0.0, 4.94935762]], "pbc": [true, true, true], "a": 6.62477376, "b": 6.624772244990902, "c": 4.94935762, "alpha": 90.0, "beta": 90.0, "gamma": 119.99999729205533, "volume": 188.11415772842918}, "properties": {}, "sites": [{"species": [{"element": "Tb", "occu": 1}], "abc": [0.333333, 0.666666, 0.75], "properties": {"magmom": 0.0}, "label": "Tb", "xyz": [6.799993199635423e-07, 3.8248103185191895, 3.7120182149999996]}, {"species": [{"element": "Tb", "occu": 1}], "abc": [0.666666, 0.333331999999999, 0.250001], "properties": {"magmom": 0.0}, "label": "Tb", "xyz": [3.3123872199986426, 1.9123994270383742, 1.23734435435762]}, {"species": [{"element": "Hg", "occu": 1}], "abc": [0.16532784, 0.33065567, 0.250001], "properties": {"magmom": 0.0}, "label": "Hg", "xyz": [3.7039265210481176e-07, 1.897044724784039, 1.23734435435762]}, {"species": [{"element": "Hg", "occu": 1}], "abc": [0.66934333, 0.83467216, 0.250001], "properties": {"magmom": 0.0}, "label": "Hg", "xyz": [1.6694918684953635, 4.788698826441946, 1.23734435435762]}, {"species": [{"element": "Hg", "occu": 1}], "abc": [0.16532884, 0.83467216, 0.250001], "properties": {"magmom": 0.0}, "label": "Hg", "xyz": [-1.6694900995164192, 4.788698821401801, 1.23734435435762]}, {"species": [{"element": "Hg", "occu": 1}], "abc": [0.83467216, 0.66934433, 0.75], "properties": {"magmom": 0.0}, "label": "Hg", "xyz": [3.312387529607348, 3.8401764952159607, 3.7120182149999996]}, {"species": [{"element": "Hg", "occu": 1}], "abc": [0.33065767, 0.16532884, 0.75], "properties": {"magmom": 0.0}, "label": "Hg", "xyz": [1.6428993438925368, 0.948528130779273, 3.7120182149999996]}, {"species": [{"element": "Hg", "occu": 1}], "abc": [0.83467216, 0.16532884, 0.75], "properties": {"magmom": 0.0}, "label": "Hg", "xyz": [4.98188131190432, 0.948528135819418, 3.7120182149999996]}]}, "task_ids": null, "uncorrected_energy_per_atom": null, "energy_per_atom": -45.253668365, "formation_energy_per_atom": -0.42120493562500605, "energy_above_hull": 0.0, "is_stable": true, "equilibrium_reaction_energy_per_atom": null, "decomposes_to": null, "xas": null, "grain_boundaries": null, "band_gap": 0.0, "cbm": null, "vbm": null, "efermi": 3.52624685, "is_gap_direct": null, "is_metal": null, "es_source_calc_id": null, "bandstructure": null, "dos": null, "dos_energy_up": null, "dos_energy_down": null, "is_magnetic": null, "ordering": null, "total_magnetization": 4e-07, "total_magnetization_normalized_vol": null, "total_magnetization_normalized_formula_units": null, "num_magnetic_sites": null, "num_unique_magnetic_sites": null, "types_of_magnetic_species": null, "bulk_modulus": null, "shear_modulus": null, "universal_anisotropy": null, "homogeneous_poisson": null, "e_total": null, "e_ionic": null, "e_electronic": null, "n": null, "e_ij_max": null, "weighted_surface_energy_EV_PER_ANG2": null, "weighted_surface_energy": null, "weighted_work_function": null, "surface_anisotropy": null, "shape_factor": null, "has_reconstructed": null, "possible_species": null, "has_props": null, "theoretical": null, "database_IDs": null, "fields_not_requested": ["builder_meta", "nsites", "elements", "nelements", "composition", "composition_reduced", "chemsys", "symmetry", "property_name", "deprecated", "deprecation_reasons", "last_updated", "origins", "warnings", "task_ids", "uncorrected_energy_per_atom", "equilibrium_reaction_energy_per_atom", "decomposes_to", "xas", "grain_boundaries", "cbm", "vbm", "is_gap_direct", "is_metal", "es_source_calc_id", "bandstructure", "dos", "dos_energy_up", "dos_energy_down", "is_magnetic", "ordering", "total_magnetization_normalized_vol", "total_magnetization_normalized_formula_units", "num_magnetic_sites", "num_unique_magnetic_sites", "types_of_magnetic_species", "bulk_modulus", "shear_modulus", "universal_anisotropy", "homogeneous_poisson", "e_total", "e_ionic", "e_electronic", "n", "e_ij_max", "weighted_surface_energy_EV_PER_ANG2", "weighted_surface_energy", "weighted_work_function", "surface_anisotropy", "shape_factor", "has_reconstructed", "possible_species", "has_props", "theoretical", "database_IDs"]}