{
  "builder_meta": null,
  "nsites": null,
  "elements": null,
  "nelements": null,
  "composition": null,
  "composition_reduced": null,
  "formula_pretty": "TbI3",
  "formula_anonymous": "AB3",
  "chemsys": null,
  "volume": 437.8108120223618,
  "density": 4.09350896882744,
  "density_atomic": 54.726351502795225,
  "symmetry": null,
  "property_name": null,
  "material_id": "mp-863264",
  "deprecated": null,
  "deprecation_reasons": null,
  "last_updated": null,
  "origins": null,
  "warnings": null,
  "structure": {
    "@module": "pymatgen.core.structure",
    "@class": "Structure",
    "charge": 0,
    "lattice": {
      "matrix": [
        [11.23011483, -1e-8, 0.0],
        [-5.61505842, 9.72556544, -0.0],
        [-0.0, 0.0, 4.00855111]
      ],
      "pbc": [true, true, true],
      "a": 11.23011483,
      "b": 11.230115947207993,
      "c": 4.00855111,
      "alpha": 90.0,
      "beta": 90.0,
      "gamma": 120.00000268085212,
      "volume": 437.8108120223618
    },
    "properties": {},
    "sites": [
      {
        "species": [{ "element": "Tb", "occu": 1 }],
        "abc": [0.333333, 0.666667, 0.749999],
        "properties": { "magmom": 0.0 },
        "label": "Tb",
        "xyz": [-6.2850577506878835e-6, 6.48371353185515, 3.00640932394889]
      },
      {
        "species": [{ "element": "Tb", "occu": 1 }],
        "abc": [0.666667, 0.333333, 0.25],
        "properties": { "magmom": 0.0 },
        "label": "Tb",
        "xyz": [5.61506269505775, 3.24185189814485, 1.0021377775]
      },
      {
        "species": [{ "element": "I", "occu": 1 }],
        "abc": [0.21447559, 0.42895419, 0.25],
        "properties": { "magmom": -0.0 },
        "label": "I",
        "xyz": [-1.7332421780480445e-5, 4.171822043462439, 1.0021377775]
      },
      {
        "species": [{ "element": "I", "occu": 1 }],
        "abc": [0.57104781, 0.78552541, 0.25],
        "properties": { "magmom": -0.0 },
        "label": "I",
        "xyz": [2.00216141217557, 7.639678774027352, 1.0021377775]
      },
      {
        "species": [{ "element": "I", "occu": 1 }],
        "abc": [0.21447659, 0.78552541, 0.25],
        "properties": { "magmom": -0.0 },
        "label": "I",
        "xyz": [-2.0021743334976225, 7.639678777593065, 1.0021377775]
      },
      {
        "species": [{ "element": "I", "occu": 1 }],
        "abc": [0.7855244100000001, 0.57104781, 0.749999],
        "properties": { "magmom": -0.0 },
        "label": "I",
        "xyz": [5.61506251230494, 5.553762837668443, 3.00640932394889]
      },
      {
        "species": [{ "element": "I", "occu": 1 }],
        "abc": [0.42895419, 0.21447559, 0.749999],
        "properties": { "magmom": -0.0 },
        "label": "I",
        "xyz": [3.6129118429956697, 2.085896381538068, 3.00640932394889]
      },
      {
        "species": [{ "element": "I", "occu": 1 }],
        "abc": [0.7855244100000001, 0.21447559, 0.749999],
        "properties": { "magmom": -0.0 },
        "label": "I",
        "xyz": [7.617236358554033, 2.085896377972366, 3.00640932394889]
      }
    ]
  },
  "task_ids": null,
  "uncorrected_energy_per_atom": null,
  "energy_per_atom": -3.963803867500001,
  "formation_energy_per_atom": -1.661328500416667,
  "energy_above_hull": 0.0,
  "is_stable": true,
  "equilibrium_reaction_energy_per_atom": null,
  "decomposes_to": null,
  "xas": null,
  "grain_boundaries": null,
  "band_gap": 2.0929,
  "cbm": null,
  "vbm": null,
  "efermi": -0.34317167,
  "is_gap_direct": null,
  "is_metal": null,
  "es_source_calc_id": null,
  "bandstructure": null,
  "dos": null,
  "dos_energy_up": null,
  "dos_energy_down": null,
  "is_magnetic": null,
  "ordering": null,
  "total_magnetization": 0.0,
  "total_magnetization_normalized_vol": null,
  "total_magnetization_normalized_formula_units": null,
  "num_magnetic_sites": null,
  "num_unique_magnetic_sites": null,
  "types_of_magnetic_species": null,
  "bulk_modulus": null,
  "shear_modulus": null,
  "universal_anisotropy": null,
  "homogeneous_poisson": null,
  "e_total": null,
  "e_ionic": null,
  "e_electronic": null,
  "n": null,
  "e_ij_max": null,
  "weighted_surface_energy_EV_PER_ANG2": null,
  "weighted_surface_energy": null,
  "weighted_work_function": null,
  "surface_anisotropy": null,
  "shape_factor": null,
  "has_reconstructed": null,
  "possible_species": null,
  "has_props": null,
  "theoretical": null,
  "database_IDs": null,
  "fields_not_requested": [
    "builder_meta",
    "nsites",
    "elements",
    "nelements",
    "composition",
    "composition_reduced",
    "chemsys",
    "symmetry",
    "property_name",
    "deprecated",
    "deprecation_reasons",
    "last_updated",
    "origins",
    "warnings",
    "task_ids",
    "uncorrected_energy_per_atom",
    "equilibrium_reaction_energy_per_atom",
    "decomposes_to",
    "xas",
    "grain_boundaries",
    "cbm",
    "vbm",
    "is_gap_direct",
    "is_metal",
    "es_source_calc_id",
    "bandstructure",
    "dos",
    "dos_energy_up",
    "dos_energy_down",
    "is_magnetic",
    "ordering",
    "total_magnetization_normalized_vol",
    "total_magnetization_normalized_formula_units",
    "num_magnetic_sites",
    "num_unique_magnetic_sites",
    "types_of_magnetic_species",
    "bulk_modulus",
    "shear_modulus",
    "universal_anisotropy",
    "homogeneous_poisson",
    "e_total",
    "e_ionic",
    "e_electronic",
    "n",
    "e_ij_max",
    "weighted_surface_energy_EV_PER_ANG2",
    "weighted_surface_energy",
    "weighted_work_function",
    "surface_anisotropy",
    "shape_factor",
    "has_reconstructed",
    "possible_species",
    "has_props",
    "theoretical",
    "database_IDs"
  ]
}
