{"builder_meta": null, "nsites": null, "elements": null, "nelements": null, "composition": null, "composition_reduced": null, "formula_pretty": "TbIr2", "formula_anonymous": "AB2", "chemsys": null, "volume": 107.67920162257012, "density": 16.758471724928956, "density_atomic": 17.946533603761686, "symmetry": null, "property_name": null, "material_id": "mp-2725", "deprecated": null, "deprecation_reasons": null, "last_updated": null, "origins": null, "warnings": null, "structure": {"@module": "pymatgen.core.structure", "@class": "Structure", "charge": 0, "lattice": {"matrix": [[4.62465724, 0.0, 2.67004754], [1.5415527500000001, 4.36016864, 2.67004754], [0.0, -0.0, 5.34009508]], "pbc": [true, true, true], "a": 5.340094423635642, "b": 5.340094504419568, "c": 5.34009508, "alpha": 59.99999643451109, "beta": 59.99999593408713, "gamma": 59.99999417759839, "volume": 107.67920162257012}, "properties": {}, "sites": [{"species": [{"element": "Tb", "occu": 1}], "abc": [0.125, 0.125, 0.125], "properties": {"magmom": -0.0}, "label": "Tb", "xyz": [0.7707762487500001, 0.54502108, 1.33502377]}, {"species": [{"element": "Tb", "occu": 1}], "abc": [0.875, 0.875, 0.875], "properties": {"magmom": -0.0}, "label": "Tb", "xyz": [5.395433741250001, 3.81514756, 9.345166390000001]}, {"species": [{"element": "Ir", "occu": 1}], "abc": [0.0, 0.5, 0.5], "properties": {"magmom": 0.0}, "label": "Ir", "xyz": [0.7707763750000001, 2.18008432, 4.00507131]}, {"species": [{"element": "Ir", "occu": 1}], "abc": [0.5, -0.0, 0.5], "properties": {"magmom": 0.0}, "label": "Ir", "xyz": [2.31232862, 0.0, 4.00507131]}, {"species": [{"element": "Ir", "occu": 1}], "abc": [0.5, 0.5, -0.0], "properties": {"magmom": 0.0}, "label": "Ir", "xyz": [3.0831049950000002, 2.18008432, 2.67004754]}, {"species": [{"element": "Ir", "occu": 1}], "abc": [0.5, 0.5, 0.5], "properties": {"magmom": 0.0}, "label": "Ir", "xyz": [3.0831049950000002, 2.18008432, 5.34009508]}]}, "task_ids": null, "uncorrected_energy_per_atom": null, "energy_per_atom": -8.255805871666666, "formation_energy_per_atom": -0.8175618772222211, "energy_above_hull": 0.0, "is_stable": true, "equilibrium_reaction_energy_per_atom": null, "decomposes_to": null, "xas": null, "grain_boundaries": null, "band_gap": 0.0, "cbm": null, "vbm": null, "efermi": 6.96795834, "is_gap_direct": null, "is_metal": null, "es_source_calc_id": null, "bandstructure": null, "dos": null, "dos_energy_up": null, "dos_energy_down": null, "is_magnetic": null, "ordering": null, "total_magnetization": 1.8e-06, "total_magnetization_normalized_vol": null, "total_magnetization_normalized_formula_units": null, "num_magnetic_sites": null, "num_unique_magnetic_sites": null, "types_of_magnetic_species": null, "bulk_modulus": null, "shear_modulus": null, "universal_anisotropy": null, "homogeneous_poisson": null, "e_total": null, "e_ionic": null, "e_electronic": null, "n": null, "e_ij_max": null, "weighted_surface_energy_EV_PER_ANG2": null, "weighted_surface_energy": null, "weighted_work_function": null, "surface_anisotropy": null, "shape_factor": null, "has_reconstructed": null, "possible_species": null, "has_props": null, "theoretical": null, "database_IDs": null, "fields_not_requested": ["builder_meta", "nsites", "elements", "nelements", "composition", "composition_reduced", "chemsys", "symmetry", "property_name", "deprecated", "deprecation_reasons", "last_updated", "origins", "warnings", "task_ids", "uncorrected_energy_per_atom", "equilibrium_reaction_energy_per_atom", "decomposes_to", "xas", "grain_boundaries", "cbm", "vbm", "is_gap_direct", "is_metal", "es_source_calc_id", "bandstructure", "dos", "dos_energy_up", "dos_energy_down", "is_magnetic", "ordering", "total_magnetization_normalized_vol", "total_magnetization_normalized_formula_units", "num_magnetic_sites", "num_unique_magnetic_sites", "types_of_magnetic_species", "bulk_modulus", "shear_modulus", "universal_anisotropy", "homogeneous_poisson", "e_total", "e_ionic", "e_electronic", "n", "e_ij_max", "weighted_surface_energy_EV_PER_ANG2", "weighted_surface_energy", "weighted_work_function", "surface_anisotropy", "shape_factor", "has_reconstructed", "possible_species", "has_props", "theoretical", "database_IDs"]}