{
  "builder_meta": null,
  "nsites": null,
  "elements": null,
  "nelements": null,
  "composition": null,
  "composition_reduced": null,
  "formula_pretty": "TbMg2",
  "formula_anonymous": "AB2",
  "chemsys": null,
  "volume": 310.61655232062805,
  "density": 4.437890431798705,
  "density_atomic": 25.88471269338567,
  "symmetry": null,
  "property_name": null,
  "material_id": "mp-11497",
  "deprecated": null,
  "deprecation_reasons": null,
  "last_updated": null,
  "origins": null,
  "warnings": null,
  "structure": {
    "@module": "pymatgen.core.structure",
    "@class": "Structure",
    "charge": 0,
    "lattice": {
      "matrix": [
        [3.02529083, -5.2399575, 0.0],
        [3.02529083, 5.2399575, -0.0],
        [-0.0, -0.0, 9.79714879]
      ],
      "pbc": [true, true, true],
      "a": 6.050581724750798,
      "b": 6.050581724750798,
      "c": 9.79714879,
      "alpha": 90.0,
      "beta": 90.0,
      "gamma": 120.00000070801099,
      "volume": 310.61655232062805
    },
    "properties": {},
    "sites": [
      {
        "species": [{ "element": "Tb", "occu": 1 }],
        "abc": [0.333333, 0.666667, 0.0645815],
        "properties": { "magmom": -0.0 },
        "label": "Tb",
        "xyz": [3.02529083, 1.7466559933050003, 0.632714564581385]
      },
      {
        "species": [{ "element": "Tb", "occu": 1 }],
        "abc": [0.666667, 0.333333, 0.5645815],
        "properties": { "magmom": -0.0 },
        "label": "Tb",
        "xyz": [3.02529083, -1.7466559933050003, 5.531288959581384]
      },
      {
        "species": [{ "element": "Tb", "occu": 1 }],
        "abc": [0.666667, 0.333333, 0.935418499999999],
        "properties": { "magmom": -0.0 },
        "label": "Tb",
        "xyz": [3.02529083, -1.7466559933050003, 9.164434225418605]
      },
      {
        "species": [{ "element": "Tb", "occu": 1 }],
        "abc": [0.333333, 0.666667, 0.4354185],
        "properties": { "magmom": -0.0 },
        "label": "Tb",
        "xyz": [3.02529083, 1.7466559933050003, 4.265859830418615]
      },
      {
        "species": [{ "element": "Mg", "occu": 1 }],
        "abc": [-0.0, 0.0, -0.0],
        "properties": { "magmom": -0.0 },
        "label": "Mg",
        "xyz": [0.0, 0.0, 0.0]
      },
      {
        "species": [{ "element": "Mg", "occu": 1 }],
        "abc": [-0.0, 0.0, 0.5],
        "properties": { "magmom": -0.0 },
        "label": "Mg",
        "xyz": [0.0, 0.0, 4.898574395]
      },
      {
        "species": [{ "element": "Mg", "occu": 1 }],
        "abc": [0.82888284, 0.65776668, 0.25],
        "properties": { "magmom": -0.0 },
        "label": "Mg",
        "xyz": [4.497547160279901, -0.8966414059632002, 2.4492871975]
      },
      {
        "species": [{ "element": "Mg", "occu": 1 }],
        "abc": [0.17111716, 0.82888284, 0.75],
        "properties": { "magmom": -0.0 },
        "label": "Mg",
        "xyz": [3.02529083, 3.4466642081586003, 7.347861592499999]
      },
      {
        "species": [{ "element": "Mg", "occu": 1 }],
        "abc": [0.65776668, 0.82888284, 0.75],
        "properties": { "magmom": -0.0 },
        "label": "Mg",
        "xyz": [4.497547160279901, 0.8966414059632002, 7.347861592499999]
      },
      {
        "species": [{ "element": "Mg", "occu": 1 }],
        "abc": [0.34223332, 0.17111716, 0.25],
        "properties": { "magmom": -0.0 },
        "label": "Mg",
        "xyz": [1.5530344997200984, -0.8966414059632001, 2.4492871975]
      },
      {
        "species": [{ "element": "Mg", "occu": 1 }],
        "abc": [0.82888284, 0.17111716, 0.25],
        "properties": { "magmom": -0.0 },
        "label": "Mg",
        "xyz": [3.02529083, -3.4466642081586003, 2.4492871975]
      },
      {
        "species": [{ "element": "Mg", "occu": 1 }],
        "abc": [0.17111716, 0.34223332, 0.75],
        "properties": { "magmom": -0.0 },
        "label": "Mg",
        "xyz": [1.5530344997200984, 0.8966414059632001, 7.347861592499999]
      }
    ]
  },
  "task_ids": null,
  "uncorrected_energy_per_atom": null,
  "energy_per_atom": -2.678499851666666,
  "formation_energy_per_atom": -0.045565300555554,
  "energy_above_hull": 0.014692953333333002,
  "is_stable": false,
  "equilibrium_reaction_energy_per_atom": null,
  "decomposes_to": null,
  "xas": null,
  "grain_boundaries": null,
  "band_gap": 0.0,
  "cbm": null,
  "vbm": null,
  "efermi": 3.21412664,
  "is_gap_direct": null,
  "is_metal": null,
  "es_source_calc_id": null,
  "bandstructure": null,
  "dos": null,
  "dos_energy_up": null,
  "dos_energy_down": null,
  "is_magnetic": null,
  "ordering": null,
  "total_magnetization": 2.61e-5,
  "total_magnetization_normalized_vol": null,
  "total_magnetization_normalized_formula_units": null,
  "num_magnetic_sites": null,
  "num_unique_magnetic_sites": null,
  "types_of_magnetic_species": null,
  "bulk_modulus": null,
  "shear_modulus": null,
  "universal_anisotropy": null,
  "homogeneous_poisson": null,
  "e_total": null,
  "e_ionic": null,
  "e_electronic": null,
  "n": null,
  "e_ij_max": null,
  "weighted_surface_energy_EV_PER_ANG2": null,
  "weighted_surface_energy": null,
  "weighted_work_function": null,
  "surface_anisotropy": null,
  "shape_factor": null,
  "has_reconstructed": null,
  "possible_species": null,
  "has_props": null,
  "theoretical": null,
  "database_IDs": null,
  "fields_not_requested": [
    "builder_meta",
    "nsites",
    "elements",
    "nelements",
    "composition",
    "composition_reduced",
    "chemsys",
    "symmetry",
    "property_name",
    "deprecated",
    "deprecation_reasons",
    "last_updated",
    "origins",
    "warnings",
    "task_ids",
    "uncorrected_energy_per_atom",
    "equilibrium_reaction_energy_per_atom",
    "decomposes_to",
    "xas",
    "grain_boundaries",
    "cbm",
    "vbm",
    "is_gap_direct",
    "is_metal",
    "es_source_calc_id",
    "bandstructure",
    "dos",
    "dos_energy_up",
    "dos_energy_down",
    "is_magnetic",
    "ordering",
    "total_magnetization_normalized_vol",
    "total_magnetization_normalized_formula_units",
    "num_magnetic_sites",
    "num_unique_magnetic_sites",
    "types_of_magnetic_species",
    "bulk_modulus",
    "shear_modulus",
    "universal_anisotropy",
    "homogeneous_poisson",
    "e_total",
    "e_ionic",
    "e_electronic",
    "n",
    "e_ij_max",
    "weighted_surface_energy_EV_PER_ANG2",
    "weighted_surface_energy",
    "weighted_work_function",
    "surface_anisotropy",
    "shape_factor",
    "has_reconstructed",
    "possible_species",
    "has_props",
    "theoretical",
    "database_IDs"
  ]
}
