{
  "builder_meta": null,
  "nsites": null,
  "elements": null,
  "nelements": null,
  "composition": null,
  "composition_reduced": null,
  "formula_pretty": "TbMn2",
  "formula_anonymous": "AB2",
  "chemsys": null,
  "volume": 204.64781459642037,
  "density": 8.724359811192302,
  "density_atomic": 17.0539845497017,
  "symmetry": null,
  "property_name": null,
  "material_id": "mp-1102649",
  "deprecated": null,
  "deprecation_reasons": null,
  "last_updated": null,
  "origins": null,
  "warnings": null,
  "structure": {
    "@module": "pymatgen.core.structure",
    "@class": "Structure",
    "charge": 0,
    "lattice": {
      "matrix": [
        [-2.687983, -4.657061, 0.0],
        [-2.687983, 4.657061, 0.0],
        [0.0, 0.0, -8.174076]
      ],
      "pbc": [true, true, true],
      "a": 5.377124674583062,
      "b": 5.377124674583062,
      "c": 8.174076,
      "alpha": 90.0,
      "beta": 90.0,
      "gamma": 120.01425567479862,
      "volume": 204.64781459642037
    },
    "properties": {},
    "sites": [
      {
        "species": [{ "element": "Tb", "occu": 1 }],
        "abc": [0.666636, 0.333364, 0.559118],
        "properties": { "magmom": -0.247 },
        "label": "Tb",
        "xyz": [-2.687983, -1.5520680335919999, -4.5702730249679995]
      },
      {
        "species": [{ "element": "Tb", "occu": 1 }],
        "abc": [0.333364, 0.666636, 0.440882],
        "properties": { "magmom": -0.247 },
        "label": "Tb",
        "xyz": [-2.687983, 1.5520680335919999, -3.6038029750319995]
      },
      {
        "species": [{ "element": "Tb", "occu": 1 }],
        "abc": [0.333364, 0.666636, 0.059118],
        "properties": { "magmom": -0.247 },
        "label": "Tb",
        "xyz": [-2.687983, 1.5520680335919999, -0.4832350249679999]
      },
      {
        "species": [{ "element": "Tb", "occu": 1 }],
        "abc": [0.666636, 0.333364, 0.940882],
        "properties": { "magmom": -0.247 },
        "label": "Tb",
        "xyz": [-2.687983, -1.5520680335919999, -7.690840975032]
      },
      {
        "species": [{ "element": "Mn", "occu": 1 }],
        "abc": [0.0, 0.0, 0.5],
        "properties": { "magmom": -2.434 },
        "label": "Mn",
        "xyz": [0.0, 0.0, -4.087038]
      },
      {
        "species": [{ "element": "Mn", "occu": 1 }],
        "abc": [0.0, 0.0, 0.0],
        "properties": { "magmom": -2.434 },
        "label": "Mn",
        "xyz": [0.0, 0.0, 0.0]
      },
      {
        "species": [{ "element": "Mn", "occu": 1 }],
        "abc": [0.164852, 0.329374, 0.75],
        "properties": { "magmom": 2.332 },
        "label": "Mn",
        "xyz": [-1.328471086158, 0.7661889898419999, -6.130557]
      },
      {
        "species": [{ "element": "Mn", "occu": 1 }],
        "abc": [0.164323, 0.835677, 0.75],
        "properties": { "magmom": 2.333 },
        "label": "Mn",
        "xyz": [-2.687983, 3.1265365305939996, -6.130557]
      },
      {
        "species": [{ "element": "Mn", "occu": 1 }],
        "abc": [0.6706259999999991, 0.835148, 0.75],
        "properties": { "magmom": 2.332 },
        "label": "Mn",
        "xyz": [-4.047494913841997, 0.766188989842004, -6.130557]
      },
      {
        "species": [{ "element": "Mn", "occu": 1 }],
        "abc": [0.835148, 0.6706259999999991, 0.25],
        "properties": { "magmom": 2.332 },
        "label": "Mn",
        "xyz": [-4.047494913841997, -0.766188989842004, -2.043519]
      },
      {
        "species": [{ "element": "Mn", "occu": 1 }],
        "abc": [0.835677, 0.164323, 0.25],
        "properties": { "magmom": 2.333 },
        "label": "Mn",
        "xyz": [-2.687983, -3.1265365305939996, -2.043519]
      },
      {
        "species": [{ "element": "Mn", "occu": 1 }],
        "abc": [0.329374, 0.164852, 0.25],
        "properties": { "magmom": 2.332 },
        "label": "Mn",
        "xyz": [-1.328471086158, -0.7661889898419999, -2.043519]
      }
    ]
  },
  "task_ids": null,
  "uncorrected_energy_per_atom": null,
  "energy_per_atom": -20.114480922298853,
  "formation_energy_per_atom": 0.083220244712642,
  "energy_above_hull": 0.083220244712642,
  "is_stable": false,
  "equilibrium_reaction_energy_per_atom": null,
  "decomposes_to": null,
  "xas": null,
  "grain_boundaries": null,
  "band_gap": 0.0,
  "cbm": null,
  "vbm": null,
  "efermi": 4.69835872,
  "is_gap_direct": null,
  "is_metal": null,
  "es_source_calc_id": null,
  "bandstructure": null,
  "dos": null,
  "dos_energy_up": null,
  "dos_energy_down": null,
  "is_magnetic": null,
  "ordering": null,
  "total_magnetization": 8.3357039,
  "total_magnetization_normalized_vol": null,
  "total_magnetization_normalized_formula_units": null,
  "num_magnetic_sites": null,
  "num_unique_magnetic_sites": null,
  "types_of_magnetic_species": null,
  "bulk_modulus": null,
  "shear_modulus": null,
  "universal_anisotropy": null,
  "homogeneous_poisson": null,
  "e_total": null,
  "e_ionic": null,
  "e_electronic": null,
  "n": null,
  "e_ij_max": null,
  "weighted_surface_energy_EV_PER_ANG2": null,
  "weighted_surface_energy": null,
  "weighted_work_function": null,
  "surface_anisotropy": null,
  "shape_factor": null,
  "has_reconstructed": null,
  "possible_species": null,
  "has_props": null,
  "theoretical": null,
  "database_IDs": null,
  "fields_not_requested": [
    "builder_meta",
    "nsites",
    "elements",
    "nelements",
    "composition",
    "composition_reduced",
    "chemsys",
    "symmetry",
    "property_name",
    "deprecated",
    "deprecation_reasons",
    "last_updated",
    "origins",
    "warnings",
    "task_ids",
    "uncorrected_energy_per_atom",
    "equilibrium_reaction_energy_per_atom",
    "decomposes_to",
    "xas",
    "grain_boundaries",
    "cbm",
    "vbm",
    "is_gap_direct",
    "is_metal",
    "es_source_calc_id",
    "bandstructure",
    "dos",
    "dos_energy_up",
    "dos_energy_down",
    "is_magnetic",
    "ordering",
    "total_magnetization_normalized_vol",
    "total_magnetization_normalized_formula_units",
    "num_magnetic_sites",
    "num_unique_magnetic_sites",
    "types_of_magnetic_species",
    "bulk_modulus",
    "shear_modulus",
    "universal_anisotropy",
    "homogeneous_poisson",
    "e_total",
    "e_ionic",
    "e_electronic",
    "n",
    "e_ij_max",
    "weighted_surface_energy_EV_PER_ANG2",
    "weighted_surface_energy",
    "weighted_work_function",
    "surface_anisotropy",
    "shape_factor",
    "has_reconstructed",
    "possible_species",
    "has_props",
    "theoretical",
    "database_IDs"
  ]
}
