{"builder_meta": null, "nsites": null, "elements": null, "nelements": null, "composition": null, "composition_reduced": null, "formula_pretty": "TbMn3", "formula_anonymous": "AB3", "chemsys": null, "volume": 140.45910807714043, "density": 7.654641548032949, "density_atomic": 17.557388509642553, "symmetry": null, "property_name": null, "material_id": "mp-1187368", "deprecated": null, "deprecation_reasons": null, "last_updated": null, "origins": null, "warnings": null, "structure": {"@module": "pymatgen.core.structure", "@class": "Structure", "charge": 0, "lattice": {"matrix": [[2.97554, -5.153786, 0.0], [2.97554, 5.153786, 0.0], [0.0, 0.0, 4.5796019999999995]], "pbc": [true, true, true], "a": 5.951079601668591, "b": 5.951079601668591, "c": 4.5796019999999995, "alpha": 90.0, "beta": 90.0, "gamma": 119.99999557166163, "volume": 140.4591080771404}, "properties": {}, "sites": [{"species": [{"element": "Tb", "occu": 1}], "abc": [0.333333, 0.666667, 0.75], "properties": {"magmom": -0.231}, "label": "Tb", "xyz": [2.97554, 1.7179321025240002, 3.4347014999999996]}, {"species": [{"element": "Tb", "occu": 1}], "abc": [0.666667, 0.333333, 0.25], "properties": {"magmom": -0.231}, "label": "Tb", "xyz": [2.97554, -1.7179321025240002, 1.1449004999999999]}, {"species": [{"element": "Mn", "occu": 1}], "abc": [0.14903000000000002, 0.29806000000000005, 0.25], "properties": {"magmom": 3.172}, "label": "Mn", "xyz": [1.3303341786000003, 0.7680687275800001, 1.1449004999999999]}, {"species": [{"element": "Mn", "occu": 1}], "abc": [0.70194, 0.8509700000000001, 0.25], "properties": {"magmom": 3.172}, "label": "Mn", "xyz": [4.6207458214, 0.7680687275800007, 1.1449004999999999]}, {"species": [{"element": "Mn", "occu": 1}], "abc": [0.14903000000000002, 0.8509700000000001, 0.25], "properties": {"magmom": 3.173}, "label": "Mn", "xyz": [2.9755400000000005, 3.6176485448400006, 1.1449004999999999]}, {"species": [{"element": "Mn", "occu": 1}], "abc": [0.8509700000000001, 0.70194, 0.75], "properties": {"magmom": 3.168}, "label": "Mn", "xyz": [4.6207458214, -0.7680687275800007, 3.4347014999999996]}, {"species": [{"element": "Mn", "occu": 1}], "abc": [0.29806000000000005, 0.14903000000000002, 0.75], "properties": {"magmom": 3.169}, "label": "Mn", "xyz": [1.3303341786000003, -0.7680687275800001, 3.4347014999999996]}, {"species": [{"element": "Mn", "occu": 1}], "abc": [0.8509700000000001, 0.14903000000000002, 0.75], "properties": {"magmom": 3.168}, "label": "Mn", "xyz": [2.9755400000000005, -3.6176485448400006, 3.4347014999999996]}]}, "task_ids": null, "uncorrected_energy_per_atom": null, "energy_per_atom": -18.522737772586208, "formation_energy_per_atom": 0.296371771551722, "energy_above_hull": 0.296371771551722, "is_stable": false, "equilibrium_reaction_energy_per_atom": null, "decomposes_to": null, "xas": null, "grain_boundaries": null, "band_gap": 0.0, "cbm": null, "vbm": null, "efermi": 3.9511056, "is_gap_direct": null, "is_metal": null, "es_source_calc_id": null, "bandstructure": null, "dos": null, "dos_energy_up": null, "dos_energy_down": null, "is_magnetic": null, "ordering": null, "total_magnetization": 19.2834096, "total_magnetization_normalized_vol": null, "total_magnetization_normalized_formula_units": null, "num_magnetic_sites": null, "num_unique_magnetic_sites": null, "types_of_magnetic_species": null, "bulk_modulus": null, "shear_modulus": null, "universal_anisotropy": null, "homogeneous_poisson": null, "e_total": null, "e_ionic": null, "e_electronic": null, "n": null, "e_ij_max": null, "weighted_surface_energy_EV_PER_ANG2": null, "weighted_surface_energy": null, "weighted_work_function": null, "surface_anisotropy": null, "shape_factor": null, "has_reconstructed": null, "possible_species": null, "has_props": null, "theoretical": null, "database_IDs": null, "fields_not_requested": ["builder_meta", "nsites", "elements", "nelements", "composition", "composition_reduced", "chemsys", "symmetry", "property_name", "deprecated", "deprecation_reasons", "last_updated", "origins", "warnings", "task_ids", "uncorrected_energy_per_atom", "equilibrium_reaction_energy_per_atom", "decomposes_to", "xas", "grain_boundaries", "cbm", "vbm", "is_gap_direct", "is_metal", "es_source_calc_id", "bandstructure", "dos", "dos_energy_up", "dos_energy_down", "is_magnetic", "ordering", "total_magnetization_normalized_vol", "total_magnetization_normalized_formula_units", "num_magnetic_sites", "num_unique_magnetic_sites", "types_of_magnetic_species", "bulk_modulus", "shear_modulus", "universal_anisotropy", "homogeneous_poisson", "e_total", "e_ionic", "e_electronic", "n", "e_ij_max", "weighted_surface_energy_EV_PER_ANG2", "weighted_surface_energy", "weighted_work_function", "surface_anisotropy", "shape_factor", "has_reconstructed", "possible_species", "has_props", "theoretical", "database_IDs"]}