{
  "builder_meta": null,
  "nsites": null,
  "elements": null,
  "nelements": null,
  "composition": null,
  "composition_reduced": null,
  "formula_pretty": "TbNd3",
  "formula_anonymous": "AB3",
  "chemsys": null,
  "volume": 280.9239133368675,
  "density": 6.994493055516574,
  "density_atomic": 35.115489167108436,
  "symmetry": null,
  "property_name": null,
  "material_id": "mp-1187358",
  "deprecated": null,
  "deprecation_reasons": null,
  "last_updated": null,
  "origins": null,
  "warnings": null,
  "structure": {
    "@module": "pymatgen.core.structure",
    "@class": "Structure",
    "charge": 0,
    "lattice": {
      "matrix": [
        [3.72757153, -6.4563443, 0.0],
        [3.72757593, 6.45634652, -0.0],
        [0.0, 0.0, 5.83640895]
      ],
      "pbc": [true, true, true],
      "a": 7.455143944378876,
      "b": 7.455148066955577,
      "c": 5.83640895,
      "alpha": 90.0,
      "beta": 90.0,
      "gamma": 119.99998709376716,
      "volume": 280.9239133368675
    },
    "properties": {},
    "sites": [
      {
        "species": [{ "element": "Tb", "occu": 1 }],
        "abc": [0.333333, 0.666667, 0.75],
        "properties": { "magmom": -0.0 },
        "label": "Tb",
        "xyz": [3.7275744633348005, 2.1521205508969405, 4.3773067125]
      },
      {
        "species": [{ "element": "Tb", "occu": 1 }],
        "abc": [0.666667, 0.333333, 0.25],
        "properties": { "magmom": -0.0 },
        "label": "Tb",
        "xyz": [3.7275729966652005, -2.15211833089694, 1.4591022375]
      },
      {
        "species": [{ "element": "Nd", "occu": 1 }],
        "abc": [0.16724436, 0.33448873, 0.25],
        "properties": { "magmom": -0.0 },
        "label": "Nd",
        "xyz": [1.8702474536933398, 1.0797879775215717, 1.4591022375]
      },
      {
        "species": [{ "element": "Nd", "occu": 1 }],
        "abc": [0.66551127, 0.83275564, 0.25],
        "properties": { "magmom": -0.0 },
        "label": "Nd",
        "xyz": [5.584900742181889, 1.079789083674112, 1.4591022375]
      },
      {
        "species": [{ "element": "Nd", "occu": 1 }],
        "abc": [0.16724436, 0.83275564, 0.25],
        "properties": { "magmom": -0.0 },
        "label": "Nd",
        "xyz": [3.727575194124816, 4.296771807931225, 1.4591022375]
      },
      {
        "species": [{ "element": "Nd", "occu": 1 }],
        "abc": [0.83275564, 0.66551127, 0.75],
        "properties": { "magmom": -0.0 },
        "label": "Nd",
        "xyz": [5.58490000630666, -1.079785757521571, 4.3773067125]
      },
      {
        "species": [{ "element": "Nd", "occu": 1 }],
        "abc": [0.33448873, 0.16724436, 0.75],
        "properties": { "magmom": -0.0 },
        "label": "Nd",
        "xyz": [1.870246717818112, -1.0797868636741115, 4.3773067125]
      },
      {
        "species": [{ "element": "Nd", "occu": 1 }],
        "abc": [0.83275564, 0.16724436, 0.75],
        "properties": { "magmom": -0.0 },
        "label": "Nd",
        "xyz": [3.727572265875184, -4.296769587931224, 4.3773067125]
      }
    ]
  },
  "task_ids": null,
  "uncorrected_energy_per_atom": null,
  "energy_per_atom": -29.84510453375,
  "formation_energy_per_atom": 0.025010740625003,
  "energy_above_hull": 0.025010740625003,
  "is_stable": false,
  "equilibrium_reaction_energy_per_atom": null,
  "decomposes_to": null,
  "xas": null,
  "grain_boundaries": null,
  "band_gap": 0.0,
  "cbm": null,
  "vbm": null,
  "efermi": 3.2947642200000002,
  "is_gap_direct": null,
  "is_metal": null,
  "es_source_calc_id": null,
  "bandstructure": null,
  "dos": null,
  "dos_energy_up": null,
  "dos_energy_down": null,
  "is_magnetic": null,
  "ordering": null,
  "total_magnetization": 0.000440399999999,
  "total_magnetization_normalized_vol": null,
  "total_magnetization_normalized_formula_units": null,
  "num_magnetic_sites": null,
  "num_unique_magnetic_sites": null,
  "types_of_magnetic_species": null,
  "bulk_modulus": null,
  "shear_modulus": null,
  "universal_anisotropy": null,
  "homogeneous_poisson": null,
  "e_total": null,
  "e_ionic": null,
  "e_electronic": null,
  "n": null,
  "e_ij_max": null,
  "weighted_surface_energy_EV_PER_ANG2": null,
  "weighted_surface_energy": null,
  "weighted_work_function": null,
  "surface_anisotropy": null,
  "shape_factor": null,
  "has_reconstructed": null,
  "possible_species": null,
  "has_props": null,
  "theoretical": null,
  "database_IDs": null,
  "fields_not_requested": [
    "builder_meta",
    "nsites",
    "elements",
    "nelements",
    "composition",
    "composition_reduced",
    "chemsys",
    "symmetry",
    "property_name",
    "deprecated",
    "deprecation_reasons",
    "last_updated",
    "origins",
    "warnings",
    "task_ids",
    "uncorrected_energy_per_atom",
    "equilibrium_reaction_energy_per_atom",
    "decomposes_to",
    "xas",
    "grain_boundaries",
    "cbm",
    "vbm",
    "is_gap_direct",
    "is_metal",
    "es_source_calc_id",
    "bandstructure",
    "dos",
    "dos_energy_up",
    "dos_energy_down",
    "is_magnetic",
    "ordering",
    "total_magnetization_normalized_vol",
    "total_magnetization_normalized_formula_units",
    "num_magnetic_sites",
    "num_unique_magnetic_sites",
    "types_of_magnetic_species",
    "bulk_modulus",
    "shear_modulus",
    "universal_anisotropy",
    "homogeneous_poisson",
    "e_total",
    "e_ionic",
    "e_electronic",
    "n",
    "e_ij_max",
    "weighted_surface_energy_EV_PER_ANG2",
    "weighted_surface_energy",
    "weighted_work_function",
    "surface_anisotropy",
    "shape_factor",
    "has_reconstructed",
    "possible_species",
    "has_props",
    "theoretical",
    "database_IDs"
  ]
}
