{"builder_meta": null, "nsites": null, "elements": null, "nelements": null, "composition": null, "composition_reduced": null, "formula_pretty": "TbNi3", "formula_anonymous": "AB3", "chemsys": null, "volume": 172.65621946477845, "density": 9.665851685400218, "density_atomic": 14.388018288731537, "symmetry": null, "property_name": null, "material_id": "mp-1102054", "deprecated": null, "deprecation_reasons": null, "last_updated": null, "origins": null, "warnings": null, "structure": {"@module": "pymatgen.core.structure", "@class": "Structure", "charge": 0, "lattice": {"matrix": [[-2.478379, -4.292678, 0.0], [2.478379, -4.292678, 0.0], [0.0, -2.861786, 8.114396]], "pbc": [true, true, true], "a": 4.95675769826658, "b": 4.95675769826658, "c": 8.60425717622457, "alpha": 73.25928679079533, "beta": 73.25928679079533, "gamma": 60.00000402733477, "volume": 172.65621946477845}, "properties": {}, "sites": [{"species": [{"element": "Tb", "occu": 1}], "abc": [0.138835, 0.138835, 0.583496], "properties": {"magmom": -0.051000000000000004}, "label": "Tb", "xyz": [0.0, -2.861788584116, 4.734717608416]}, {"species": [{"element": "Tb", "occu": 1}], "abc": [0.861165, 0.861165, 0.416504], "properties": {"magmom": -0.05}, "label": "Tb", "xyz": [0.0, -8.585353415884, 3.3796783915839996]}, {"species": [{"element": "Tb", "occu": 1}], "abc": [0.0, 0.0, 0.0], "properties": {"magmom": -0.05}, "label": "Tb", "xyz": [0.0, 0.0, 0.0]}, {"species": [{"element": "Ni", "occu": 1}], "abc": [0.08, 0.582727, 0.754545], "properties": {"magmom": 0.157}, "label": "Ni", "xyz": [1.2459480395329998, -5.004219930276, 6.12267692982]}, {"species": [{"element": "Ni", "occu": 1}], "abc": [0.582727, 0.582727, 0.754545], "properties": {"magmom": 0.158}, "label": "Ni", "xyz": [0.0, -7.162265063182001, 6.12267692982]}, {"species": [{"element": "Ni", "occu": 1}], "abc": [0.582727, 0.08, 0.754545], "properties": {"magmom": 0.157}, "label": "Ni", "xyz": [-1.2459480395329998, -5.004219930276, 6.12267692982]}, {"species": [{"element": "Ni", "occu": 1}], "abc": [0.92, 0.417273, 0.245454999999999], "properties": {"magmom": 0.154}, "label": "Ni", "xyz": [-1.245948039533, -6.4429220697239975, 1.9917190701799918]}, {"species": [{"element": "Ni", "occu": 1}], "abc": [0.417273, 0.417273, 0.245454999999999], "properties": {"magmom": 0.154}, "label": "Ni", "xyz": [0.0, -4.284876936817998, 1.9917190701799918]}, {"species": [{"element": "Ni", "occu": 1}], "abc": [0.417273, 0.92, 0.245454999999999], "properties": {"magmom": 0.154}, "label": "Ni", "xyz": [1.245948039533, -6.4429220697239975, 1.9917190701799918]}, {"species": [{"element": "Ni", "occu": 1}], "abc": [0.332927, 0.332927, 0.001218], "properties": {"magmom": 0.194}, "label": "Ni", "xyz": [0.0, -2.86178247236, 0.009883334327999998]}, {"species": [{"element": "Ni", "occu": 1}], "abc": [0.667072999999999, 0.667072999999999, 0.998782], "properties": {"magmom": 0.194}, "label": "Ni", "xyz": [0.0, -8.585359527639993, 8.104512665671999]}, {"species": [{"element": "Ni", "occu": 1}], "abc": [0.5, 0.5, 0.5], "properties": {"magmom": 0.114}, "label": "Ni", "xyz": [0.0, -5.723571000000001, 4.057198]}]}, "task_ids": null, "uncorrected_energy_per_atom": null, "energy_per_atom": -5.89688326, "formation_energy_per_atom": -0.402314844166666, "energy_above_hull": 0.0, "is_stable": true, "equilibrium_reaction_energy_per_atom": null, "decomposes_to": null, "xas": null, "grain_boundaries": null, "band_gap": 0.0, "cbm": null, "vbm": null, "efermi": 6.31453507, "is_gap_direct": null, "is_metal": null, "es_source_calc_id": null, "bandstructure": null, "dos": null, "dos_energy_up": null, "dos_energy_down": null, "is_magnetic": null, "ordering": null, "total_magnetization": 1.1606877, "total_magnetization_normalized_vol": null, "total_magnetization_normalized_formula_units": null, "num_magnetic_sites": null, "num_unique_magnetic_sites": null, "types_of_magnetic_species": null, "bulk_modulus": null, "shear_modulus": null, "universal_anisotropy": null, "homogeneous_poisson": null, "e_total": null, "e_ionic": null, "e_electronic": null, "n": null, "e_ij_max": null, "weighted_surface_energy_EV_PER_ANG2": null, "weighted_surface_energy": null, "weighted_work_function": null, "surface_anisotropy": null, "shape_factor": null, "has_reconstructed": null, "possible_species": null, "has_props": null, "theoretical": null, "database_IDs": null, "fields_not_requested": ["builder_meta", "nsites", "elements", "nelements", "composition", "composition_reduced", "chemsys", "symmetry", "property_name", "deprecated", "deprecation_reasons", "last_updated", "origins", "warnings", "task_ids", "uncorrected_energy_per_atom", "equilibrium_reaction_energy_per_atom", "decomposes_to", "xas", "grain_boundaries", "cbm", "vbm", "is_gap_direct", "is_metal", "es_source_calc_id", "bandstructure", "dos", "dos_energy_up", "dos_energy_down", "is_magnetic", "ordering", "total_magnetization_normalized_vol", "total_magnetization_normalized_formula_units", "num_magnetic_sites", "num_unique_magnetic_sites", "types_of_magnetic_species", "bulk_modulus", "shear_modulus", "universal_anisotropy", "homogeneous_poisson", "e_total", "e_ionic", "e_electronic", "n", "e_ij_max", "weighted_surface_energy_EV_PER_ANG2", "weighted_surface_energy", "weighted_work_function", "surface_anisotropy", "shape_factor", "has_reconstructed", "possible_species", "has_props", "theoretical", "database_IDs"]}