{"builder_meta": null, "nsites": null, "elements": null, "nelements": null, "composition": null, "composition_reduced": null, "formula_pretty": "TbNi", "formula_anonymous": "AB", "chemsys": null, "volume": 475.1072981516427, "density": 9.127145065685436, "density_atomic": 19.79613742298511, "symmetry": null, "property_name": null, "material_id": "mp-672240", "deprecated": null, "deprecation_reasons": null, "last_updated": null, "origins": null, "warnings": null, "structure": {"@module": "pymatgen.core.structure", "@class": "Structure", "charge": 0, "lattice": {"matrix": [[4.21713212, 0.0, 0.0], [-0.0, 5.38143822, 0.0], [0.0, 0.0, 20.93515282]], "pbc": [true, true, true], "a": 4.21713212, "b": 5.38143822, "c": 20.93515282, "alpha": 90.0, "beta": 90.0, "gamma": 90.0, "volume": 475.1072981516427}, "properties": {}, "sites": [{"species": [{"element": "Tb", "occu": 1}], "abc": [0.75, 0.62335219, 0.10642707], "properties": {"magmom": -0.0}, "label": "Tb", "xyz": [3.16284909, 3.3545312997867014, 2.2280669746348374]}, {"species": [{"element": "Tb", "occu": 1}], "abc": [0.25, 0.12335219, 0.39357293], "properties": {"magmom": -0.0}, "label": "Tb", "xyz": [1.05428303, 0.6638121897867018, 8.239509435365163]}, {"species": [{"element": "Tb", "occu": 1}], "abc": [0.75, 0.87664781, 0.6064270700000001], "properties": {"magmom": -0.0}, "label": "Tb", "xyz": [3.16284909, 4.717626030213298, 12.695643384634838]}, {"species": [{"element": "Tb", "occu": 1}], "abc": [0.75, 0.39111941, 0.27321808000000003], "properties": {"magmom": 0.0}, "label": "Tb", "xyz": [3.16284909, 2.10478494155785, 5.7198622579869856]}, {"species": [{"element": "Tb", "occu": 1}], "abc": [0.75, 0.8659817, 0.93970559], "properties": {"magmom": 0.0}, "label": "Tb", "xyz": [3.16284909, 4.660227018200573, 19.672880132458264]}, {"species": [{"element": "Tb", "occu": 1}], "abc": [0.75, 0.10888059, 0.77321808], "properties": {"magmom": 0.0}, "label": "Tb", "xyz": [3.16284909, 0.5859341684421497, 16.187438667986985]}, {"species": [{"element": "Tb", "occu": 1}], "abc": [0.25, 0.8911194100000001, 0.22678192], "properties": {"magmom": 0.0}, "label": "Tb", "xyz": [1.05428303, 4.795504051557851, 4.747714152013014]}, {"species": [{"element": "Tb", "occu": 1}], "abc": [0.75, 0.634018299999999, 0.43970559000000004], "properties": {"magmom": 0.0}, "label": "Tb", "xyz": [3.16284909, 3.4119303117994204, 9.205303722458265]}, {"species": [{"element": "Tb", "occu": 1}], "abc": [0.25, 0.365981699999999, 0.56029441], "properties": {"magmom": 0.0}, "label": "Tb", "xyz": [1.05428303, 1.9695079082005686, 11.729849097541736]}, {"species": [{"element": "Tb", "occu": 1}], "abc": [0.25, 0.37664781, 0.89357293], "properties": {"magmom": -0.0}, "label": "Tb", "xyz": [1.05428303, 2.0269069202132983, 18.707085845365164]}, {"species": [{"element": "Tb", "occu": 1}], "abc": [0.25, 0.1340183, 0.06029441], "properties": {"magmom": 0.0}, "label": "Tb", "xyz": [1.05428303, 0.721211201799426, 1.262272687541736]}, {"species": [{"element": "Tb", "occu": 1}], "abc": [0.25, 0.60888059, 0.72678192], "properties": {"magmom": 0.0}, "label": "Tb", "xyz": [1.05428303, 3.27665327844215, 15.215290562013013]}, {"species": [{"element": "Ni", "occu": 1}], "abc": [0.25, 0.8680091, 0.84506718], "properties": {"magmom": -0.0}, "label": "Ni", "xyz": [1.05428303, 4.671137346047802, 17.691610556466447]}, {"species": [{"element": "Ni", "occu": 1}], "abc": [0.75, 0.37349815000000003, 0.98832213], "properties": {"magmom": 0.0}, "label": "Ni", "xyz": [3.16284909, 2.009957219509293, 20.690674826937904]}, {"species": [{"element": "Ni", "occu": 1}], "abc": [0.75, 0.61906317, 0.82154054], "properties": {"magmom": 0.0}, "label": "Ni", "xyz": [3.16284909, 3.331450203632357, 17.199076752725322]}, {"species": [{"element": "Ni", "occu": 1}], "abc": [0.25, 0.62650185, 0.01167787], "properties": {"magmom": 0.0}, "label": "Ni", "xyz": [1.05428303, 3.3714810004907068, 0.2444779930620934]}, {"species": [{"element": "Ni", "occu": 1}], "abc": [0.75, 0.3680091, 0.65493282], "properties": {"magmom": -0.0}, "label": "Ni", "xyz": [3.16284909, 1.9804182360478018, 13.711118673533552]}, {"species": [{"element": "Ni", "occu": 1}], "abc": [0.25, 0.38093683, 0.17845946000000001], "properties": {"magmom": 0.0}, "label": "Ni", "xyz": [1.05428303, 2.0499880163676427, 3.736076067274677]}, {"species": [{"element": "Ni", "occu": 1}], "abc": [0.25, 0.87349815, 0.51167787], "properties": {"magmom": 0.0}, "label": "Ni", "xyz": [1.05428303, 4.700676329509292, 10.712054403062092]}, {"species": [{"element": "Ni", "occu": 1}], "abc": [0.75, 0.1319909, 0.15493282], "properties": {"magmom": -0.0}, "label": "Ni", "xyz": [3.16284909, 0.710300873952198, 3.243542263533552]}, {"species": [{"element": "Ni", "occu": 1}], "abc": [0.75, 0.12650185, 0.48832213], "properties": {"magmom": 0.0}, "label": "Ni", "xyz": [3.16284909, 0.680761890490707, 10.223098416937907]}, {"species": [{"element": "Ni", "occu": 1}], "abc": [0.75, 0.88093683, 0.32154054], "properties": {"magmom": 0.0}, "label": "Ni", "xyz": [3.16284909, 4.740707126367642, 6.731500342725322]}, {"species": [{"element": "Ni", "occu": 1}], "abc": [0.25, 0.11906317, 0.67845946], "properties": {"magmom": 0.0}, "label": "Ni", "xyz": [1.05428303, 0.6407310936323574, 14.203652477274677]}, {"species": [{"element": "Ni", "occu": 1}], "abc": [0.25, 0.6319909, 0.34506718000000003], "properties": {"magmom": -0.0}, "label": "Ni", "xyz": [1.05428303, 3.4010199839521977, 7.2240341464664475]}]}, "task_ids": null, "uncorrected_energy_per_atom": null, "energy_per_atom": -5.644965700833334, "formation_energy_per_atom": -0.435965549166666, "energy_above_hull": 0.0, "is_stable": true, "equilibrium_reaction_energy_per_atom": null, "decomposes_to": null, "xas": null, "grain_boundaries": null, "band_gap": 0.0, "cbm": null, "vbm": null, "efermi": 4.8548881900000005, "is_gap_direct": null, "is_metal": null, "es_source_calc_id": null, "bandstructure": null, "dos": null, "dos_energy_up": null, "dos_energy_down": null, "is_magnetic": null, "ordering": null, "total_magnetization": 0.0, "total_magnetization_normalized_vol": null, "total_magnetization_normalized_formula_units": null, "num_magnetic_sites": null, "num_unique_magnetic_sites": null, "types_of_magnetic_species": null, "bulk_modulus": null, "shear_modulus": null, "universal_anisotropy": null, "homogeneous_poisson": null, "e_total": null, "e_ionic": null, "e_electronic": null, "n": null, "e_ij_max": null, "weighted_surface_energy_EV_PER_ANG2": null, "weighted_surface_energy": null, "weighted_work_function": null, "surface_anisotropy": null, "shape_factor": null, "has_reconstructed": null, "possible_species": null, "has_props": null, "theoretical": null, "database_IDs": null, "fields_not_requested": ["builder_meta", "nsites", "elements", "nelements", "composition", "composition_reduced", "chemsys", "symmetry", "property_name", "deprecated", "deprecation_reasons", "last_updated", "origins", "warnings", "task_ids", "uncorrected_energy_per_atom", "equilibrium_reaction_energy_per_atom", "decomposes_to", "xas", "grain_boundaries", "cbm", "vbm", "is_gap_direct", "is_metal", "es_source_calc_id", "bandstructure", "dos", "dos_energy_up", "dos_energy_down", "is_magnetic", "ordering", "total_magnetization_normalized_vol", "total_magnetization_normalized_formula_units", "num_magnetic_sites", "num_unique_magnetic_sites", "types_of_magnetic_species", "bulk_modulus", "shear_modulus", "universal_anisotropy", "homogeneous_poisson", "e_total", "e_ionic", "e_electronic", "n", "e_ij_max", "weighted_surface_energy_EV_PER_ANG2", "weighted_surface_energy", "weighted_work_function", "surface_anisotropy", "shape_factor", "has_reconstructed", "possible_species", "has_props", "theoretical", "database_IDs"]}