{"builder_meta": null, "nsites": null, "elements": null, "nelements": null, "composition": null, "composition_reduced": null, "formula_pretty": "TbNi2", "formula_anonymous": "AB2", "chemsys": null, "volume": 89.8065061528644, "density": 10.21812648785702, "density_atomic": 14.9677510254774, "symmetry": null, "property_name": null, "material_id": "mp-276", "deprecated": null, "deprecation_reasons": null, "last_updated": null, "origins": null, "warnings": null, "structure": {"@module": "pymatgen.core.structure", "@class": "Structure", "charge": 0, "lattice": {"matrix": [[4.35316089, 2.04e-06, 2.51330192], [1.45105466, 4.10420063, 2.51330192], [0.0, 0.0, 5.02660283]], "pbc": [true, true, true], "a": 5.026598877502106, "b": 5.026600141116837, "c": 5.02660283, "alpha": 59.99997565788372, "beta": 59.999967342105485, "gamma": 59.999952880250675, "volume": 89.8065061528644}, "properties": {}, "sites": [{"species": [{"element": "Tb", "occu": 1}], "abc": [0.875000999999999, 0.875, 0.874999], "properties": {"magmom": 0.0}, "label": "Tb", "xyz": [5.078692959410885, 3.59117733625204, 8.796553322949087]}, {"species": [{"element": "Tb", "occu": 1}], "abc": [0.124999, 0.125, 0.125001], "properties": {"magmom": 0.0}, "label": "Tb", "xyz": [0.7255225905891101, 0.51302533374796, 1.2566533470509098]}, {"species": [{"element": "Ni", "occu": 1}], "abc": [0.5, 0.0, 0.5], "properties": {"magmom": -0.0}, "label": "Ni", "xyz": [2.176580445, 1.02e-06, 3.769952375]}, {"species": [{"element": "Ni", "occu": 1}], "abc": [-0.0, 0.5, 0.5], "properties": {"magmom": -0.0}, "label": "Ni", "xyz": [0.72552733, 2.052100315, 3.769952375]}, {"species": [{"element": "Ni", "occu": 1}], "abc": [0.5, 0.5, 0.5], "properties": {"magmom": -0.0}, "label": "Ni", "xyz": [2.902107775, 2.052101335, 5.026603335]}, {"species": [{"element": "Ni", "occu": 1}], "abc": [0.5, 0.5, -0.0], "properties": {"magmom": -0.0}, "label": "Ni", "xyz": [2.902107775, 2.052101335, 2.51330192]}]}, "task_ids": null, "uncorrected_energy_per_atom": null, "energy_per_atom": -5.830618751666665, "formation_energy_per_atom": -0.43123975722222, "energy_above_hull": 0.0, "is_stable": true, "equilibrium_reaction_energy_per_atom": null, "decomposes_to": null, "xas": null, "grain_boundaries": null, "band_gap": 0.0, "cbm": null, "vbm": null, "efermi": 6.18216075, "is_gap_direct": null, "is_metal": null, "es_source_calc_id": null, "bandstructure": null, "dos": null, "dos_energy_up": null, "dos_energy_down": null, "is_magnetic": null, "ordering": null, "total_magnetization": 4e-07, "total_magnetization_normalized_vol": null, "total_magnetization_normalized_formula_units": null, "num_magnetic_sites": null, "num_unique_magnetic_sites": null, "types_of_magnetic_species": null, "bulk_modulus": null, "shear_modulus": null, "universal_anisotropy": null, "homogeneous_poisson": null, "e_total": null, "e_ionic": null, "e_electronic": null, "n": null, "e_ij_max": null, "weighted_surface_energy_EV_PER_ANG2": null, "weighted_surface_energy": null, "weighted_work_function": null, "surface_anisotropy": null, "shape_factor": null, "has_reconstructed": null, "possible_species": null, "has_props": null, "theoretical": null, "database_IDs": null, "fields_not_requested": ["builder_meta", "nsites", "elements", "nelements", "composition", "composition_reduced", "chemsys", "symmetry", "property_name", "deprecated", "deprecation_reasons", "last_updated", "origins", "warnings", "task_ids", "uncorrected_energy_per_atom", "equilibrium_reaction_energy_per_atom", "decomposes_to", "xas", "grain_boundaries", "cbm", "vbm", "is_gap_direct", "is_metal", "es_source_calc_id", "bandstructure", "dos", "dos_energy_up", "dos_energy_down", "is_magnetic", "ordering", "total_magnetization_normalized_vol", "total_magnetization_normalized_formula_units", "num_magnetic_sites", "num_unique_magnetic_sites", "types_of_magnetic_species", "bulk_modulus", "shear_modulus", "universal_anisotropy", "homogeneous_poisson", "e_total", "e_ionic", "e_electronic", "n", "e_ij_max", "weighted_surface_energy_EV_PER_ANG2", "weighted_surface_energy", "weighted_work_function", "surface_anisotropy", "shape_factor", "has_reconstructed", "possible_species", "has_props", "theoretical", "database_IDs"]}