{"builder_meta": null, "nsites": null, "elements": null, "nelements": null, "composition": null, "composition_reduced": null, "formula_pretty": "TbNp3", "formula_anonymous": "AB3", "chemsys": null, "volume": 96.85480246060727, "density": 14.914542098087521, "density_atomic": 24.21370061515182, "symmetry": null, "property_name": null, "material_id": "mp-1187386", "deprecated": null, "deprecation_reasons": null, "last_updated": null, "origins": null, "warnings": null, "structure": {"@module": "pymatgen.core.structure", "@class": "Structure", "charge": 0, "lattice": {"matrix": [[-2.289922, 2.289922, 4.617637], [2.289922, -2.289922, 4.617637], [2.289922, 2.289922, -4.617637]], "pbc": [true, true, true], "a": 5.6400405136786915, "b": 5.6400405136786915, "c": 5.6400405136786915, "alpha": 132.09092768341037, "beta": 132.09092768341037, "gamma": 70.0854543602134, "volume": 96.85480246060727}, "properties": {}, "sites": [{"species": [{"element": "Tb", "occu": 1}], "abc": [0.0, 0.0, 0.0], "properties": {"magmom": 0.049}, "label": "Tb", "xyz": [0.0, 0.0, 0.0]}, {"species": [{"element": "Np", "occu": 1}], "abc": [0.75, 0.25, 0.5], "properties": {"magmom": 3.434}, "label": "Np", "xyz": [0.0, 2.289922, 2.3088185]}, {"species": [{"element": "Np", "occu": 1}], "abc": [0.25, 0.75, 0.5], "properties": {"magmom": 3.434}, "label": "Np", "xyz": [2.289922, 0.0, 2.3088185]}, {"species": [{"element": "Np", "occu": 1}], "abc": [0.5, 0.5, 0.0], "properties": {"magmom": 3.433}, "label": "Np", "xyz": [0.0, 0.0, 4.617637]}]}, "task_ids": null, "uncorrected_energy_per_atom": null, "energy_per_atom": -69.3746219075, "formation_energy_per_atom": 0.7001452784375031, "energy_above_hull": 0.7001452784375031, "is_stable": false, "equilibrium_reaction_energy_per_atom": null, "decomposes_to": null, "xas": null, "grain_boundaries": null, "band_gap": 0.0, "cbm": null, "vbm": null, "efermi": 11.48836018, "is_gap_direct": null, "is_metal": null, "es_source_calc_id": null, "bandstructure": null, "dos": null, "dos_energy_up": null, "dos_energy_down": null, "is_magnetic": null, "ordering": null, "total_magnetization": 10.8371858, "total_magnetization_normalized_vol": null, "total_magnetization_normalized_formula_units": null, "num_magnetic_sites": null, "num_unique_magnetic_sites": null, "types_of_magnetic_species": null, "bulk_modulus": null, "shear_modulus": null, "universal_anisotropy": null, "homogeneous_poisson": null, "e_total": null, "e_ionic": null, "e_electronic": null, "n": null, "e_ij_max": null, "weighted_surface_energy_EV_PER_ANG2": null, "weighted_surface_energy": null, "weighted_work_function": null, "surface_anisotropy": null, "shape_factor": null, "has_reconstructed": null, "possible_species": null, "has_props": null, "theoretical": null, "database_IDs": null, "fields_not_requested": ["builder_meta", "nsites", "elements", "nelements", "composition", "composition_reduced", "chemsys", "symmetry", "property_name", "deprecated", "deprecation_reasons", "last_updated", "origins", "warnings", "task_ids", "uncorrected_energy_per_atom", "equilibrium_reaction_energy_per_atom", "decomposes_to", "xas", "grain_boundaries", "cbm", "vbm", "is_gap_direct", "is_metal", "es_source_calc_id", "bandstructure", "dos", "dos_energy_up", "dos_energy_down", "is_magnetic", "ordering", "total_magnetization_normalized_vol", "total_magnetization_normalized_formula_units", "num_magnetic_sites", "num_unique_magnetic_sites", "types_of_magnetic_species", "bulk_modulus", "shear_modulus", "universal_anisotropy", "homogeneous_poisson", "e_total", "e_ionic", "e_electronic", "n", "e_ij_max", "weighted_surface_energy_EV_PER_ANG2", "weighted_surface_energy", "weighted_work_function", "surface_anisotropy", "shape_factor", "has_reconstructed", "possible_species", "has_props", "theoretical", "database_IDs"]}