{"builder_meta": null, "nsites": null, "elements": null, "nelements": null, "composition": null, "composition_reduced": null, "formula_pretty": "TbO2", "formula_anonymous": "AB2", "chemsys": null, "volume": 40.96060566785996, "density": 7.740046922234936, "density_atomic": 13.653535222619986, "symmetry": null, "property_name": null, "material_id": "mp-2458", "deprecated": null, "deprecation_reasons": null, "last_updated": null, "origins": null, "warnings": null, "structure": {"@module": "pymatgen.core.structure", "@class": "Structure", "charge": 0, "lattice": {"matrix": [[-2.735975, -2.735975, 0.0], [-2.735975, 0.0, -2.735975], [0.0, -2.735975, -2.735975]], "pbc": [true, true, true], "a": 3.8692529513137286, "b": 3.8692529513137286, "c": 3.8692529513137286, "alpha": 60.00000000000001, "beta": 60.00000000000001, "gamma": 60.00000000000001, "volume": 40.96060566785996}, "properties": {}, "sites": [{"species": [{"element": "Tb", "occu": 1}], "abc": [0.0, 0.0, 0.0], "properties": {"magmom": -0.011}, "label": "Tb", "xyz": [0.0, 0.0, 0.0]}, {"species": [{"element": "O", "occu": 1}], "abc": [0.25, 0.25, 0.25], "properties": {"magmom": 0.432}, "label": "O", "xyz": [-1.3679875, -1.3679875, -1.3679875]}, {"species": [{"element": "O", "occu": 1}], "abc": [0.75, 0.75, 0.75], "properties": {"magmom": 0.432}, "label": "O", "xyz": [-4.1039625, -4.1039625, -4.1039625]}]}, "task_ids": null, "uncorrected_energy_per_atom": null, "energy_per_atom": -8.031722143333333, "formation_energy_per_atom": -3.187126932222221, "energy_above_hull": 0.131357295625001, "is_stable": false, "equilibrium_reaction_energy_per_atom": null, "decomposes_to": null, "xas": null, "grain_boundaries": null, "band_gap": 0.0, "cbm": null, "vbm": null, "efermi": 1.644191269999999, "is_gap_direct": null, "is_metal": null, "es_source_calc_id": null, "bandstructure": null, "dos": null, "dos_energy_up": null, "dos_energy_down": null, "is_magnetic": null, "ordering": null, "total_magnetization": 0.999713899999999, "total_magnetization_normalized_vol": null, "total_magnetization_normalized_formula_units": null, "num_magnetic_sites": null, "num_unique_magnetic_sites": null, "types_of_magnetic_species": null, "bulk_modulus": null, "shear_modulus": null, "universal_anisotropy": null, "homogeneous_poisson": null, "e_total": null, "e_ionic": null, "e_electronic": null, "n": null, "e_ij_max": null, "weighted_surface_energy_EV_PER_ANG2": null, "weighted_surface_energy": null, "weighted_work_function": null, "surface_anisotropy": null, "shape_factor": null, "has_reconstructed": null, "possible_species": null, "has_props": null, "theoretical": null, "database_IDs": null, "fields_not_requested": ["builder_meta", "nsites", "elements", "nelements", "composition", "composition_reduced", "chemsys", "symmetry", "property_name", "deprecated", "deprecation_reasons", "last_updated", "origins", "warnings", "task_ids", "uncorrected_energy_per_atom", "equilibrium_reaction_energy_per_atom", "decomposes_to", "xas", "grain_boundaries", "cbm", "vbm", "is_gap_direct", "is_metal", "es_source_calc_id", "bandstructure", "dos", "dos_energy_up", "dos_energy_down", "is_magnetic", "ordering", "total_magnetization_normalized_vol", "total_magnetization_normalized_formula_units", "num_magnetic_sites", "num_unique_magnetic_sites", "types_of_magnetic_species", "bulk_modulus", "shear_modulus", "universal_anisotropy", "homogeneous_poisson", "e_total", "e_ionic", "e_electronic", "n", "e_ij_max", "weighted_surface_energy_EV_PER_ANG2", "weighted_surface_energy", "weighted_work_function", "surface_anisotropy", "shape_factor", "has_reconstructed", "possible_species", "has_props", "theoretical", "database_IDs"]}