{
  "builder_meta": null,
  "nsites": null,
  "elements": null,
  "nelements": null,
  "composition": null,
  "composition_reduced": null,
  "formula_pretty": "TbO3",
  "formula_anonymous": "AB3",
  "chemsys": null,
  "volume": 128.22862321905438,
  "density": 5.359250219626467,
  "density_atomic": 16.028577902381798,
  "symmetry": null,
  "property_name": null,
  "material_id": "mp-1025387",
  "deprecated": null,
  "deprecation_reasons": null,
  "last_updated": null,
  "origins": null,
  "warnings": null,
  "structure": {
    "@module": "pymatgen.core.structure",
    "@class": "Structure",
    "charge": 0,
    "lattice": {
      "matrix": [
        [3.276621, -5.675274, 0.0],
        [3.276621, 5.675274, 0.0],
        [0.0, 0.0, 3.447799]
      ],
      "pbc": [true, true, true],
      "a": 6.553241957437327,
      "b": 6.553241957437327,
      "c": 3.447799,
      "alpha": 90.0,
      "beta": 90.0,
      "gamma": 119.99999957030064,
      "volume": 128.22862321905438
    },
    "properties": {},
    "sites": [
      {
        "species": [{ "element": "Tb", "occu": 1 }],
        "abc": [0.333333, 0.666667, 0.75],
        "properties": { "magmom": -0.025 },
        "label": "Tb",
        "xyz": [3.2766210000000004, 1.891761783516, 2.58584925]
      },
      {
        "species": [{ "element": "Tb", "occu": 1 }],
        "abc": [0.666667, 0.333333, 0.25],
        "properties": { "magmom": -0.025 },
        "label": "Tb",
        "xyz": [3.2766210000000004, -1.891761783516, 0.86194975]
      },
      {
        "species": [{ "element": "O", "occu": 1 }],
        "abc": [0.941452, 0.573419, 0.75],
        "properties": { "magmom": 0.837 },
        "label": "O",
        "xyz": [4.963658130891, -2.088688116042, 2.58584925]
      },
      {
        "species": [{ "element": "O", "occu": 1 }],
        "abc": [0.058547999999999004, 0.426581, 0.25],
        "properties": { "magmom": 0.837 },
        "label": "O",
        "xyz": [1.5895838691089967, 2.0886881160420057, 0.86194975]
      },
      {
        "species": [{ "element": "O", "occu": 1 }],
        "abc": [0.631967, 0.058547999999999004, 0.75],
        "properties": { "magmom": 0.837 },
        "label": "O",
        "xyz": [2.2625559498149963, -3.2543099418060053, 2.58584925]
      },
      {
        "species": [{ "element": "O", "occu": 1 }],
        "abc": [0.368033, 0.941452, 0.25],
        "properties": { "magmom": 0.837 },
        "label": "O",
        "xyz": [4.290686050185, 3.254309941806, 0.86194975]
      },
      {
        "species": [{ "element": "O", "occu": 1 }],
        "abc": [0.426581, 0.368033, 0.75],
        "properties": { "magmom": 0.837 },
        "label": "O",
        "xyz": [2.6036489192939998, -0.33227594215200007, 2.58584925]
      },
      {
        "species": [{ "element": "O", "occu": 1 }],
        "abc": [0.573419, 0.631967, 0.25],
        "properties": { "magmom": 0.837 },
        "label": "O",
        "xyz": [3.949593080706, 0.3322759421519996, 0.86194975]
      }
    ]
  },
  "task_ids": null,
  "uncorrected_energy_per_atom": null,
  "energy_per_atom": -6.91545073125,
  "formation_energy_per_atom": -2.045014071666666,
  "energy_above_hull": 0.44384909921874904,
  "is_stable": false,
  "equilibrium_reaction_energy_per_atom": null,
  "decomposes_to": null,
  "xas": null,
  "grain_boundaries": null,
  "band_gap": 0.156399999999999,
  "cbm": null,
  "vbm": null,
  "efermi": -0.45927654,
  "is_gap_direct": null,
  "is_metal": null,
  "es_source_calc_id": null,
  "bandstructure": null,
  "dos": null,
  "dos_energy_up": null,
  "dos_energy_down": null,
  "is_magnetic": null,
  "ordering": null,
  "total_magnetization": 6.0000493,
  "total_magnetization_normalized_vol": null,
  "total_magnetization_normalized_formula_units": null,
  "num_magnetic_sites": null,
  "num_unique_magnetic_sites": null,
  "types_of_magnetic_species": null,
  "bulk_modulus": null,
  "shear_modulus": null,
  "universal_anisotropy": null,
  "homogeneous_poisson": null,
  "e_total": null,
  "e_ionic": null,
  "e_electronic": null,
  "n": null,
  "e_ij_max": null,
  "weighted_surface_energy_EV_PER_ANG2": null,
  "weighted_surface_energy": null,
  "weighted_work_function": null,
  "surface_anisotropy": null,
  "shape_factor": null,
  "has_reconstructed": null,
  "possible_species": null,
  "has_props": null,
  "theoretical": null,
  "database_IDs": null,
  "fields_not_requested": [
    "builder_meta",
    "nsites",
    "elements",
    "nelements",
    "composition",
    "composition_reduced",
    "chemsys",
    "symmetry",
    "property_name",
    "deprecated",
    "deprecation_reasons",
    "last_updated",
    "origins",
    "warnings",
    "task_ids",
    "uncorrected_energy_per_atom",
    "equilibrium_reaction_energy_per_atom",
    "decomposes_to",
    "xas",
    "grain_boundaries",
    "cbm",
    "vbm",
    "is_gap_direct",
    "is_metal",
    "es_source_calc_id",
    "bandstructure",
    "dos",
    "dos_energy_up",
    "dos_energy_down",
    "is_magnetic",
    "ordering",
    "total_magnetization_normalized_vol",
    "total_magnetization_normalized_formula_units",
    "num_magnetic_sites",
    "num_unique_magnetic_sites",
    "types_of_magnetic_species",
    "bulk_modulus",
    "shear_modulus",
    "universal_anisotropy",
    "homogeneous_poisson",
    "e_total",
    "e_ionic",
    "e_electronic",
    "n",
    "e_ij_max",
    "weighted_surface_energy_EV_PER_ANG2",
    "weighted_surface_energy",
    "weighted_work_function",
    "surface_anisotropy",
    "shape_factor",
    "has_reconstructed",
    "possible_species",
    "has_props",
    "theoretical",
    "database_IDs"
  ]
}
