{
  "builder_meta": null,
  "nsites": null,
  "elements": null,
  "nelements": null,
  "composition": null,
  "composition_reduced": null,
  "formula_pretty": "TbOs2",
  "formula_anonymous": "AB2",
  "chemsys": null,
  "volume": 215.87160864821422,
  "density": 16.59635468018038,
  "density_atomic": 17.98930072068452,
  "symmetry": null,
  "property_name": null,
  "material_id": "mp-1095666",
  "deprecated": null,
  "deprecation_reasons": null,
  "last_updated": null,
  "origins": null,
  "warnings": null,
  "structure": {
    "@module": "pymatgen.core.structure",
    "@class": "Structure",
    "charge": 0,
    "lattice": {
      "matrix": [
        [-2.63827693, -4.569618979999999, -0.0],
        [-2.63827693, 4.569618979999999, 0.0],
        [0.0, 0.0, -8.95292946]
      ],
      "pbc": [true, true, true],
      "a": 5.2765445872982495,
      "b": 5.2765445872982495,
      "c": 8.95292946,
      "alpha": 90.0,
      "beta": 90.0,
      "gamma": 119.99988373505063,
      "volume": 215.87160864821413
    },
    "properties": {},
    "sites": [
      {
        "species": [{ "element": "Tb", "occu": 1 }],
        "abc": [0.66667034, 0.33332966, 0.56536709],
        "properties": { "magmom": -0.0 },
        "label": "Tb",
        "xyz": [-2.63827693, -1.5232398981341058, -5.061691675775471]
      },
      {
        "species": [{ "element": "Tb", "occu": 1 }],
        "abc": [0.33332966, 0.66667034, 0.43463291],
        "properties": { "magmom": -0.0 },
        "label": "Tb",
        "xyz": [-2.63827693, 1.5232398981341058, -3.8912377842245283]
      },
      {
        "species": [{ "element": "Tb", "occu": 1 }],
        "abc": [0.33332966, 0.66667034, 0.06536709],
        "properties": { "magmom": -0.0 },
        "label": "Tb",
        "xyz": [-2.63827693, 1.5232398981341058, -0.5852269457754714]
      },
      {
        "species": [{ "element": "Tb", "occu": 1 }],
        "abc": [0.66667034, 0.33332966, 0.93463291],
        "properties": { "magmom": -0.0 },
        "label": "Tb",
        "xyz": [-2.63827693, -1.5232398981341058, -8.36770251422453]
      },
      {
        "species": [{ "element": "Os", "occu": 1 }],
        "abc": [-0.0, -0.0, 0.5],
        "properties": { "magmom": 0.0 },
        "label": "Os",
        "xyz": [0.0, 0.0, -4.47646473]
      },
      {
        "species": [{ "element": "Os", "occu": 1 }],
        "abc": [-0.0, -0.0, -0.0],
        "properties": { "magmom": 0.0 },
        "label": "Os",
        "xyz": [0.0, 0.0, 0.0]
      },
      {
        "species": [{ "element": "Os", "occu": 1 }],
        "abc": [0.17097323, 0.34194728, 0.75],
        "properties": { "magmom": 0.0 },
        "label": "Os",
        "xyz": [-1.3532263484568343, 0.7812862639674688, -6.714697095]
      },
      {
        "species": [{ "element": "Os", "occu": 1 }],
        "abc": [0.17093621, 0.82906379, 0.75],
        "properties": { "magmom": 0.0 },
        "label": "Os",
        "xyz": [-2.63827693, 3.0073922808294675, -6.714697095]
      },
      {
        "species": [{ "element": "Os", "occu": 1 }],
        "abc": [0.65805272, 0.82902677, 0.75],
        "properties": { "magmom": 0.0 },
        "label": "Os",
        "xyz": [-3.923327511543166, 0.7812862639674685, -6.714697095]
      },
      {
        "species": [{ "element": "Os", "occu": 1 }],
        "abc": [0.82902677, 0.65805272, 0.25],
        "properties": { "magmom": 0.0 },
        "label": "Os",
        "xyz": [-3.923327511543166, -0.7812862639674685, -2.238232365]
      },
      {
        "species": [{ "element": "Os", "occu": 1 }],
        "abc": [0.82906379, 0.17093621, 0.25],
        "properties": { "magmom": 0.0 },
        "label": "Os",
        "xyz": [-2.63827693, -3.0073922808294675, -2.238232365]
      },
      {
        "species": [{ "element": "Os", "occu": 1 }],
        "abc": [0.34194728, 0.17097323, 0.25],
        "properties": { "magmom": 0.0 },
        "label": "Os",
        "xyz": [-1.3532263484568343, -0.7812862639674688, -2.238232365]
      }
    ]
  },
  "task_ids": null,
  "uncorrected_energy_per_atom": null,
  "energy_per_atom": -46.10101988083333,
  "formation_energy_per_atom": -0.3687225975,
  "energy_above_hull": 0.0,
  "is_stable": true,
  "equilibrium_reaction_energy_per_atom": null,
  "decomposes_to": null,
  "xas": null,
  "grain_boundaries": null,
  "band_gap": 0.0,
  "cbm": null,
  "vbm": null,
  "efermi": 6.24692165,
  "is_gap_direct": null,
  "is_metal": null,
  "es_source_calc_id": null,
  "bandstructure": null,
  "dos": null,
  "dos_energy_up": null,
  "dos_energy_down": null,
  "is_magnetic": null,
  "ordering": null,
  "total_magnetization": 1e-6,
  "total_magnetization_normalized_vol": null,
  "total_magnetization_normalized_formula_units": null,
  "num_magnetic_sites": null,
  "num_unique_magnetic_sites": null,
  "types_of_magnetic_species": null,
  "bulk_modulus": null,
  "shear_modulus": null,
  "universal_anisotropy": null,
  "homogeneous_poisson": null,
  "e_total": null,
  "e_ionic": null,
  "e_electronic": null,
  "n": null,
  "e_ij_max": null,
  "weighted_surface_energy_EV_PER_ANG2": null,
  "weighted_surface_energy": null,
  "weighted_work_function": null,
  "surface_anisotropy": null,
  "shape_factor": null,
  "has_reconstructed": null,
  "possible_species": null,
  "has_props": null,
  "theoretical": null,
  "database_IDs": null,
  "fields_not_requested": [
    "builder_meta",
    "nsites",
    "elements",
    "nelements",
    "composition",
    "composition_reduced",
    "chemsys",
    "symmetry",
    "property_name",
    "deprecated",
    "deprecation_reasons",
    "last_updated",
    "origins",
    "warnings",
    "task_ids",
    "uncorrected_energy_per_atom",
    "equilibrium_reaction_energy_per_atom",
    "decomposes_to",
    "xas",
    "grain_boundaries",
    "cbm",
    "vbm",
    "is_gap_direct",
    "is_metal",
    "es_source_calc_id",
    "bandstructure",
    "dos",
    "dos_energy_up",
    "dos_energy_down",
    "is_magnetic",
    "ordering",
    "total_magnetization_normalized_vol",
    "total_magnetization_normalized_formula_units",
    "num_magnetic_sites",
    "num_unique_magnetic_sites",
    "types_of_magnetic_species",
    "bulk_modulus",
    "shear_modulus",
    "universal_anisotropy",
    "homogeneous_poisson",
    "e_total",
    "e_ionic",
    "e_electronic",
    "n",
    "e_ij_max",
    "weighted_surface_energy_EV_PER_ANG2",
    "weighted_surface_energy",
    "weighted_work_function",
    "surface_anisotropy",
    "shape_factor",
    "has_reconstructed",
    "possible_species",
    "has_props",
    "theoretical",
    "database_IDs"
  ]
}
