{
  "builder_meta": null,
  "nsites": null,
  "elements": null,
  "nelements": null,
  "composition": null,
  "composition_reduced": null,
  "formula_pretty": "TbOs3",
  "formula_anonymous": "AB3",
  "chemsys": null,
  "volume": 137.87801077425686,
  "density": 17.574300433586483,
  "density_atomic": 17.234751346782108,
  "symmetry": null,
  "property_name": null,
  "material_id": "mp-1187362",
  "deprecated": null,
  "deprecation_reasons": null,
  "last_updated": null,
  "origins": null,
  "warnings": null,
  "structure": {
    "@module": "pymatgen.core.structure",
    "@class": "Structure",
    "charge": 0,
    "lattice": {
      "matrix": [
        [2.948083999999999, -5.106231, 0.0],
        [2.948083999999999, 5.106231, 0.0],
        [0.0, 0.0, 4.57957]
      ],
      "pbc": [true, true, true],
      "a": 5.896167763591619,
      "b": 5.896167763591619,
      "c": 4.57957,
      "alpha": 90.0,
      "beta": 90.0,
      "gamma": 119.99999734731895,
      "volume": 137.87801077425678
    },
    "properties": {},
    "sites": [
      {
        "species": [{ "element": "Tb", "occu": 1 }],
        "abc": [0.333333, 0.666667, 0.75],
        "properties": { "magmom": -0.0 },
        "label": "Tb",
        "xyz": [2.948083999999999, 1.7020804041540003, 3.4346775000000003]
      },
      {
        "species": [{ "element": "Tb", "occu": 1 }],
        "abc": [0.666667, 0.333333, 0.25],
        "properties": { "magmom": -0.001 },
        "label": "Tb",
        "xyz": [2.948083999999999, -1.7020804041540003, 1.1448925]
      },
      {
        "species": [{ "element": "Os", "occu": 1 }],
        "abc": [0.155349, 0.310699, 0.25],
        "properties": { "magmom": -0.003 },
        "label": "Os",
        "xyz": [1.3739486520319995, 0.79325298585, 1.1448925]
      },
      {
        "species": [{ "element": "Os", "occu": 1 }],
        "abc": [0.689300999999999, 0.844650999999999, 0.25],
        "properties": { "magmom": -0.002 },
        "label": "Os",
        "xyz": [4.522219347967993, 0.7932529858499997, 1.1448925]
      },
      {
        "species": [{ "element": "Os", "occu": 1 }],
        "abc": [0.155349, 0.844650999999999, 0.25],
        "properties": { "magmom": -0.002 },
        "label": "Os",
        "xyz": [2.948083999999996, 3.519735240761995, 1.1448925]
      },
      {
        "species": [{ "element": "Os", "occu": 1 }],
        "abc": [0.844650999999999, 0.689300999999999, 0.75],
        "properties": { "magmom": -0.003 },
        "label": "Os",
        "xyz": [4.522219347967993, -0.7932529858499997, 3.4346775000000003]
      },
      {
        "species": [{ "element": "Os", "occu": 1 }],
        "abc": [0.310699, 0.155349, 0.75],
        "properties": { "magmom": -0.002 },
        "label": "Os",
        "xyz": [1.3739486520319995, -0.79325298585, 3.4346775000000003]
      },
      {
        "species": [{ "element": "Os", "occu": 1 }],
        "abc": [0.844650999999999, 0.155349, 0.75],
        "properties": { "magmom": -0.002 },
        "label": "Os",
        "xyz": [2.948083999999996, -3.519735240761995, 3.4346775000000003]
      }
    ]
  },
  "task_ids": null,
  "uncorrected_energy_per_atom": null,
  "energy_per_atom": -47.16383164125,
  "formation_energy_per_atom": 0.381698533749997,
  "energy_above_hull": 0.6582404818749971,
  "is_stable": false,
  "equilibrium_reaction_energy_per_atom": null,
  "decomposes_to": null,
  "xas": null,
  "grain_boundaries": null,
  "band_gap": 0.0,
  "cbm": null,
  "vbm": null,
  "efermi": 6.21738962,
  "is_gap_direct": null,
  "is_metal": null,
  "es_source_calc_id": null,
  "bandstructure": null,
  "dos": null,
  "dos_energy_up": null,
  "dos_energy_down": null,
  "is_magnetic": null,
  "ordering": null,
  "total_magnetization": 0.0203268,
  "total_magnetization_normalized_vol": null,
  "total_magnetization_normalized_formula_units": null,
  "num_magnetic_sites": null,
  "num_unique_magnetic_sites": null,
  "types_of_magnetic_species": null,
  "bulk_modulus": null,
  "shear_modulus": null,
  "universal_anisotropy": null,
  "homogeneous_poisson": null,
  "e_total": null,
  "e_ionic": null,
  "e_electronic": null,
  "n": null,
  "e_ij_max": null,
  "weighted_surface_energy_EV_PER_ANG2": null,
  "weighted_surface_energy": null,
  "weighted_work_function": null,
  "surface_anisotropy": null,
  "shape_factor": null,
  "has_reconstructed": null,
  "possible_species": null,
  "has_props": null,
  "theoretical": null,
  "database_IDs": null,
  "fields_not_requested": [
    "builder_meta",
    "nsites",
    "elements",
    "nelements",
    "composition",
    "composition_reduced",
    "chemsys",
    "symmetry",
    "property_name",
    "deprecated",
    "deprecation_reasons",
    "last_updated",
    "origins",
    "warnings",
    "task_ids",
    "uncorrected_energy_per_atom",
    "equilibrium_reaction_energy_per_atom",
    "decomposes_to",
    "xas",
    "grain_boundaries",
    "cbm",
    "vbm",
    "is_gap_direct",
    "is_metal",
    "es_source_calc_id",
    "bandstructure",
    "dos",
    "dos_energy_up",
    "dos_energy_down",
    "is_magnetic",
    "ordering",
    "total_magnetization_normalized_vol",
    "total_magnetization_normalized_formula_units",
    "num_magnetic_sites",
    "num_unique_magnetic_sites",
    "types_of_magnetic_species",
    "bulk_modulus",
    "shear_modulus",
    "universal_anisotropy",
    "homogeneous_poisson",
    "e_total",
    "e_ionic",
    "e_electronic",
    "n",
    "e_ij_max",
    "weighted_surface_energy_EV_PER_ANG2",
    "weighted_surface_energy",
    "weighted_work_function",
    "surface_anisotropy",
    "shape_factor",
    "has_reconstructed",
    "possible_species",
    "has_props",
    "theoretical",
    "database_IDs"
  ]
}
