{"builder_meta": null, "nsites": null, "elements": null, "nelements": null, "composition": null, "composition_reduced": null, "formula_pretty": "TbPd", "formula_anonymous": "AB", "chemsys": null, "volume": 178.0320688778174, "density": 9.899706779637398, "density_atomic": 22.254008609727176, "symmetry": null, "property_name": null, "material_id": "mp-1080451", "deprecated": null, "deprecation_reasons": null, "last_updated": null, "origins": null, "warnings": null, "structure": {"@module": "pymatgen.core.structure", "@class": "Structure", "charge": 0, "lattice": {"matrix": [[0.0, 4.61627805, 0.0], [0.0, 0.0, 5.52418889], [6.98132344, 0.0, 0.0]], "pbc": [true, true, true], "a": 4.61627805, "b": 5.52418889, "c": 6.98132344, "alpha": 90.0, "beta": 90.0, "gamma": 90.0, "volume": 178.0320688778174}, "properties": {}, "sites": [{"species": [{"element": "Tb", "occu": 1}], "abc": [0.25, 0.35804217, 0.68322697], "properties": {"magmom": -0.0}, "label": "Tb", "xyz": [4.769828460501176, 1.1540695125, 1.9778925776654912]}, {"species": [{"element": "Tb", "occu": 1}], "abc": [0.25, 0.14195783, 0.18322697000000002], "properties": {"magmom": -0.0}, "label": "Tb", "xyz": [1.2791667405011768, 1.1540695125, 0.7842018673345087]}, {"species": [{"element": "Tb", "occu": 1}], "abc": [0.75, 0.6419578300000001, 0.31677303], "properties": {"magmom": -0.0}, "label": "Tb", "xyz": [2.211494979498823, 3.4622085375, 3.546296312334509]}, {"species": [{"element": "Tb", "occu": 1}], "abc": [0.75, 0.85804217, 0.81677303], "properties": {"magmom": -0.0}, "label": "Tb", "xyz": [5.702156699498823, 3.4622085375, 4.739987022665491]}, {"species": [{"element": "Pd", "occu": 1}], "abc": [0.25, 0.8472987200000001, 0.54146353], "properties": {"magmom": 0.0}, "label": "Pd", "xyz": [3.780132033894143, 1.1540695125, 4.680638175535221]}, {"species": [{"element": "Pd", "occu": 1}], "abc": [0.25, 0.65270128, 0.04146353], "properties": {"magmom": 0.0}, "label": "Pd", "xyz": [0.2894703138941432, 1.1540695125, 3.605645159464779]}, {"species": [{"element": "Pd", "occu": 1}], "abc": [0.75, 0.15270128, 0.45853647000000003], "properties": {"magmom": 0.0}, "label": "Pd", "xyz": [3.201191406105857, 3.4622085375, 0.8435507144647791]}, {"species": [{"element": "Pd", "occu": 1}], "abc": [0.75, 0.34729872, 0.95853647], "properties": {"magmom": 0.0}, "label": "Pd", "xyz": [6.6918531261058565, 3.4622085375, 1.9185437305352206]}]}, "task_ids": null, "uncorrected_energy_per_atom": null, "energy_per_atom": -28.04682892625, "formation_energy_per_atom": -0.9533850462499981, "energy_above_hull": 0.0, "is_stable": true, "equilibrium_reaction_energy_per_atom": null, "decomposes_to": null, "xas": null, "grain_boundaries": null, "band_gap": 0.0, "cbm": null, "vbm": null, "efermi": 4.42952113, "is_gap_direct": null, "is_metal": null, "es_source_calc_id": null, "bandstructure": null, "dos": null, "dos_energy_up": null, "dos_energy_down": null, "is_magnetic": null, "ordering": null, "total_magnetization": 0.0, "total_magnetization_normalized_vol": null, "total_magnetization_normalized_formula_units": null, "num_magnetic_sites": null, "num_unique_magnetic_sites": null, "types_of_magnetic_species": null, "bulk_modulus": null, "shear_modulus": null, "universal_anisotropy": null, "homogeneous_poisson": null, "e_total": null, "e_ionic": null, "e_electronic": null, "n": null, "e_ij_max": null, "weighted_surface_energy_EV_PER_ANG2": null, "weighted_surface_energy": null, "weighted_work_function": null, "surface_anisotropy": null, "shape_factor": null, "has_reconstructed": null, "possible_species": null, "has_props": null, "theoretical": null, "database_IDs": null, "fields_not_requested": ["builder_meta", "nsites", "elements", "nelements", "composition", "composition_reduced", "chemsys", "symmetry", "property_name", "deprecated", "deprecation_reasons", "last_updated", "origins", "warnings", "task_ids", "uncorrected_energy_per_atom", "equilibrium_reaction_energy_per_atom", "decomposes_to", "xas", "grain_boundaries", "cbm", "vbm", "is_gap_direct", "is_metal", "es_source_calc_id", "bandstructure", "dos", "dos_energy_up", "dos_energy_down", "is_magnetic", "ordering", "total_magnetization_normalized_vol", "total_magnetization_normalized_formula_units", "num_magnetic_sites", "num_unique_magnetic_sites", "types_of_magnetic_species", "bulk_modulus", "shear_modulus", "universal_anisotropy", "homogeneous_poisson", "e_total", "e_ionic", "e_electronic", "n", "e_ij_max", "weighted_surface_energy_EV_PER_ANG2", "weighted_surface_energy", "weighted_work_function", "surface_anisotropy", "shape_factor", "has_reconstructed", "possible_species", "has_props", "theoretical", "database_IDs"]}