{"builder_meta": null, "nsites": null, "elements": null, "nelements": null, "composition": null, "composition_reduced": null, "formula_pretty": "TbPm3", "formula_anonymous": "AB3", "chemsys": null, "volume": 275.4555321638965, "density": 7.16076557672667, "density_atomic": 34.431941520487065, "symmetry": null, "property_name": null, "material_id": "mp-1187369", "deprecated": null, "deprecation_reasons": null, "last_updated": null, "origins": null, "warnings": null, "structure": {"@module": "pymatgen.core.structure", "@class": "Structure", "charge": 0, "lattice": {"matrix": [[3.70395119, -6.41543284, 0.0], [3.70395337, 6.41543394, -0.0], [-0.0, -0.0, 5.79602327]], "pbc": [true, true, true], "a": 7.407903410712972, "b": 7.40790545334093, "c": 5.79602327, "alpha": 90.0, "beta": 90.0, "gamma": 119.99999885708296, "volume": 275.4555321638965}, "properties": {}, "sites": [{"species": [{"element": "Tb", "occu": 1}], "abc": [0.333333, 0.666667, 0.75], "properties": {"magmom": 0.0}, "label": "Tb", "xyz": [3.70395264333406, 2.13848262362226, 4.3470174525]}, {"species": [{"element": "Tb", "occu": 1}], "abc": [0.666667, 0.333333, 0.25], "properties": {"magmom": 0.0}, "label": "Tb", "xyz": [3.7039519166659405, -2.1384815236222607, 1.4490058175]}, {"species": [{"element": "Pm", "occu": 1}], "abc": [0.16699037, 0.33398075, 0.25], "properties": {"magmom": 0.0}, "label": "Pm", "xyz": [1.8555733041576676, 1.071315935194904, 1.4490058175]}, {"species": [{"element": "Pm", "occu": 1}], "abc": [0.66601825, 0.8330096300000001, 0.25], "properties": {"magmom": 0.0}, "label": "Pm", "xyz": [5.552327915930171, 1.0713228995595117, 1.4490058175]}, {"species": [{"element": "Pm", "occu": 1}], "abc": [0.16699037, 0.8330096300000001, 0.25], "properties": {"magmom": 0.0}, "label": "Pm", "xyz": [3.7039530059609937, 4.2728027489870914, 1.4490058175]}, {"species": [{"element": "Pm", "occu": 1}], "abc": [0.8330096300000001, 0.6660192500000001, 0.75], "properties": {"magmom": 0.0}, "label": "Pm", "xyz": [5.552331255842333, -1.0713148351949044, 4.3470174525]}, {"species": [{"element": "Pm", "occu": 1}], "abc": [0.33398175, 0.16699037, 0.75], "properties": {"magmom": 0.0}, "label": "Pm", "xyz": [1.8555766440698296, -1.0713217995595123, 4.3470174525]}, {"species": [{"element": "Pm", "occu": 1}], "abc": [0.8330096300000001, 0.16699037, 0.75], "properties": {"magmom": 0.0}, "label": "Pm", "xyz": [3.703951554039007, -4.272801648987092, 4.3470174525]}]}, "task_ids": null, "uncorrected_energy_per_atom": null, "energy_per_atom": -29.9407191675, "formation_energy_per_atom": 0.021348716874999, "energy_above_hull": 0.021418969999999003, "is_stable": false, "equilibrium_reaction_energy_per_atom": null, "decomposes_to": null, "xas": null, "grain_boundaries": null, "band_gap": 0.0, "cbm": null, "vbm": null, "efermi": 3.21580772, "is_gap_direct": null, "is_metal": null, "es_source_calc_id": null, "bandstructure": null, "dos": null, "dos_energy_up": null, "dos_energy_down": null, "is_magnetic": null, "ordering": null, "total_magnetization": 0.0001358, "total_magnetization_normalized_vol": null, "total_magnetization_normalized_formula_units": null, "num_magnetic_sites": null, "num_unique_magnetic_sites": null, "types_of_magnetic_species": null, "bulk_modulus": null, "shear_modulus": null, "universal_anisotropy": null, "homogeneous_poisson": null, "e_total": null, "e_ionic": null, "e_electronic": null, "n": null, "e_ij_max": null, "weighted_surface_energy_EV_PER_ANG2": null, "weighted_surface_energy": null, "weighted_work_function": null, "surface_anisotropy": null, "shape_factor": null, "has_reconstructed": null, "possible_species": null, "has_props": null, "theoretical": null, "database_IDs": null, "fields_not_requested": ["builder_meta", "nsites", "elements", "nelements", "composition", "composition_reduced", "chemsys", "symmetry", "property_name", "deprecated", "deprecation_reasons", "last_updated", "origins", "warnings", "task_ids", "uncorrected_energy_per_atom", "equilibrium_reaction_energy_per_atom", "decomposes_to", "xas", "grain_boundaries", "cbm", "vbm", "is_gap_direct", "is_metal", "es_source_calc_id", "bandstructure", "dos", "dos_energy_up", "dos_energy_down", "is_magnetic", "ordering", "total_magnetization_normalized_vol", "total_magnetization_normalized_formula_units", "num_magnetic_sites", "num_unique_magnetic_sites", "types_of_magnetic_species", "bulk_modulus", "shear_modulus", "universal_anisotropy", "homogeneous_poisson", "e_total", "e_ionic", "e_electronic", "n", "e_ij_max", "weighted_surface_energy_EV_PER_ANG2", "weighted_surface_energy", "weighted_work_function", "surface_anisotropy", "shape_factor", "has_reconstructed", "possible_species", "has_props", "theoretical", "database_IDs"]}