{"builder_meta": null, "nsites": null, "elements": null, "nelements": null, "composition": null, "composition_reduced": null, "formula_pretty": "TbPt", "formula_anonymous": "AB", "chemsys": null, "volume": 176.80515790018845, "density": 13.299303314409611, "density_atomic": 22.100644737523556, "symmetry": null, "property_name": null, "material_id": "mp-1079305", "deprecated": null, "deprecation_reasons": null, "last_updated": null, "origins": null, "warnings": null, "structure": {"@module": "pymatgen.core.structure", "@class": "Structure", "charge": 0, "lattice": {"matrix": [[0.0, 4.51434118, 0.0], [0.0, -0.0, 5.55476054], [7.05074828, 0.0, 0.0]], "pbc": [true, true, true], "a": 4.51434118, "b": 5.55476054, "c": 7.05074828, "alpha": 90.0, "beta": 90.0, "gamma": 90.0, "volume": 176.80515790018845}, "properties": {}, "sites": [{"species": [{"element": "Tb", "occu": 1}], "abc": [0.25, 0.35991454, 0.6822076300000001], "properties": {"magmom": 0.0}, "label": "Tb", "xyz": [4.810074273825377, 1.128585295, 1.9992390845642516]}, {"species": [{"element": "Tb", "occu": 1}], "abc": [0.25, 0.14008546, 0.18220763], "properties": {"magmom": 0.0}, "label": "Tb", "xyz": [1.2847001338253765, 1.128585295, 0.7781411854357484]}, {"species": [{"element": "Tb", "occu": 1}], "abc": [0.75, 0.64008546, 0.31779237], "properties": {"magmom": 0.0}, "label": "Tb", "xyz": [2.2406740061746233, 3.385755885, 3.5555214554357484]}, {"species": [{"element": "Tb", "occu": 1}], "abc": [0.75, 0.85991454, 0.81779237], "properties": {"magmom": 0.0}, "label": "Tb", "xyz": [5.766048146174624, 3.385755885, 4.776619354564252]}, {"species": [{"element": "Pt", "occu": 1}], "abc": [0.25, 0.84515708, 0.54349178], "properties": {"magmom": -0.0}, "label": "Pt", "xyz": [3.8320237330291382, 1.128585295, 4.694645198085623]}, {"species": [{"element": "Pt", "occu": 1}], "abc": [0.25, 0.65484292, 0.04349178], "properties": {"magmom": -0.0}, "label": "Pt", "xyz": [0.3066495930291384, 1.128585295, 3.637495611914377]}, {"species": [{"element": "Pt", "occu": 1}], "abc": [0.75, 0.15484292, 0.45650822], "properties": {"magmom": -0.0}, "label": "Pt", "xyz": [3.2187245469708614, 3.385755885, 0.8601153419143768]}, {"species": [{"element": "Pt", "occu": 1}], "abc": [0.75, 0.34515708, 0.95650822], "properties": {"magmom": -0.0}, "label": "Pt", "xyz": [6.744098686970862, 3.385755885, 1.9172649280856233]}]}, "task_ids": null, "uncorrected_energy_per_atom": null, "energy_per_atom": -42.75710212875, "formation_energy_per_atom": -1.400026603749999, "energy_above_hull": 0.0, "is_stable": true, "equilibrium_reaction_energy_per_atom": null, "decomposes_to": null, "xas": null, "grain_boundaries": null, "band_gap": 0.0, "cbm": null, "vbm": null, "efermi": 5.06078196, "is_gap_direct": null, "is_metal": null, "es_source_calc_id": null, "bandstructure": null, "dos": null, "dos_energy_up": null, "dos_energy_down": null, "is_magnetic": null, "ordering": null, "total_magnetization": 0.0, "total_magnetization_normalized_vol": null, "total_magnetization_normalized_formula_units": null, "num_magnetic_sites": null, "num_unique_magnetic_sites": null, "types_of_magnetic_species": null, "bulk_modulus": null, "shear_modulus": null, "universal_anisotropy": null, "homogeneous_poisson": null, "e_total": null, "e_ionic": null, "e_electronic": null, "n": null, "e_ij_max": null, "weighted_surface_energy_EV_PER_ANG2": null, "weighted_surface_energy": null, "weighted_work_function": null, "surface_anisotropy": null, "shape_factor": null, "has_reconstructed": null, "possible_species": null, "has_props": null, "theoretical": null, "database_IDs": null, "fields_not_requested": ["builder_meta", "nsites", "elements", "nelements", "composition", "composition_reduced", "chemsys", "symmetry", "property_name", "deprecated", "deprecation_reasons", "last_updated", "origins", "warnings", "task_ids", "uncorrected_energy_per_atom", "equilibrium_reaction_energy_per_atom", "decomposes_to", "xas", "grain_boundaries", "cbm", "vbm", "is_gap_direct", "is_metal", "es_source_calc_id", "bandstructure", "dos", "dos_energy_up", "dos_energy_down", "is_magnetic", "ordering", "total_magnetization_normalized_vol", "total_magnetization_normalized_formula_units", "num_magnetic_sites", "num_unique_magnetic_sites", "types_of_magnetic_species", "bulk_modulus", "shear_modulus", "universal_anisotropy", "homogeneous_poisson", "e_total", "e_ionic", "e_electronic", "n", "e_ij_max", "weighted_surface_energy_EV_PER_ANG2", "weighted_surface_energy", "weighted_work_function", "surface_anisotropy", "shape_factor", "has_reconstructed", "possible_species", "has_props", "theoretical", "database_IDs"]}