{
  "builder_meta": null,
  "nsites": null,
  "elements": null,
  "nelements": null,
  "composition": null,
  "composition_reduced": null,
  "formula_pretty": "TbPu3",
  "formula_anonymous": "AB3",
  "chemsys": null,
  "volume": 231.58093781940624,
  "density": 12.776667743292164,
  "density_atomic": 28.94761722742578,
  "symmetry": null,
  "property_name": null,
  "material_id": "mp-1187760",
  "deprecated": null,
  "deprecation_reasons": null,
  "last_updated": null,
  "origins": null,
  "warnings": null,
  "structure": {
    "@module": "pymatgen.core.structure",
    "@class": "Structure",
    "charge": 0,
    "lattice": {
      "matrix": [
        [3.465262, -6.00201, 0.0],
        [3.465262, 6.00201, 0.0],
        [0.0, 0.0, 5.567241]
      ],
      "pbc": [true, true, true],
      "a": 6.930524133768239,
      "b": 6.930524133768239,
      "c": 5.567241,
      "alpha": 90.0,
      "beta": 90.0,
      "gamma": 120.00000127696484,
      "volume": 231.58093781940624
    },
    "properties": {},
    "sites": [
      {
        "species": [{ "element": "Tb", "occu": 1 }],
        "abc": [0.333333, 0.666667, 0.75],
        "properties": { "magmom": -0.294 },
        "label": "Tb",
        "xyz": [3.465262, 2.00067400134, 4.17543075]
      },
      {
        "species": [{ "element": "Tb", "occu": 1 }],
        "abc": [0.666667, 0.333333, 0.25],
        "properties": { "magmom": -0.294 },
        "label": "Tb",
        "xyz": [3.465262, -2.00067400134, 1.39181025]
      },
      {
        "species": [{ "element": "Pu", "occu": 1 }],
        "abc": [0.163444999999999, 0.32689, 0.25],
        "properties": { "magmom": -5.521 },
        "label": "Pu",
        "xyz": [1.6991392427699965, 0.9809985244500061, 1.39181025]
      },
      {
        "species": [{ "element": "Pu", "occu": 1 }],
        "abc": [0.6731100000000001, 0.836554999999999, 0.25],
        "properties": { "magmom": -5.574 },
        "label": "Pu",
        "xyz": [5.231384757229997, 0.9809985244499941, 1.39181025]
      },
      {
        "species": [{ "element": "Pu", "occu": 1 }],
        "abc": [0.163444999999999, 0.836554999999999, 0.25],
        "properties": { "magmom": -5.523 },
        "label": "Pu",
        "xyz": [3.4652619999999934, 4.0400129511000005, 1.39181025]
      },
      {
        "species": [{ "element": "Pu", "occu": 1 }],
        "abc": [0.836554999999999, 0.6731100000000001, 0.75],
        "properties": { "magmom": -5.521 },
        "label": "Pu",
        "xyz": [5.231384757229997, -0.9809985244499941, 4.17543075]
      },
      {
        "species": [{ "element": "Pu", "occu": 1 }],
        "abc": [0.32689, 0.163444999999999, 0.75],
        "properties": { "magmom": -5.574 },
        "label": "Pu",
        "xyz": [1.6991392427699965, -0.9809985244500061, 4.17543075]
      },
      {
        "species": [{ "element": "Pu", "occu": 1 }],
        "abc": [0.836554999999999, 0.163444999999999, 0.75],
        "properties": { "magmom": -5.523 },
        "label": "Pu",
        "xyz": [3.4652619999999934, -4.0400129511000005, 4.17543075]
      }
    ]
  },
  "task_ids": null,
  "uncorrected_energy_per_atom": null,
  "energy_per_atom": -72.3720861421875,
  "formation_energy_per_atom": 0.201783508749997,
  "energy_above_hull": 0.201783508749997,
  "is_stable": false,
  "equilibrium_reaction_energy_per_atom": null,
  "decomposes_to": null,
  "xas": null,
  "grain_boundaries": null,
  "band_gap": 0.0,
  "cbm": null,
  "vbm": null,
  "efermi": 8.97907458,
  "is_gap_direct": null,
  "is_metal": null,
  "es_source_calc_id": null,
  "bandstructure": null,
  "dos": null,
  "dos_energy_up": null,
  "dos_energy_down": null,
  "is_magnetic": null,
  "ordering": null,
  "total_magnetization": 36.2362132,
  "total_magnetization_normalized_vol": null,
  "total_magnetization_normalized_formula_units": null,
  "num_magnetic_sites": null,
  "num_unique_magnetic_sites": null,
  "types_of_magnetic_species": null,
  "bulk_modulus": null,
  "shear_modulus": null,
  "universal_anisotropy": null,
  "homogeneous_poisson": null,
  "e_total": null,
  "e_ionic": null,
  "e_electronic": null,
  "n": null,
  "e_ij_max": null,
  "weighted_surface_energy_EV_PER_ANG2": null,
  "weighted_surface_energy": null,
  "weighted_work_function": null,
  "surface_anisotropy": null,
  "shape_factor": null,
  "has_reconstructed": null,
  "possible_species": null,
  "has_props": null,
  "theoretical": null,
  "database_IDs": null,
  "fields_not_requested": [
    "builder_meta",
    "nsites",
    "elements",
    "nelements",
    "composition",
    "composition_reduced",
    "chemsys",
    "symmetry",
    "property_name",
    "deprecated",
    "deprecation_reasons",
    "last_updated",
    "origins",
    "warnings",
    "task_ids",
    "uncorrected_energy_per_atom",
    "equilibrium_reaction_energy_per_atom",
    "decomposes_to",
    "xas",
    "grain_boundaries",
    "cbm",
    "vbm",
    "is_gap_direct",
    "is_metal",
    "es_source_calc_id",
    "bandstructure",
    "dos",
    "dos_energy_up",
    "dos_energy_down",
    "is_magnetic",
    "ordering",
    "total_magnetization_normalized_vol",
    "total_magnetization_normalized_formula_units",
    "num_magnetic_sites",
    "num_unique_magnetic_sites",
    "types_of_magnetic_species",
    "bulk_modulus",
    "shear_modulus",
    "universal_anisotropy",
    "homogeneous_poisson",
    "e_total",
    "e_ionic",
    "e_electronic",
    "n",
    "e_ij_max",
    "weighted_surface_energy_EV_PER_ANG2",
    "weighted_surface_energy",
    "weighted_work_function",
    "surface_anisotropy",
    "shape_factor",
    "has_reconstructed",
    "possible_species",
    "has_props",
    "theoretical",
    "database_IDs"
  ]
}
