{
  "builder_meta": null,
  "nsites": null,
  "elements": null,
  "nelements": null,
  "composition": null,
  "composition_reduced": null,
  "formula_pretty": "TbRe2",
  "formula_anonymous": "AB2",
  "chemsys": null,
  "volume": 224.29065728184932,
  "density": 15.735113695585062,
  "density_atomic": 18.690888106820776,
  "symmetry": null,
  "property_name": null,
  "material_id": "mp-1102249",
  "deprecated": null,
  "deprecation_reasons": null,
  "last_updated": null,
  "origins": null,
  "warnings": null,
  "structure": {
    "@module": "pymatgen.core.structure",
    "@class": "Structure",
    "charge": 0,
    "lattice": {
      "matrix": [
        [-2.70825755, -4.6909415800000005, 0.0],
        [-2.70825755, 4.6909415800000005, -0.0],
        [0.0, 0.0, -8.82736737]
      ],
      "pbc": [true, true, true],
      "a": 5.416603351188353,
      "b": 5.416603351188353,
      "c": 8.82736737,
      "alpha": 90.0,
      "beta": 90.0,
      "gamma": 120.0010779145879,
      "volume": 224.29065728184938
    },
    "properties": {},
    "sites": [
      {
        "species": [{ "element": "Tb", "occu": 1 }],
        "abc": [0.66666759, 0.33333241, 0.56234085],
        "properties": { "magmom": 0.0 },
        "label": "Tb",
        "xyz": [-2.70825755, -1.5636558559387845, -4.963989270108064]
      },
      {
        "species": [{ "element": "Tb", "occu": 1 }],
        "abc": [0.33333241, 0.66666759, 0.43765915],
        "properties": { "magmom": 0.0 },
        "label": "Tb",
        "xyz": [-2.70825755, 1.5636558559387845, -3.863378099891935]
      },
      {
        "species": [{ "element": "Tb", "occu": 1 }],
        "abc": [0.33333241, 0.66666759, 0.06234085],
        "properties": { "magmom": 0.0 },
        "label": "Tb",
        "xyz": [-2.70825755, 1.5636558559387845, -0.5503055851080645]
      },
      {
        "species": [{ "element": "Tb", "occu": 1 }],
        "abc": [0.66666759, 0.33333241, 0.93765915],
        "properties": { "magmom": 0.0 },
        "label": "Tb",
        "xyz": [-2.70825755, -1.5636558559387845, -8.277061784891934]
      },
      {
        "species": [{ "element": "Re", "occu": 1 }],
        "abc": [-0.0, -0.0, 0.5],
        "properties": { "magmom": 0.0 },
        "label": "Re",
        "xyz": [0.0, 0.0, -4.413683685]
      },
      {
        "species": [{ "element": "Re", "occu": 1 }],
        "abc": [-0.0, -0.0, -0.0],
        "properties": { "magmom": 0.0 },
        "label": "Re",
        "xyz": [0.0, 0.0, 0.0]
      },
      {
        "species": [{ "element": "Re", "occu": 1 }],
        "abc": [0.17075858, 0.34152329000000003, 0.75],
        "properties": { "magmom": -0.0 },
        "label": "Re",
        "xyz": [-1.3873912421556185, 0.8010472785356421, -6.6205255275]
      },
      {
        "species": [{ "element": "Re", "occu": 1 }],
        "abc": [0.17074586, 0.82925414, 0.75],
        "properties": { "magmom": 0.0 },
        "label": "Re",
        "xyz": [-2.70825755, 3.0890238714262823, -6.6205255275]
      },
      {
        "species": [{ "element": "Re", "occu": 1 }],
        "abc": [0.65847671, 0.82924142, 0.75],
        "properties": { "magmom": -0.0 },
        "label": "Re",
        "xyz": [-4.0291238578443815, 0.8010472785356422, -6.6205255275]
      },
      {
        "species": [{ "element": "Re", "occu": 1 }],
        "abc": [0.82924142, 0.65847671, 0.25],
        "properties": { "magmom": -0.0 },
        "label": "Re",
        "xyz": [-4.0291238578443815, -0.8010472785356422, -2.2068418425]
      },
      {
        "species": [{ "element": "Re", "occu": 1 }],
        "abc": [0.82925414, 0.17074586, 0.25],
        "properties": { "magmom": 0.0 },
        "label": "Re",
        "xyz": [-2.70825755, -3.0890238714262823, -2.2068418425]
      },
      {
        "species": [{ "element": "Re", "occu": 1 }],
        "abc": [0.34152329000000003, 0.17075858, 0.25],
        "properties": { "magmom": -0.0 },
        "label": "Re",
        "xyz": [-1.3873912421556185, -0.8010472785356421, -2.2068418425]
      }
    ]
  },
  "task_ids": null,
  "uncorrected_energy_per_atom": null,
  "energy_per_atom": -45.59993963333333,
  "formation_energy_per_atom": -0.250718444999999,
  "energy_above_hull": 0.0,
  "is_stable": true,
  "equilibrium_reaction_energy_per_atom": null,
  "decomposes_to": null,
  "xas": null,
  "grain_boundaries": null,
  "band_gap": 0.0,
  "cbm": null,
  "vbm": null,
  "efermi": 5.68685501,
  "is_gap_direct": null,
  "is_metal": null,
  "es_source_calc_id": null,
  "bandstructure": null,
  "dos": null,
  "dos_energy_up": null,
  "dos_energy_down": null,
  "is_magnetic": null,
  "ordering": null,
  "total_magnetization": 1e-7,
  "total_magnetization_normalized_vol": null,
  "total_magnetization_normalized_formula_units": null,
  "num_magnetic_sites": null,
  "num_unique_magnetic_sites": null,
  "types_of_magnetic_species": null,
  "bulk_modulus": null,
  "shear_modulus": null,
  "universal_anisotropy": null,
  "homogeneous_poisson": null,
  "e_total": null,
  "e_ionic": null,
  "e_electronic": null,
  "n": null,
  "e_ij_max": null,
  "weighted_surface_energy_EV_PER_ANG2": null,
  "weighted_surface_energy": null,
  "weighted_work_function": null,
  "surface_anisotropy": null,
  "shape_factor": null,
  "has_reconstructed": null,
  "possible_species": null,
  "has_props": null,
  "theoretical": null,
  "database_IDs": null,
  "fields_not_requested": [
    "builder_meta",
    "nsites",
    "elements",
    "nelements",
    "composition",
    "composition_reduced",
    "chemsys",
    "symmetry",
    "property_name",
    "deprecated",
    "deprecation_reasons",
    "last_updated",
    "origins",
    "warnings",
    "task_ids",
    "uncorrected_energy_per_atom",
    "equilibrium_reaction_energy_per_atom",
    "decomposes_to",
    "xas",
    "grain_boundaries",
    "cbm",
    "vbm",
    "is_gap_direct",
    "is_metal",
    "es_source_calc_id",
    "bandstructure",
    "dos",
    "dos_energy_up",
    "dos_energy_down",
    "is_magnetic",
    "ordering",
    "total_magnetization_normalized_vol",
    "total_magnetization_normalized_formula_units",
    "num_magnetic_sites",
    "num_unique_magnetic_sites",
    "types_of_magnetic_species",
    "bulk_modulus",
    "shear_modulus",
    "universal_anisotropy",
    "homogeneous_poisson",
    "e_total",
    "e_ionic",
    "e_electronic",
    "n",
    "e_ij_max",
    "weighted_surface_energy_EV_PER_ANG2",
    "weighted_surface_energy",
    "weighted_work_function",
    "surface_anisotropy",
    "shape_factor",
    "has_reconstructed",
    "possible_species",
    "has_props",
    "theoretical",
    "database_IDs"
  ]
}
