{"builder_meta": null, "nsites": null, "elements": null, "nelements": null, "composition": null, "composition_reduced": null, "formula_pretty": "TbRu2", "formula_anonymous": "AB2", "chemsys": null, "volume": 212.03852156434658, "density": 11.310456512283404, "density_atomic": 17.66987679702888, "symmetry": null, "property_name": null, "material_id": "mp-1101970", "deprecated": null, "deprecation_reasons": null, "last_updated": null, "origins": null, "warnings": null, "structure": {"@module": "pymatgen.core.structure", "@class": "Structure", "charge": 0, "lattice": {"matrix": [[-2.6149265, -4.5289842700000005, -0.0], [-2.6149265, 4.5289842700000005, 0.0], [0.0, 0.0, -8.95209069]], "pbc": [true, true, true], "a": 5.229678682128538, "b": 5.229678682128538, "c": 8.95209069, "alpha": 90.0, "beta": 90.0, "gamma": 119.99779473227427, "volume": 212.0385215643466}, "properties": {}, "sites": [{"species": [{"element": "Tb", "occu": 1}], "abc": [0.6666833, 0.333316699999999, 0.56735349], "properties": {"magmom": 0.0}, "label": "Tb", "xyz": [-2.6149264999999975, -1.5098120875433862, -5.078999895768009]}, {"species": [{"element": "Tb", "occu": 1}], "abc": [0.333316699999999, 0.6666833, 0.43264651], "properties": {"magmom": 0.0}, "label": "Tb", "xyz": [-2.6149264999999975, 1.5098120875433862, -3.873090794231992]}, {"species": [{"element": "Tb", "occu": 1}], "abc": [0.333316699999999, 0.6666833, 0.06735349], "properties": {"magmom": 0.0}, "label": "Tb", "xyz": [-2.6149264999999975, 1.5098120875433862, -0.6029545507680082]}, {"species": [{"element": "Tb", "occu": 1}], "abc": [0.6666833, 0.333316699999999, 0.93264651], "properties": {"magmom": 0.0}, "label": "Tb", "xyz": [-2.6149264999999975, -1.5098120875433862, -8.349136139231993]}, {"species": [{"element": "Ru", "occu": 1}], "abc": [0.0, 0.0, 0.5], "properties": {"magmom": -0.0}, "label": "Ru", "xyz": [0.0, 0.0, -4.476045345]}, {"species": [{"element": "Ru", "occu": 1}], "abc": [0.0, 0.0, -0.0], "properties": {"magmom": -0.0}, "label": "Ru", "xyz": [0.0, 0.0, 0.0]}, {"species": [{"element": "Ru", "occu": 1}], "abc": [0.17015068, 0.34023376, 0.75], "properties": {"magmom": -0.0}, "label": "Ru", "xyz": [-1.3346177973436602, 0.7703035939131516, -6.714068017500001]}, {"species": [{"element": "Ru", "occu": 1}], "abc": [0.17005828, 0.82994172, 0.75], "properties": {"magmom": -0.0}, "label": "Ru", "xyz": [-2.6149265, 2.988601719793489, -6.714068017500001]}, {"species": [{"element": "Ru", "occu": 1}], "abc": [0.6597662400000001, 0.82984932, 0.75], "properties": {"magmom": -0.0}, "label": "Ru", "xyz": [-3.89523520265634, 0.7703035939131513, -6.714068017500001]}, {"species": [{"element": "Ru", "occu": 1}], "abc": [0.82984932, 0.6597662400000001, 0.25], "properties": {"magmom": -0.0}, "label": "Ru", "xyz": [-3.89523520265634, -0.7703035939131513, -2.2380226725]}, {"species": [{"element": "Ru", "occu": 1}], "abc": [0.82994172, 0.17005828, 0.25], "properties": {"magmom": -0.0}, "label": "Ru", "xyz": [-2.6149265, -2.988601719793489, -2.2380226725]}, {"species": [{"element": "Ru", "occu": 1}], "abc": [0.34023376, 0.17015068, 0.25], "properties": {"magmom": -0.0}, "label": "Ru", "xyz": [-1.3346177973436602, -0.7703035939131516, -2.2380226725]}]}, "task_ids": null, "uncorrected_energy_per_atom": null, "energy_per_atom": -8.034226709166665, "formation_energy_per_atom": -0.305337141388886, "energy_above_hull": 0.0, "is_stable": true, "equilibrium_reaction_energy_per_atom": null, "decomposes_to": null, "xas": null, "grain_boundaries": null, "band_gap": 0.0, "cbm": null, "vbm": null, "efermi": 5.93242263, "is_gap_direct": null, "is_metal": null, "es_source_calc_id": null, "bandstructure": null, "dos": null, "dos_energy_up": null, "dos_energy_down": null, "is_magnetic": null, "ordering": null, "total_magnetization": 5.1900000000000015e-05, "total_magnetization_normalized_vol": null, "total_magnetization_normalized_formula_units": null, "num_magnetic_sites": null, "num_unique_magnetic_sites": null, "types_of_magnetic_species": null, "bulk_modulus": null, "shear_modulus": null, "universal_anisotropy": null, "homogeneous_poisson": null, "e_total": null, "e_ionic": null, "e_electronic": null, "n": null, "e_ij_max": null, "weighted_surface_energy_EV_PER_ANG2": null, "weighted_surface_energy": null, "weighted_work_function": null, "surface_anisotropy": null, "shape_factor": null, "has_reconstructed": null, "possible_species": null, "has_props": null, "theoretical": null, "database_IDs": null, "fields_not_requested": ["builder_meta", "nsites", "elements", "nelements", "composition", "composition_reduced", "chemsys", "symmetry", "property_name", "deprecated", "deprecation_reasons", "last_updated", "origins", "warnings", "task_ids", "uncorrected_energy_per_atom", "equilibrium_reaction_energy_per_atom", "decomposes_to", "xas", "grain_boundaries", "cbm", "vbm", "is_gap_direct", "is_metal", "es_source_calc_id", "bandstructure", "dos", "dos_energy_up", "dos_energy_down", "is_magnetic", "ordering", "total_magnetization_normalized_vol", "total_magnetization_normalized_formula_units", "num_magnetic_sites", "num_unique_magnetic_sites", "types_of_magnetic_species", "bulk_modulus", "shear_modulus", "universal_anisotropy", "homogeneous_poisson", "e_total", "e_ionic", "e_electronic", "n", "e_ij_max", "weighted_surface_energy_EV_PER_ANG2", "weighted_surface_energy", "weighted_work_function", "surface_anisotropy", "shape_factor", "has_reconstructed", "possible_species", "has_props", "theoretical", "database_IDs"]}