{"builder_meta": null, "nsites": null, "elements": null, "nelements": null, "composition": null, "composition_reduced": null, "formula_pretty": "TbS2", "formula_anonymous": "AB2", "chemsys": null, "volume": 243.8103848449835, "density": 6.076724302365289, "density_atomic": 20.317532070415293, "symmetry": null, "property_name": null, "material_id": "mp-1103226", "deprecated": null, "deprecation_reasons": null, "last_updated": null, "origins": null, "warnings": null, "structure": {"@module": "pymatgen.core.structure", "@class": "Structure", "charge": 0, "lattice": {"matrix": [[0.0, -3.91725637, 0.0], [-7.87084043, 0.0, -0.01149324], [-0.02212095, 0.0, -7.90771249]], "pbc": [true, true, true], "a": 3.91725637, "b": 7.870848821384406, "c": 7.907743430393459, "alpha": 89.75605684360409, "beta": 90.0, "gamma": 90.0, "volume": 243.81038484498347}, "properties": {}, "sites": [{"species": [{"element": "Tb", "occu": 1}], "abc": [0.28912118000000003, 0.37098431, 0.27531965], "properties": {"magmom": -0.0}, "label": "Tb", "xyz": [-2.926048638255321, -1.1325617840569167, -2.181412446758493]}, {"species": [{"element": "Tb", "occu": 1}], "abc": [0.78912118, 0.12901569000000002, 0.72468035], "properties": {"magmom": -0.0}, "label": "Tb", "xyz": [-1.0314925267446793, -3.0911899690569165, -5.732046663241507]}, {"species": [{"element": "Tb", "occu": 1}], "abc": [0.71087882, 0.62901569, 0.72468035], "properties": {"magmom": -0.0}, "label": "Tb", "xyz": [-4.96691274174468, -2.7846945859430834, -5.737793283241507]}, {"species": [{"element": "Tb", "occu": 1}], "abc": [0.21087882, 0.87098431, 0.27531965], "properties": {"magmom": -0.0}, "label": "Tb", "xyz": [-6.861468853255321, -0.8260664009430834, -2.1871590667584933]}, {"species": [{"element": "S", "occu": 1}], "abc": [0.2617808, 0.37431468, 0.63160971], "properties": {"magmom": 0.0}, "label": "S", "xyz": [-2.960142923700937, -1.025462506343696, -4.998890081025041]}, {"species": [{"element": "S", "occu": 1}], "abc": [0.761780799999999, 0.12568532, 0.36839029], "properties": {"magmom": 0.0}, "label": "S", "xyz": [-0.9973982412990631, -2.984090691343692, -2.9145690289749586]}, {"species": [{"element": "S", "occu": 1}], "abc": [0.7382192, 0.62568532, 0.36839029], "properties": {"magmom": 0.0}, "label": "S", "xyz": [-4.932818456299064, -2.891793863656304, -2.9203156489749587]}, {"species": [{"element": "S", "occu": 1}], "abc": [0.2382192, 0.87431468, 0.63160971], "properties": {"magmom": 0.0}, "label": "S", "xyz": [-6.895563138700938, -0.933165678656304, -5.004636701025041]}, {"species": [{"element": "S", "occu": 1}], "abc": [0.84107637, 0.39000184, 0.00363605], "properties": {"magmom": -0.0}, "label": "S", "xyz": [-3.0697226829266384, -3.294711768038977, -0.0332352227468261]}, {"species": [{"element": "S", "occu": 1}], "abc": [0.34107637, 0.10999816, 0.99636395], "properties": {"magmom": -0.0}, "label": "S", "xyz": [-0.8878184820733613, -1.336083583038977, -7.880223887253174]}, {"species": [{"element": "S", "occu": 1}], "abc": [0.15892363, 0.6099981600000001, 0.99636395], "properties": {"magmom": -0.0}, "label": "S", "xyz": [-4.8232386970733625, -0.6225446019610231, -7.885970507253174]}, {"species": [{"element": "S", "occu": 1}], "abc": [0.65892363, 0.89000184, 0.00363605], "properties": {"magmom": -0.0}, "label": "S", "xyz": [-7.00514289792664, -2.581172786961023, -0.038981842746826104]}]}, "task_ids": null, "uncorrected_energy_per_atom": null, "energy_per_atom": -17.761734489166667, "formation_energy_per_atom": -1.996257051041666, "energy_above_hull": 0.0, "is_stable": true, "equilibrium_reaction_energy_per_atom": null, "decomposes_to": null, "xas": null, "grain_boundaries": null, "band_gap": 0.314799999999999, "cbm": null, "vbm": null, "efermi": 5.42770663, "is_gap_direct": null, "is_metal": null, "es_source_calc_id": null, "bandstructure": null, "dos": null, "dos_energy_up": null, "dos_energy_down": null, "is_magnetic": null, "ordering": null, "total_magnetization": 0.0, "total_magnetization_normalized_vol": null, "total_magnetization_normalized_formula_units": null, "num_magnetic_sites": null, "num_unique_magnetic_sites": null, "types_of_magnetic_species": null, "bulk_modulus": null, "shear_modulus": null, "universal_anisotropy": null, "homogeneous_poisson": null, "e_total": null, "e_ionic": null, "e_electronic": null, "n": null, "e_ij_max": null, "weighted_surface_energy_EV_PER_ANG2": null, "weighted_surface_energy": null, "weighted_work_function": null, "surface_anisotropy": null, "shape_factor": null, "has_reconstructed": null, "possible_species": null, "has_props": null, "theoretical": null, "database_IDs": null, "fields_not_requested": ["builder_meta", "nsites", "elements", "nelements", "composition", "composition_reduced", "chemsys", "symmetry", "property_name", "deprecated", "deprecation_reasons", "last_updated", "origins", "warnings", "task_ids", "uncorrected_energy_per_atom", "equilibrium_reaction_energy_per_atom", "decomposes_to", "xas", "grain_boundaries", "cbm", "vbm", "is_gap_direct", "is_metal", "es_source_calc_id", "bandstructure", "dos", "dos_energy_up", "dos_energy_down", "is_magnetic", "ordering", "total_magnetization_normalized_vol", "total_magnetization_normalized_formula_units", "num_magnetic_sites", "num_unique_magnetic_sites", "types_of_magnetic_species", "bulk_modulus", "shear_modulus", "universal_anisotropy", "homogeneous_poisson", "e_total", "e_ionic", "e_electronic", "n", "e_ij_max", "weighted_surface_energy_EV_PER_ANG2", "weighted_surface_energy", "weighted_work_function", "surface_anisotropy", "shape_factor", "has_reconstructed", "possible_species", "has_props", "theoretical", "database_IDs"]}