{"builder_meta": null, "nsites": null, "elements": null, "nelements": null, "composition": null, "composition_reduced": null, "formula_pretty": "TbS3", "formula_anonymous": "AB3", "chemsys": null, "volume": 312.6006502317565, "density": 1.355202900395722, "density_atomic": 78.15016255793913, "symmetry": null, "property_name": null, "material_id": "mp-1208306", "deprecated": null, "deprecation_reasons": null, "last_updated": null, "origins": null, "warnings": null, "structure": {"@module": "pymatgen.core.structure", "@class": "Structure", "charge": 0, "lattice": {"matrix": [[-2.943554, -5.098385, 0.0], [-2.260405, 4.703969, 0.0], [0.0, 0.0, -12.321276]], "pbc": [true, true, true], "a": 5.887107928273526, "b": 5.218884470553645, "c": 12.321276, "alpha": 90.0, "beta": 90.0, "gamma": 124.33425142165987, "volume": 312.6006502317565}, "properties": {}, "sites": [{"species": [{"element": "Tb", "occu": 1}], "abc": [0.0, 0.0, 0.0], "properties": {"magmom": 0.004}, "label": "Tb", "xyz": [0.0, 0.0, 0.0]}, {"species": [{"element": "S", "occu": 1}], "abc": [0.0, 0.0, 0.5], "properties": {"magmom": 1.047}, "label": "S", "xyz": [0.0, 0.0, -6.160638]}, {"species": [{"element": "S", "occu": 1}], "abc": [0.5, 0.5, 0.0], "properties": {"magmom": 0.021}, "label": "S", "xyz": [-2.6019794999999997, -0.19720800000000027, 0.0]}, {"species": [{"element": "S", "occu": 1}], "abc": [0.0, 0.5, 0.0], "properties": {"magmom": 0.021}, "label": "S", "xyz": [-1.1302025, 2.3519845, 0.0]}]}, "task_ids": null, "uncorrected_energy_per_atom": null, "energy_per_atom": -14.030981008828125, "formation_energy_per_atom": -0.19812315968749902, "energy_above_hull": 1.299069628593748, "is_stable": false, "equilibrium_reaction_energy_per_atom": null, "decomposes_to": null, "xas": null, "grain_boundaries": null, "band_gap": 0.0, "cbm": null, "vbm": null, "efermi": -2.36651365, "is_gap_direct": null, "is_metal": null, "es_source_calc_id": null, "bandstructure": null, "dos": null, "dos_energy_up": null, "dos_energy_down": null, "is_magnetic": null, "ordering": null, "total_magnetization": 1.959238, "total_magnetization_normalized_vol": null, "total_magnetization_normalized_formula_units": null, "num_magnetic_sites": null, "num_unique_magnetic_sites": null, "types_of_magnetic_species": null, "bulk_modulus": null, "shear_modulus": null, "universal_anisotropy": null, "homogeneous_poisson": null, "e_total": null, "e_ionic": null, "e_electronic": null, "n": null, "e_ij_max": null, "weighted_surface_energy_EV_PER_ANG2": null, "weighted_surface_energy": null, "weighted_work_function": null, "surface_anisotropy": null, "shape_factor": null, "has_reconstructed": null, "possible_species": null, "has_props": null, "theoretical": null, "database_IDs": null, "fields_not_requested": ["builder_meta", "nsites", "elements", "nelements", "composition", "composition_reduced", "chemsys", "symmetry", "property_name", "deprecated", "deprecation_reasons", "last_updated", "origins", "warnings", "task_ids", "uncorrected_energy_per_atom", "equilibrium_reaction_energy_per_atom", "decomposes_to", "xas", "grain_boundaries", "cbm", "vbm", "is_gap_direct", "is_metal", "es_source_calc_id", "bandstructure", "dos", "dos_energy_up", "dos_energy_down", "is_magnetic", "ordering", "total_magnetization_normalized_vol", "total_magnetization_normalized_formula_units", "num_magnetic_sites", "num_unique_magnetic_sites", "types_of_magnetic_species", "bulk_modulus", "shear_modulus", "universal_anisotropy", "homogeneous_poisson", "e_total", "e_ionic", "e_electronic", "n", "e_ij_max", "weighted_surface_energy_EV_PER_ANG2", "weighted_surface_energy", "weighted_work_function", "surface_anisotropy", "shape_factor", "has_reconstructed", "possible_species", "has_props", "theoretical", "database_IDs"]}