{"builder_meta": null, "nsites": null, "elements": null, "nelements": null, "composition": null, "composition_reduced": null, "formula_pretty": "TbSb2", "formula_anonymous": "AB2", "chemsys": null, "volume": 335.6614022584132, "density": 7.963694620235535, "density_atomic": 27.971783521534434, "symmetry": null, "property_name": null, "material_id": "mp-1095657", "deprecated": null, "deprecation_reasons": null, "last_updated": null, "origins": null, "warnings": null, "structure": {"@module": "pymatgen.core.structure", "@class": "Structure", "charge": 0, "lattice": {"matrix": [[3.01378362, -3.08357163, -0.0], [3.01378362, 3.08357163, -0.0], [-0.0, 0.0, 18.05948242]], "pbc": [true, true, true], "a": 4.311763642121535, "b": 4.311763642121535, "c": 18.05948242, "alpha": 90.0, "beta": 90.0, "gamma": 91.3115141489164, "volume": 335.6614022584132}, "properties": {}, "sites": [{"species": [{"element": "Tb", "occu": 1}], "abc": [0.35569931, 0.35569931, 0.88883576], "properties": {"magmom": 0.0}, "label": "Tb", "xyz": [2.144001508246604, 0.0, 16.051913781987338]}, {"species": [{"element": "Tb", "occu": 1}], "abc": [0.64430069, 0.64430069, 0.11116424], "properties": {"magmom": 0.0}, "label": "Tb", "xyz": [3.8835657317533956, 0.0, 2.0075686380126605]}, {"species": [{"element": "Tb", "occu": 1}], "abc": [0.14430069, 0.14430069, 0.38883576000000003], "properties": {"magmom": 0.0}, "label": "Tb", "xyz": [0.8697821117533956, 0.0, 7.022172571987339]}, {"species": [{"element": "Tb", "occu": 1}], "abc": [0.85569931, 0.85569931, 0.61116424], "properties": {"magmom": 0.0}, "label": "Tb", "xyz": [5.157785128246604, 0.0, 11.03730984801266]}, {"species": [{"element": "Sb", "occu": 1}], "abc": [0.36121588, 0.36121588, 0.56335678], "properties": {"magmom": 0.0}, "label": "Sb", "xyz": [2.1772530048557712, 0.0, 10.173931864597806]}, {"species": [{"element": "Sb", "occu": 1}], "abc": [0.6387841200000001, 0.6387841200000001, 0.43664322], "properties": {"magmom": 0.0}, "label": "Sb", "xyz": [3.850314235144229, 0.0, 7.885550555402192]}, {"species": [{"element": "Sb", "occu": 1}], "abc": [0.13878412, 0.13878412, 0.06335678], "properties": {"magmom": 0.0}, "label": "Sb", "xyz": [0.8365306151442289, 0.0, 1.1441906545978076]}, {"species": [{"element": "Sb", "occu": 1}], "abc": [0.86121588, 0.86121588, 0.93664322], "properties": {"magmom": 0.0}, "label": "Sb", "xyz": [5.191036624855771, 0.0, 16.91529176540219]}, {"species": [{"element": "Sb", "occu": 1}], "abc": [0.37590366000000003, 0.87590366, 0.75], "properties": {"magmom": 0.0}, "label": "Sb", "xyz": [3.7726763964120984, 1.541785815, 13.544611815]}, {"species": [{"element": "Sb", "occu": 1}], "abc": [0.12409634, 0.62409634, 0.25], "properties": {"magmom": 0.0}, "label": "Sb", "xyz": [2.254890843587902, 1.5417858150000001, 4.514870605]}, {"species": [{"element": "Sb", "occu": 1}], "abc": [0.62409634, 0.12409634, 0.25], "properties": {"magmom": 0.0}, "label": "Sb", "xyz": [2.254890843587902, -1.5417858150000001, 4.514870605]}, {"species": [{"element": "Sb", "occu": 1}], "abc": [0.87590366, 0.37590366000000003, 0.75], "properties": {"magmom": 0.0}, "label": "Sb", "xyz": [3.7726763964120984, -1.541785815, 13.544611815]}]}, "task_ids": null, "uncorrected_energy_per_atom": null, "energy_per_atom": -28.416628765, "formation_energy_per_atom": -0.870273561666664, "energy_above_hull": 0.055407071666671005, "is_stable": false, "equilibrium_reaction_energy_per_atom": null, "decomposes_to": null, "xas": null, "grain_boundaries": null, "band_gap": 0.0, "cbm": null, "vbm": null, "efermi": 6.37198151, "is_gap_direct": null, "is_metal": null, "es_source_calc_id": null, "bandstructure": null, "dos": null, "dos_energy_up": null, "dos_energy_down": null, "is_magnetic": null, "ordering": null, "total_magnetization": 2e-07, "total_magnetization_normalized_vol": null, "total_magnetization_normalized_formula_units": null, "num_magnetic_sites": null, "num_unique_magnetic_sites": null, "types_of_magnetic_species": null, "bulk_modulus": null, "shear_modulus": null, "universal_anisotropy": null, "homogeneous_poisson": null, "e_total": null, "e_ionic": null, "e_electronic": null, "n": null, "e_ij_max": null, "weighted_surface_energy_EV_PER_ANG2": null, "weighted_surface_energy": null, "weighted_work_function": null, "surface_anisotropy": null, "shape_factor": null, "has_reconstructed": null, "possible_species": null, "has_props": null, "theoretical": null, "database_IDs": null, "fields_not_requested": ["builder_meta", "nsites", "elements", "nelements", "composition", "composition_reduced", "chemsys", "symmetry", "property_name", "deprecated", "deprecation_reasons", "last_updated", "origins", "warnings", "task_ids", "uncorrected_energy_per_atom", "equilibrium_reaction_energy_per_atom", "decomposes_to", "xas", "grain_boundaries", "cbm", "vbm", "is_gap_direct", "is_metal", "es_source_calc_id", "bandstructure", "dos", "dos_energy_up", "dos_energy_down", "is_magnetic", "ordering", "total_magnetization_normalized_vol", "total_magnetization_normalized_formula_units", "num_magnetic_sites", "num_unique_magnetic_sites", "types_of_magnetic_species", "bulk_modulus", "shear_modulus", "universal_anisotropy", "homogeneous_poisson", "e_total", "e_ionic", "e_electronic", "n", "e_ij_max", "weighted_surface_energy_EV_PER_ANG2", "weighted_surface_energy", "weighted_work_function", "surface_anisotropy", "shape_factor", "has_reconstructed", "possible_species", "has_props", "theoretical", "database_IDs"]}