{"builder_meta": null, "nsites": null, "elements": null, "nelements": null, "composition": null, "composition_reduced": null, "formula_pretty": "TbSc", "formula_anonymous": "AB", "chemsys": null, "volume": 57.184957255930065, "density": 5.920312206993949, "density_atomic": 28.592478627965033, "symmetry": null, "property_name": null, "material_id": "mp-982596", "deprecated": null, "deprecation_reasons": null, "last_updated": null, "origins": null, "warnings": null, "structure": {"@module": "pymatgen.core.structure", "@class": "Structure", "charge": 0, "lattice": {"matrix": [[3.50028551, 2.407e-05, 6.425e-05], [-1.75005481, 3.03147628, -5.2610000000000006e-05], [8.244e-05, -3.618e-05, 5.38917681]], "pbc": [true, true, true], "a": 3.500285510672435, "b": 3.500362877899174, "c": 5.389176810752002, "alpha": 90.0016324795905, "beta": 89.99807182935176, "gamma": 119.99721266088625, "volume": 57.184957255930065}, "properties": {}, "sites": [{"species": [{"element": "Tb", "occu": 1}], "abc": [0.33332612, 0.66671339, 0.25004058], "properties": {"magmom": -0.0}, "label": "Tb", "xyz": [-2.777377496948529e-05, 2.0211248040349132, 1.3474992357067122]}, {"species": [{"element": "Sc", "occu": 1}], "abc": [0.66667388, 0.33328561, 0.74996042], "properties": {"magmom": 0.0}, "label": "Sc", "xyz": [1.7503426639122197, 1.010336334452627, 4.041694603522708]}]}, "task_ids": null, "uncorrected_energy_per_atom": null, "energy_per_atom": -21.243446525, "formation_energy_per_atom": 0.06901422750000201, "energy_above_hull": 0.06901422750000201, "is_stable": false, "equilibrium_reaction_energy_per_atom": null, "decomposes_to": null, "xas": null, "grain_boundaries": null, "band_gap": 0.0, "cbm": null, "vbm": null, "efermi": 3.51168022, "is_gap_direct": null, "is_metal": null, "es_source_calc_id": null, "bandstructure": null, "dos": null, "dos_energy_up": null, "dos_energy_down": null, "is_magnetic": null, "ordering": null, "total_magnetization": 8.8e-06, "total_magnetization_normalized_vol": null, "total_magnetization_normalized_formula_units": null, "num_magnetic_sites": null, "num_unique_magnetic_sites": null, "types_of_magnetic_species": null, "bulk_modulus": null, "shear_modulus": null, "universal_anisotropy": null, "homogeneous_poisson": null, "e_total": null, "e_ionic": null, "e_electronic": null, "n": null, "e_ij_max": null, "weighted_surface_energy_EV_PER_ANG2": null, "weighted_surface_energy": null, "weighted_work_function": null, "surface_anisotropy": null, "shape_factor": null, "has_reconstructed": null, "possible_species": null, "has_props": null, "theoretical": null, "database_IDs": null, "fields_not_requested": ["builder_meta", "nsites", "elements", "nelements", "composition", "composition_reduced", "chemsys", "symmetry", "property_name", "deprecated", "deprecation_reasons", "last_updated", "origins", "warnings", "task_ids", "uncorrected_energy_per_atom", "equilibrium_reaction_energy_per_atom", "decomposes_to", "xas", "grain_boundaries", "cbm", "vbm", "is_gap_direct", "is_metal", "es_source_calc_id", "bandstructure", "dos", "dos_energy_up", "dos_energy_down", "is_magnetic", "ordering", "total_magnetization_normalized_vol", "total_magnetization_normalized_formula_units", "num_magnetic_sites", "num_unique_magnetic_sites", "types_of_magnetic_species", "bulk_modulus", "shear_modulus", "universal_anisotropy", "homogeneous_poisson", "e_total", "e_ionic", "e_electronic", "n", "e_ij_max", "weighted_surface_energy_EV_PER_ANG2", "weighted_surface_energy", "weighted_work_function", "surface_anisotropy", "shape_factor", "has_reconstructed", "possible_species", "has_props", "theoretical", "database_IDs"]}