{"builder_meta": null, "nsites": null, "elements": null, "nelements": null, "composition": null, "composition_reduced": null, "formula_pretty": "TbSe2", "formula_anonymous": "AB2", "chemsys": null, "volume": 138.03817598922862, "density": 7.623022804743601, "density_atomic": 23.006362664871435, "symmetry": null, "property_name": null, "material_id": "mp-1025077", "deprecated": null, "deprecation_reasons": null, "last_updated": null, "origins": null, "warnings": null, "structure": {"@module": "pymatgen.core.structure", "@class": "Structure", "charge": 0, "lattice": {"matrix": [[4.07256111, 0.0, -0.0], [0.0, 4.07256111, 0.0], [-0.0, 0.0, 8.32269525]], "pbc": [true, true, true], "a": 4.07256111, "b": 4.07256111, "c": 8.32269525, "alpha": 90.0, "beta": 90.0, "gamma": 90.0, "volume": 138.03817598922862}, "properties": {}, "sites": [{"species": [{"element": "Tb", "occu": 1}], "abc": [0.0, 0.5, 0.27314786], "properties": {"magmom": -0.0}, "label": "Tb", "xyz": [0.0, 2.036280555, 2.2733263969696655]}, {"species": [{"element": "Tb", "occu": 1}], "abc": [0.5, 0.0, 0.72685214], "properties": {"magmom": -0.0}, "label": "Tb", "xyz": [2.036280555, 0.0, 6.049368853030336]}, {"species": [{"element": "Se", "occu": 1}], "abc": [0.5, -0.0, 0.36923813], "properties": {"magmom": 0.0}, "label": "Se", "xyz": [2.036280555, 0.0, 3.0730564306698827]}, {"species": [{"element": "Se", "occu": 1}], "abc": [-0.0, 0.5, 0.6307618700000001], "properties": {"magmom": 0.0}, "label": "Se", "xyz": [0.0, 2.036280555, 5.2496388193301184]}, {"species": [{"element": "Se", "occu": 1}], "abc": [0.5, 0.5, -0.0], "properties": {"magmom": -0.0}, "label": "Se", "xyz": [2.036280555, 2.036280555, 0.0]}, {"species": [{"element": "Se", "occu": 1}], "abc": [-0.0, -0.0, -0.0], "properties": {"magmom": -0.0}, "label": "Se", "xyz": [0.0, 0.0, 0.0]}]}, "task_ids": null, "uncorrected_energy_per_atom": null, "energy_per_atom": -5.758870314999998, "formation_energy_per_atom": -1.882308122118053, "energy_above_hull": 0.00066715059679, "is_stable": false, "equilibrium_reaction_energy_per_atom": null, "decomposes_to": null, "xas": null, "grain_boundaries": null, "band_gap": 0.0, "cbm": null, "vbm": null, "efermi": 5.24289847, "is_gap_direct": null, "is_metal": null, "es_source_calc_id": null, "bandstructure": null, "dos": null, "dos_energy_up": null, "dos_energy_down": null, "is_magnetic": null, "ordering": null, "total_magnetization": 0.0, "total_magnetization_normalized_vol": null, "total_magnetization_normalized_formula_units": null, "num_magnetic_sites": null, "num_unique_magnetic_sites": null, "types_of_magnetic_species": null, "bulk_modulus": null, "shear_modulus": null, "universal_anisotropy": null, "homogeneous_poisson": null, "e_total": null, "e_ionic": null, "e_electronic": null, "n": null, "e_ij_max": null, "weighted_surface_energy_EV_PER_ANG2": null, "weighted_surface_energy": null, "weighted_work_function": null, "surface_anisotropy": null, "shape_factor": null, "has_reconstructed": null, "possible_species": null, "has_props": null, "theoretical": null, "database_IDs": null, "fields_not_requested": ["builder_meta", "nsites", "elements", "nelements", "composition", "composition_reduced", "chemsys", "symmetry", "property_name", "deprecated", "deprecation_reasons", "last_updated", "origins", "warnings", "task_ids", "uncorrected_energy_per_atom", "equilibrium_reaction_energy_per_atom", "decomposes_to", "xas", "grain_boundaries", "cbm", "vbm", "is_gap_direct", "is_metal", "es_source_calc_id", "bandstructure", "dos", "dos_energy_up", "dos_energy_down", "is_magnetic", "ordering", "total_magnetization_normalized_vol", "total_magnetization_normalized_formula_units", "num_magnetic_sites", "num_unique_magnetic_sites", "types_of_magnetic_species", "bulk_modulus", "shear_modulus", "universal_anisotropy", "homogeneous_poisson", "e_total", "e_ionic", "e_electronic", "n", "e_ij_max", "weighted_surface_energy_EV_PER_ANG2", "weighted_surface_energy", "weighted_work_function", "surface_anisotropy", "shape_factor", "has_reconstructed", "possible_species", "has_props", "theoretical", "database_IDs"]}