{
  "builder_meta": null,
  "nsites": null,
  "elements": null,
  "nelements": null,
  "composition": null,
  "composition_reduced": null,
  "formula_pretty": "TbSi2",
  "formula_anonymous": "AB2",
  "chemsys": null,
  "volume": 114.98735374389568,
  "density": 6.212437813876175,
  "density_atomic": 19.164558957315947,
  "symmetry": null,
  "property_name": null,
  "material_id": "mp-1077398",
  "deprecated": null,
  "deprecation_reasons": null,
  "last_updated": null,
  "origins": null,
  "warnings": null,
  "structure": {
    "@module": "pymatgen.core.structure",
    "@class": "Structure",
    "charge": 0,
    "lattice": {
      "matrix": [
        [-0.0, -3.98764895, -0.0],
        [-3.98699448, -0.0, -0.0],
        [1.99349775, 1.99382447, -7.23248475]
      ],
      "pbc": [true, true, true],
      "a": 3.98764895,
      "b": 3.98699448,
      "c": 7.7626158577768365,
      "alpha": 104.88071275903518,
      "beta": 104.88320797262031,
      "gamma": 90.0,
      "volume": 114.98735374389568
    },
    "properties": {},
    "sites": [
      {
        "species": [{ "element": "Tb", "occu": 1 }],
        "abc": [0.62498698, 0.37498698, 0.74997496],
        "properties": { "magmom": 0.0 },
        "label": "Tb",
        "xyz": [2.375984469615844e-6, -0.9969102474253995, -5.42418246108186]
      },
      {
        "species": [{ "element": "Tb", "occu": 1 }],
        "abc": [0.37501302000000003, 0.62501302, 0.25002504000000003],
        "properties": { "magmom": 0.0 },
        "label": "Tb",
        "xyz": [-1.9934991059844698, -0.9969142325746002, -1.8083022889181404]
      },
      {
        "species": [{ "element": "Si", "occu": 1 }],
        "abc": [0.042389380000000004, 0.79238938, 0.58477977],
        "properties": { "magmom": -0.0 },
        "label": "Si",
        "xyz": [-1.9934949283301049, 0.9969142483388209, -4.229410768633508]
      },
      {
        "species": [{ "element": "Si", "occu": 1 }],
        "abc": [0.95761062, 0.20761062, 0.41522023],
        "properties": { "magmom": -0.0 },
        "label": "Si",
        "xyz": [
          -1.8016698950518162e-6, -2.9907387283388207, -3.0030739813664926
        ]
      },
      {
        "species": [{ "element": "Si", "occu": 1 }],
        "abc": [0.20763919, 0.95763919, 0.91527638],
        "properties": { "magmom": -0.0 },
        "label": "Si",
        "xyz": [-1.9935007602035262, 0.996908245274668, -6.619722460385205]
      },
      {
        "species": [{ "element": "Si", "occu": 1 }],
        "abc": [0.79236081, 0.04236081, 0.08472362],
        "properties": { "magmom": -0.0 },
        "label": "Si",
        "xyz": [4.030203526211862e-6, -2.9907327252746683, -0.6127622896147951]
      }
    ]
  },
  "task_ids": null,
  "uncorrected_energy_per_atom": null,
  "energy_per_atom": -16.842963628333333,
  "formation_energy_per_atom": -0.584975848333336,
  "energy_above_hull": 0.025581209166666,
  "is_stable": false,
  "equilibrium_reaction_energy_per_atom": null,
  "decomposes_to": null,
  "xas": null,
  "grain_boundaries": null,
  "band_gap": 0.0,
  "cbm": null,
  "vbm": null,
  "efermi": 7.03248766,
  "is_gap_direct": null,
  "is_metal": null,
  "es_source_calc_id": null,
  "bandstructure": null,
  "dos": null,
  "dos_energy_up": null,
  "dos_energy_down": null,
  "is_magnetic": null,
  "ordering": null,
  "total_magnetization": 4e-7,
  "total_magnetization_normalized_vol": null,
  "total_magnetization_normalized_formula_units": null,
  "num_magnetic_sites": null,
  "num_unique_magnetic_sites": null,
  "types_of_magnetic_species": null,
  "bulk_modulus": null,
  "shear_modulus": null,
  "universal_anisotropy": null,
  "homogeneous_poisson": null,
  "e_total": null,
  "e_ionic": null,
  "e_electronic": null,
  "n": null,
  "e_ij_max": null,
  "weighted_surface_energy_EV_PER_ANG2": null,
  "weighted_surface_energy": null,
  "weighted_work_function": null,
  "surface_anisotropy": null,
  "shape_factor": null,
  "has_reconstructed": null,
  "possible_species": null,
  "has_props": null,
  "theoretical": null,
  "database_IDs": null,
  "fields_not_requested": [
    "builder_meta",
    "nsites",
    "elements",
    "nelements",
    "composition",
    "composition_reduced",
    "chemsys",
    "symmetry",
    "property_name",
    "deprecated",
    "deprecation_reasons",
    "last_updated",
    "origins",
    "warnings",
    "task_ids",
    "uncorrected_energy_per_atom",
    "equilibrium_reaction_energy_per_atom",
    "decomposes_to",
    "xas",
    "grain_boundaries",
    "cbm",
    "vbm",
    "is_gap_direct",
    "is_metal",
    "es_source_calc_id",
    "bandstructure",
    "dos",
    "dos_energy_up",
    "dos_energy_down",
    "is_magnetic",
    "ordering",
    "total_magnetization_normalized_vol",
    "total_magnetization_normalized_formula_units",
    "num_magnetic_sites",
    "num_unique_magnetic_sites",
    "types_of_magnetic_species",
    "bulk_modulus",
    "shear_modulus",
    "universal_anisotropy",
    "homogeneous_poisson",
    "e_total",
    "e_ionic",
    "e_electronic",
    "n",
    "e_ij_max",
    "weighted_surface_energy_EV_PER_ANG2",
    "weighted_surface_energy",
    "weighted_work_function",
    "surface_anisotropy",
    "shape_factor",
    "has_reconstructed",
    "possible_species",
    "has_props",
    "theoretical",
    "database_IDs"
  ]
}
