{"builder_meta": null, "nsites": null, "elements": null, "nelements": null, "composition": null, "composition_reduced": null, "formula_pretty": "TbSi", "formula_anonymous": "AB", "chemsys": null, "volume": 174.54869352035504, "density": 7.116382621720604, "density_atomic": 21.81858669004438, "symmetry": null, "property_name": null, "material_id": "mp-1924", "deprecated": null, "deprecation_reasons": null, "last_updated": null, "origins": null, "warnings": null, "structure": {"@module": "pymatgen.core.structure", "@class": "Structure", "charge": 0, "lattice": {"matrix": [[3.8389604200000003, -0.0, 0.0], [-0.0, 5.72157454, 0.0], [0.0, 0.0, 7.94671079]], "pbc": [true, true, true], "a": 3.8389604200000003, "b": 5.72157454, "c": 7.94671079, "alpha": 90.0, "beta": 90.0, "gamma": 90.0, "volume": 174.54869352035507}, "properties": {}, "sites": [{"species": [{"element": "Tb", "occu": 1}], "abc": [0.25, 0.38522462, 0.67933243], "properties": {"magmom": -0.0}, "label": "Tb", "xyz": [0.9597401050000001, 2.204091377973175, 5.398458351477919]}, {"species": [{"element": "Tb", "occu": 1}], "abc": [0.75, 0.61477538, 0.32066757], "properties": {"magmom": -0.0}, "label": "Tb", "xyz": [2.8792203150000004, 3.5174831620268248, 2.5482524385220806]}, {"species": [{"element": "Tb", "occu": 1}], "abc": [0.75, 0.88522462, 0.82066757], "properties": {"magmom": -0.0}, "label": "Tb", "xyz": [2.8792203150000004, 5.064878647973175, 6.52160783352208]}, {"species": [{"element": "Tb", "occu": 1}], "abc": [0.25, 0.11477538, 0.17933243000000001], "properties": {"magmom": -0.0}, "label": "Tb", "xyz": [0.9597401050000001, 0.6566958920268251, 1.4251029564779198]}, {"species": [{"element": "Si", "occu": 1}], "abc": [0.25, 0.87273968, 0.53726585], "properties": {"magmom": 0.0}, "label": "Si", "xyz": [0.9597401050000001, 4.993445133135747, 4.269496327293522]}, {"species": [{"element": "Si", "occu": 1}], "abc": [0.75, 0.12726032, 0.46273415], "properties": {"magmom": 0.0}, "label": "Si", "xyz": [2.8792203150000004, 0.7281294068642529, 3.6772144627064787]}, {"species": [{"element": "Si", "occu": 1}], "abc": [0.75, 0.37273968, 0.9627341500000001], "properties": {"magmom": 0.0}, "label": "Si", "xyz": [2.8792203150000004, 2.1326578631357473, 7.650569857706479]}, {"species": [{"element": "Si", "occu": 1}], "abc": [0.25, 0.62726032, 0.03726585], "properties": {"magmom": 0.0}, "label": "Si", "xyz": [0.9597401050000001, 3.5889166768642524, 0.2961409322935215]}]}, "task_ids": null, "uncorrected_energy_per_atom": null, "energy_per_atom": -20.90381696875, "formation_energy_per_atom": -0.903717596249999, "energy_above_hull": 0.0, "is_stable": true, "equilibrium_reaction_energy_per_atom": null, "decomposes_to": null, "xas": null, "grain_boundaries": null, "band_gap": 0.0, "cbm": null, "vbm": null, "efermi": 5.39169897, "is_gap_direct": null, "is_metal": null, "es_source_calc_id": null, "bandstructure": null, "dos": null, "dos_energy_up": null, "dos_energy_down": null, "is_magnetic": null, "ordering": null, "total_magnetization": 0.0, "total_magnetization_normalized_vol": null, "total_magnetization_normalized_formula_units": null, "num_magnetic_sites": null, "num_unique_magnetic_sites": null, "types_of_magnetic_species": null, "bulk_modulus": null, "shear_modulus": null, "universal_anisotropy": null, "homogeneous_poisson": null, "e_total": null, "e_ionic": null, "e_electronic": null, "n": null, "e_ij_max": null, "weighted_surface_energy_EV_PER_ANG2": null, "weighted_surface_energy": null, "weighted_work_function": null, "surface_anisotropy": null, "shape_factor": null, "has_reconstructed": null, "possible_species": null, "has_props": null, "theoretical": null, "database_IDs": null, "fields_not_requested": ["builder_meta", "nsites", "elements", "nelements", "composition", "composition_reduced", "chemsys", "symmetry", "property_name", "deprecated", "deprecation_reasons", "last_updated", "origins", "warnings", "task_ids", "uncorrected_energy_per_atom", "equilibrium_reaction_energy_per_atom", "decomposes_to", "xas", "grain_boundaries", "cbm", "vbm", "is_gap_direct", "is_metal", "es_source_calc_id", "bandstructure", "dos", "dos_energy_up", "dos_energy_down", "is_magnetic", "ordering", "total_magnetization_normalized_vol", "total_magnetization_normalized_formula_units", "num_magnetic_sites", "num_unique_magnetic_sites", "types_of_magnetic_species", "bulk_modulus", "shear_modulus", "universal_anisotropy", "homogeneous_poisson", "e_total", "e_ionic", "e_electronic", "n", "e_ij_max", "weighted_surface_energy_EV_PER_ANG2", "weighted_surface_energy", "weighted_work_function", "surface_anisotropy", "shape_factor", "has_reconstructed", "possible_species", "has_props", "theoretical", "database_IDs"]}