{
  "builder_meta": null,
  "nsites": null,
  "elements": null,
  "nelements": null,
  "composition": null,
  "composition_reduced": null,
  "formula_pretty": "TbSm3",
  "formula_anonymous": "AB3",
  "chemsys": null,
  "volume": 276.58600822656314,
  "density": 7.324576691386837,
  "density_atomic": 34.57325102832039,
  "symmetry": null,
  "property_name": null,
  "material_id": "mp-1187379",
  "deprecated": null,
  "deprecation_reasons": null,
  "last_updated": null,
  "origins": null,
  "warnings": null,
  "structure": {
    "@module": "pymatgen.core.structure",
    "@class": "Structure",
    "charge": 0,
    "lattice": {
      "matrix": [
        [3.68073204, -6.3752146100000004, -0.0],
        [3.68072767, 6.37521138, 0.0],
        [-0.0, -0.0, 5.89347666]
      ],
      "pbc": [true, true, true],
      "a": 7.361463826837704,
      "b": 7.361458844575926,
      "c": 5.89347666,
      "alpha": 90.0,
      "beta": 90.0,
      "gamma": 120.00001461067647,
      "volume": 276.58600822656314
    },
    "properties": {},
    "sites": [
      {
        "species": [{ "element": "Tb", "occu": 1 }],
        "abc": [0.333333, 0.666667, 0.75],
        "properties": { "magmom": 0.379 },
        "label": "Tb",
        "xyz": [3.6807291266652102, 2.1250736334753295, 4.420107495]
      },
      {
        "species": [{ "element": "Tb", "occu": 1 }],
        "abc": [0.666667, 0.333333, 0.25],
        "properties": { "magmom": 0.379 },
        "label": "Tb",
        "xyz": [3.68073058333479, -2.1250768634753303, 1.473369165]
      },
      {
        "species": [{ "element": "Sm", "occu": 1 }],
        "abc": [0.16802079, 0.33604158, 0.25],
        "properties": { "magmom": 0.28300000000000003 },
        "label": "Sm",
        "xyz": [1.8553170469156302, 1.0711675097774382, 1.473369165]
      },
      {
        "species": [{ "element": "Sm", "occu": 1 }],
        "abc": [0.66395942, 0.83197921, 0.25],
        "properties": { "magmom": 0.28300000000000003 },
        "label": "Sm",
        "xyz": [5.506145609565557, 1.071159532684283, 1.473369165]
      },
      {
        "species": [{ "element": "Sm", "occu": 1 }],
        "abc": [0.16802079, 0.83197921, 0.25],
        "properties": { "magmom": 0.28300000000000003 },
        "label": "Sm",
        "xyz": [3.6807284042508526, 4.232874732323667, 1.473369165]
      },
      {
        "species": [{ "element": "Sm", "occu": 1 }],
        "abc": [0.83197921, 0.66395842, 0.75],
        "properties": { "magmom": 0.28300000000000003 },
        "label": "Sm",
        "xyz": [5.50614266308437, -1.0711707397774388, 4.420107495]
      },
      {
        "species": [{ "element": "Sm", "occu": 1 }],
        "abc": [0.33604058000000003, 0.16802079, 0.75],
        "properties": { "magmom": 0.28300000000000003 },
        "label": "Sm",
        "xyz": [1.8553141004344427, -1.071162762684284, 4.420107495]
      },
      {
        "species": [{ "element": "Sm", "occu": 1 }],
        "abc": [0.83197921, 0.16802079, 0.75],
        "properties": { "magmom": 0.28300000000000003 },
        "label": "Sm",
        "xyz": [3.6807313057491475, -4.232877962323668, 4.420107495]
      }
    ]
  },
  "task_ids": null,
  "uncorrected_energy_per_atom": null,
  "energy_per_atom": -30.09549973125,
  "formation_energy_per_atom": 0.010802046249999002,
  "energy_above_hull": 0.011719880000001001,
  "is_stable": false,
  "equilibrium_reaction_energy_per_atom": null,
  "decomposes_to": null,
  "xas": null,
  "grain_boundaries": null,
  "band_gap": 0.0,
  "cbm": null,
  "vbm": null,
  "efermi": 3.06762659,
  "is_gap_direct": null,
  "is_metal": null,
  "es_source_calc_id": null,
  "bandstructure": null,
  "dos": null,
  "dos_energy_up": null,
  "dos_energy_down": null,
  "is_magnetic": null,
  "ordering": null,
  "total_magnetization": 4.7224294,
  "total_magnetization_normalized_vol": null,
  "total_magnetization_normalized_formula_units": null,
  "num_magnetic_sites": null,
  "num_unique_magnetic_sites": null,
  "types_of_magnetic_species": null,
  "bulk_modulus": null,
  "shear_modulus": null,
  "universal_anisotropy": null,
  "homogeneous_poisson": null,
  "e_total": null,
  "e_ionic": null,
  "e_electronic": null,
  "n": null,
  "e_ij_max": null,
  "weighted_surface_energy_EV_PER_ANG2": null,
  "weighted_surface_energy": null,
  "weighted_work_function": null,
  "surface_anisotropy": null,
  "shape_factor": null,
  "has_reconstructed": null,
  "possible_species": null,
  "has_props": null,
  "theoretical": null,
  "database_IDs": null,
  "fields_not_requested": [
    "builder_meta",
    "nsites",
    "elements",
    "nelements",
    "composition",
    "composition_reduced",
    "chemsys",
    "symmetry",
    "property_name",
    "deprecated",
    "deprecation_reasons",
    "last_updated",
    "origins",
    "warnings",
    "task_ids",
    "uncorrected_energy_per_atom",
    "equilibrium_reaction_energy_per_atom",
    "decomposes_to",
    "xas",
    "grain_boundaries",
    "cbm",
    "vbm",
    "is_gap_direct",
    "is_metal",
    "es_source_calc_id",
    "bandstructure",
    "dos",
    "dos_energy_up",
    "dos_energy_down",
    "is_magnetic",
    "ordering",
    "total_magnetization_normalized_vol",
    "total_magnetization_normalized_formula_units",
    "num_magnetic_sites",
    "num_unique_magnetic_sites",
    "types_of_magnetic_species",
    "bulk_modulus",
    "shear_modulus",
    "universal_anisotropy",
    "homogeneous_poisson",
    "e_total",
    "e_ionic",
    "e_electronic",
    "n",
    "e_ij_max",
    "weighted_surface_energy_EV_PER_ANG2",
    "weighted_surface_energy",
    "weighted_work_function",
    "surface_anisotropy",
    "shape_factor",
    "has_reconstructed",
    "possible_species",
    "has_props",
    "theoretical",
    "database_IDs"
  ]
}
