{"builder_meta": null, "nsites": null, "elements": null, "nelements": null, "composition": null, "composition_reduced": null, "formula_pretty": "TbSn2", "formula_anonymous": "AB2", "chemsys": null, "volume": 158.25546094082515, "density": 8.31752577291907, "density_atomic": 26.375910156804192, "symmetry": null, "property_name": null, "material_id": "mp-1072922", "deprecated": null, "deprecation_reasons": null, "last_updated": null, "origins": null, "warnings": null, "structure": {"@module": "pymatgen.core.structure", "@class": "Structure", "charge": 0, "lattice": {"matrix": [[0.0, 0.0, -4.32200031], [-4.4052684, 0.00210959, 0.0], [2.19887274, 8.31087051, 0.0]], "pbc": [true, true, true], "a": 4.32200031, "b": 4.405268905119019, "c": 8.596837206828031, "alpha": 104.79218980260504, "beta": 90.0, "gamma": 90.0, "volume": 158.25546094082515}, "properties": {}, "sites": [{"species": [{"element": "Tb", "occu": 1}], "abc": [0.75, 0.10111647, 0.20116531], "properties": {"magmom": 0.0}, "label": "Tb", "xyz": [-0.0031082736178985604, 1.6720721568079557, -3.2415002325]}, {"species": [{"element": "Tb", "occu": 1}], "abc": [0.25, 0.89888453, 0.7988346900000001], "properties": {"magmom": 0.0}, "label": "Tb", "xyz": [-2.203291791650501, 6.640907945301636, -1.0805000775]}, {"species": [{"element": "Sn", "occu": 1}], "abc": [0.75, 0.43860653, 0.87898719], "properties": {"magmom": -0.0}, "label": "Sn", "xyz": [0.0006014842575490231, 7.306073995988391, -3.2415002325]}, {"species": [{"element": "Sn", "occu": 1}], "abc": [0.25, 0.56139547, 0.12101381], "properties": {"magmom": -0.0}, "label": "Sn", "xyz": [-2.2070037559216082, 1.0069144191013006, -1.0805000775]}, {"species": [{"element": "Sn", "occu": 1}], "abc": [0.75, 0.74726886, 0.49629388], "properties": {"magmom": 0.0}, "label": "Sn", "xyz": [-2.200632811501193, 4.126210602499847, -3.2415002325]}, {"species": [{"element": "Sn", "occu": 1}], "abc": [0.25, 0.25272914, 0.50370612], "properties": {"magmom": 0.0}, "label": "Sn", "xyz": [-0.00575403796200713, 4.186769493280975, -1.0805000775]}]}, "task_ids": null, "uncorrected_energy_per_atom": null, "energy_per_atom": -4.822543623333331, "formation_energy_per_atom": -0.603541178888885, "energy_above_hull": 0.0, "is_stable": true, "equilibrium_reaction_energy_per_atom": null, "decomposes_to": null, "xas": null, "grain_boundaries": null, "band_gap": 0.0, "cbm": null, "vbm": null, "efermi": 6.83001593, "is_gap_direct": null, "is_metal": null, "es_source_calc_id": null, "bandstructure": null, "dos": null, "dos_energy_up": null, "dos_energy_down": null, "is_magnetic": null, "ordering": null, "total_magnetization": 0.0, "total_magnetization_normalized_vol": null, "total_magnetization_normalized_formula_units": null, "num_magnetic_sites": null, "num_unique_magnetic_sites": null, "types_of_magnetic_species": null, "bulk_modulus": null, "shear_modulus": null, "universal_anisotropy": null, "homogeneous_poisson": null, "e_total": null, "e_ionic": null, "e_electronic": null, "n": null, "e_ij_max": null, "weighted_surface_energy_EV_PER_ANG2": null, "weighted_surface_energy": null, "weighted_work_function": null, "surface_anisotropy": null, "shape_factor": null, "has_reconstructed": null, "possible_species": null, "has_props": null, "theoretical": null, "database_IDs": null, "fields_not_requested": ["builder_meta", "nsites", "elements", "nelements", "composition", "composition_reduced", "chemsys", "symmetry", "property_name", "deprecated", "deprecation_reasons", "last_updated", "origins", "warnings", "task_ids", "uncorrected_energy_per_atom", "equilibrium_reaction_energy_per_atom", "decomposes_to", "xas", "grain_boundaries", "cbm", "vbm", "is_gap_direct", "is_metal", "es_source_calc_id", "bandstructure", "dos", "dos_energy_up", "dos_energy_down", "is_magnetic", "ordering", "total_magnetization_normalized_vol", "total_magnetization_normalized_formula_units", "num_magnetic_sites", "num_unique_magnetic_sites", "types_of_magnetic_species", "bulk_modulus", "shear_modulus", "universal_anisotropy", "homogeneous_poisson", "e_total", "e_ionic", "e_electronic", "n", "e_ij_max", "weighted_surface_energy_EV_PER_ANG2", "weighted_surface_energy", "weighted_work_function", "surface_anisotropy", "shape_factor", "has_reconstructed", "possible_species", "has_props", "theoretical", "database_IDs"]}