{"builder_meta": null, "nsites": null, "elements": null, "nelements": null, "composition": null, "composition_reduced": null, "formula_pretty": "TbTc2", "formula_anonymous": "AB2", "chemsys": null, "volume": 220.03501548924064, "density": 10.714065815229256, "density_atomic": 18.336251290770054, "symmetry": null, "property_name": null, "material_id": "mp-1102233", "deprecated": null, "deprecation_reasons": null, "last_updated": null, "origins": null, "warnings": null, "structure": {"@module": "pymatgen.core.structure", "@class": "Structure", "charge": 0, "lattice": {"matrix": [[-2.67669482, -4.63588805, 2.059999999999999e-06], [-2.67669482, 4.63588805, -2.059999999999999e-06], [0.0, 4.1100000000000005e-06, -8.86604649]], "pbc": [true, true, true], "a": 5.353144232276193, "b": 5.353144232276193, "c": 8.866046490000954, "alpha": 89.99995494978454, "beta": 90.00004505021546, "gamma": 119.99696698469762, "volume": 220.03501548924064}, "properties": {}, "sites": [{"species": [{"element": "Tb", "occu": 1}], "abc": [0.66667454, 0.33332546, 0.56291156], "properties": {"magmom": 0.0}, "label": "Tb", "xyz": [-2.67669482, -1.5453667028839824, -4.9907993740193195]}, {"species": [{"element": "Tb", "occu": 1}], "abc": [0.33332551, 0.66667449, 0.43708874000000003], "properties": {"magmom": -0.0}, "label": "Tb", "xyz": [-2.67669482, 1.5453703492964104, -3.8752497757944218]}, {"species": [{"element": "Tb", "occu": 1}], "abc": [0.33332551, 0.66667449, 0.06291126], "properties": {"magmom": -0.0}, "label": "Tb", "xyz": [-2.67669482, 1.5453688114269675, -0.5577748426033763]}, {"species": [{"element": "Tb", "occu": 1}], "abc": [0.66667454, 0.33332546, 0.93708844], "properties": {"magmom": 0.0}, "label": "Tb", "xyz": [-2.67669482, -1.5453651650170057, -8.308268987582471]}, {"species": [{"element": "Tc", "occu": 1}], "abc": [3.0000000000000004e-08, 0.9999999700000001, 0.49999618], "properties": {"magmom": -0.0}, "label": "Tc", "xyz": [-2.6766948200000003, 4.635889826831018, -4.432991436702285]}, {"species": [{"element": "Tc", "occu": 1}], "abc": [3.0000000000000004e-08, 0.9999999700000001, 2.82e-06], "properties": {"magmom": -0.0}, "label": "Tc", "xyz": [-2.6766948200000003, 4.635887771858307, -2.70622509782e-05]}, {"species": [{"element": "Tc", "occu": 1}], "abc": [0.17127185, 0.34252732, 0.750000999999999], "properties": {"magmom": -0.0}, "label": "Tc", "xyz": [-1.3752835768592993, 0.7939242693742435, -6.64954408633275]}, {"species": [{"element": "Tc", "occu": 1}], "abc": [0.17123151, 0.82876849, 0.750000999999999], "properties": {"magmom": 0.0}, "label": "Tc", "xyz": [-2.67669482, 3.0482709105191987, -6.649545088072661]}, {"species": [{"element": "Tc", "occu": 1}], "abc": [0.65747268, 0.82872815, 0.750000999999999], "properties": {"magmom": -0.0}, "label": "Tc", "xyz": [-3.9781060631407, 0.7939242693742432, -6.64954408633275]}, {"species": [{"element": "Tc", "occu": 1}], "abc": [0.82872783, 0.65747124, 0.249999], "properties": {"magmom": 0.0}, "label": "Tc", "xyz": [-3.9781013521578172, -0.7939253515688597, -2.216502403664935]}, {"species": [{"element": "Tc", "occu": 1}], "abc": [0.8287682, 0.1712318, 0.249999], "properties": {"magmom": -0.0}, "label": "Tc", "xyz": [-2.67669482, -3.0482641117041296, -2.216501401928526]}, {"species": [{"element": "Tc", "occu": 1}], "abc": [0.34252876, 0.17127217, 0.249999], "properties": {"magmom": 0.0}, "label": "Tc", "xyz": [-1.3752882878421824, -0.7939253515688593, -2.216502403664935]}]}, "task_ids": null, "uncorrected_energy_per_atom": null, "energy_per_atom": -27.896634753333334, "formation_energy_per_atom": -0.17804867000000002, "energy_above_hull": 0.0, "is_stable": true, "equilibrium_reaction_energy_per_atom": null, "decomposes_to": null, "xas": null, "grain_boundaries": null, "band_gap": 0.0, "cbm": null, "vbm": null, "efermi": 6.13625073, "is_gap_direct": null, "is_metal": null, "es_source_calc_id": null, "bandstructure": null, "dos": null, "dos_energy_up": null, "dos_energy_down": null, "is_magnetic": null, "ordering": null, "total_magnetization": 9e-07, "total_magnetization_normalized_vol": null, "total_magnetization_normalized_formula_units": null, "num_magnetic_sites": null, "num_unique_magnetic_sites": null, "types_of_magnetic_species": null, "bulk_modulus": null, "shear_modulus": null, "universal_anisotropy": null, "homogeneous_poisson": null, "e_total": null, "e_ionic": null, "e_electronic": null, "n": null, "e_ij_max": null, "weighted_surface_energy_EV_PER_ANG2": null, "weighted_surface_energy": null, "weighted_work_function": null, "surface_anisotropy": null, "shape_factor": null, "has_reconstructed": null, "possible_species": null, "has_props": null, "theoretical": null, "database_IDs": null, "fields_not_requested": ["builder_meta", "nsites", "elements", "nelements", "composition", "composition_reduced", "chemsys", "symmetry", "property_name", "deprecated", "deprecation_reasons", "last_updated", "origins", "warnings", "task_ids", "uncorrected_energy_per_atom", "equilibrium_reaction_energy_per_atom", "decomposes_to", "xas", "grain_boundaries", "cbm", "vbm", "is_gap_direct", "is_metal", "es_source_calc_id", "bandstructure", "dos", "dos_energy_up", "dos_energy_down", "is_magnetic", "ordering", "total_magnetization_normalized_vol", "total_magnetization_normalized_formula_units", "num_magnetic_sites", "num_unique_magnetic_sites", "types_of_magnetic_species", "bulk_modulus", "shear_modulus", "universal_anisotropy", "homogeneous_poisson", "e_total", "e_ionic", "e_electronic", "n", "e_ij_max", "weighted_surface_energy_EV_PER_ANG2", "weighted_surface_energy", "weighted_work_function", "surface_anisotropy", "shape_factor", "has_reconstructed", "possible_species", "has_props", "theoretical", "database_IDs"]}