{"builder_meta": null, "nsites": null, "elements": null, "nelements": null, "composition": null, "composition_reduced": null, "formula_pretty": "TbTe3", "formula_anonymous": "AB3", "chemsys": null, "volume": 247.73192031998215, "density": 7.262335074790922, "density_atomic": 30.96649003999777, "symmetry": null, "property_name": null, "material_id": "mp-1084847", "deprecated": null, "deprecation_reasons": null, "last_updated": null, "origins": null, "warnings": null, "structure": {"@module": "pymatgen.core.structure", "@class": "Structure", "charge": 0, "lattice": {"matrix": [[-4.33698453, -9.544000000000001e-05, -4e-08], [-4e-08, 0.0, -4.33865721], [2.1682004, -13.16549473, 2e-08]], "pbc": [true, true, true], "a": 4.336984531050129, "b": 4.33865721, "c": 13.342838695728055, "alpha": 90.00000017172022, "beta": 99.35072681798556, "gamma": 89.99999894332599, "volume": 247.73192031998215}, "properties": {}, "sites": [{"species": [{"element": "Tb", "occu": 1}], "abc": [0.17137614, 0.7499999900000001, 0.34259493], "properties": {"magmom": -0.0}, "label": "Tb", "xyz": [-0.00044123372714177655, -4.510448101578521, -3.253992864116575]}, {"species": [{"element": "Tb", "occu": 1}], "abc": [0.82862386, 0.25000001, 0.65740507], "properties": {"magmom": -0.0}, "label": "Tb", "xyz": [-2.168342936272858, -8.65514206842148, -1.084664365883425]}, {"species": [{"element": "Te", "occu": 1}], "abc": [0.92473865, 0.75, 0.84944929], "properties": {"magmom": 0.0}, "label": "Te", "xyz": [-2.1688009589853676, -11.183508407954, -3.25399292750056]}, {"species": [{"element": "Te", "occu": 1}], "abc": [0.07526134, 0.25, 0.150550699999999], "properties": {"magmom": -0.0}, "label": "Te", "xyz": [1.681067320769003e-05, -1.9820816303900877, -1.0846643024994396]}, {"species": [{"element": "Te", "occu": 1}], "abc": [0.57550182, 0.75, 0.1508223], "properties": {"magmom": 0.0}, "label": "Te", "xyz": [-2.168929549137925, -1.9857051217101798, -3.2539929275036266]}, {"species": [{"element": "Te", "occu": 1}], "abc": [0.42449818, 0.25, 0.84917769], "properties": {"magmom": 0.0}, "label": "Te", "xyz": [0.0001453574559207027, -11.179884916634872, -1.0846643024963734]}, {"species": [{"element": "Te", "occu": 1}], "abc": [0.29295406, 0.75, 0.58652296], "properties": {"magmom": 0.0}, "label": "Te", "xyz": [0.0011620602604922592, -7.721892898439489, -3.253992907487703]}, {"species": [{"element": "Te", "occu": 1}], "abc": [0.70704594, 0.25, 0.41347706], "properties": {"magmom": 0.0}, "label": "Te", "xyz": [-2.169946186896484, -5.443697534870408, -1.0846643225122963]}]}, "task_ids": null, "uncorrected_energy_per_atom": null, "energy_per_atom": -27.9406710825, "formation_energy_per_atom": -1.071144312499999, "energy_above_hull": 0.0, "is_stable": true, "equilibrium_reaction_energy_per_atom": null, "decomposes_to": null, "xas": null, "grain_boundaries": null, "band_gap": 0.0, "cbm": null, "vbm": null, "efermi": 5.52452465, "is_gap_direct": null, "is_metal": null, "es_source_calc_id": null, "bandstructure": null, "dos": null, "dos_energy_up": null, "dos_energy_down": null, "is_magnetic": null, "ordering": null, "total_magnetization": 0.0, "total_magnetization_normalized_vol": null, "total_magnetization_normalized_formula_units": null, "num_magnetic_sites": null, "num_unique_magnetic_sites": null, "types_of_magnetic_species": null, "bulk_modulus": null, "shear_modulus": null, "universal_anisotropy": null, "homogeneous_poisson": null, "e_total": null, "e_ionic": null, "e_electronic": null, "n": null, "e_ij_max": null, "weighted_surface_energy_EV_PER_ANG2": null, "weighted_surface_energy": null, "weighted_work_function": null, "surface_anisotropy": null, "shape_factor": null, "has_reconstructed": null, "possible_species": null, "has_props": null, "theoretical": null, "database_IDs": null, "fields_not_requested": ["builder_meta", "nsites", "elements", "nelements", "composition", "composition_reduced", "chemsys", "symmetry", "property_name", "deprecated", "deprecation_reasons", "last_updated", "origins", "warnings", "task_ids", "uncorrected_energy_per_atom", "equilibrium_reaction_energy_per_atom", "decomposes_to", "xas", "grain_boundaries", "cbm", "vbm", "is_gap_direct", "is_metal", "es_source_calc_id", "bandstructure", "dos", "dos_energy_up", "dos_energy_down", "is_magnetic", "ordering", "total_magnetization_normalized_vol", "total_magnetization_normalized_formula_units", "num_magnetic_sites", "num_unique_magnetic_sites", "types_of_magnetic_species", "bulk_modulus", "shear_modulus", "universal_anisotropy", "homogeneous_poisson", "e_total", "e_ionic", "e_electronic", "n", "e_ij_max", "weighted_surface_energy_EV_PER_ANG2", "weighted_surface_energy", "weighted_work_function", "surface_anisotropy", "shape_factor", "has_reconstructed", "possible_species", "has_props", "theoretical", "database_IDs"]}