{
  "builder_meta": null,
  "nsites": null,
  "elements": null,
  "nelements": null,
  "composition": null,
  "composition_reduced": null,
  "formula_pretty": "TbYb3",
  "formula_anonymous": "AB3",
  "chemsys": null,
  "volume": 243.07915373678244,
  "density": 9.263820243678076,
  "density_atomic": 30.384894217097806,
  "symmetry": null,
  "property_name": null,
  "material_id": "mp-1187393",
  "deprecated": null,
  "deprecation_reasons": null,
  "last_updated": null,
  "origins": null,
  "warnings": null,
  "structure": {
    "@module": "pymatgen.core.structure",
    "@class": "Structure",
    "charge": 0.0,
    "lattice": {
      "matrix": [
        [3.567988783798461, -6.179937274059172, 0.0],
        [3.567988783798461, 6.179937274059172, 0.0],
        [-0.0, -0.0, 5.512012230167051]
      ],
      "pbc": [true, true, true],
      "a": 7.135977065028834,
      "b": 7.135977065028834,
      "c": 5.512012230167051,
      "alpha": 90.0,
      "beta": 90.0,
      "gamma": 119.99999534056273,
      "volume": 243.07915373678244
    },
    "properties": {},
    "sites": [
      {
        "species": [{ "element": "Tb", "occu": 1 }],
        "abc": [0.33333300000000304, 0.666666999999996, 0.75],
        "properties": { "magmom": 0.0 },
        "label": "Tb",
        "xyz": [3.567988783798458, 2.0599832113111964, 4.134009172625288]
      },
      {
        "species": [{ "element": "Tb", "occu": 1 }],
        "abc": [0.666666999999996, 0.33333300000000304, 0.25],
        "properties": { "magmom": 0.0 },
        "label": "Tb",
        "xyz": [3.567988783798458, -2.0599832113111964, 1.3780030575417628]
      },
      {
        "species": [{ "element": "Yb", "occu": 1 }],
        "abc": [0.166385449092864, 0.33277189818372904, 0.25],
        "properties": { "magmom": 0.0 },
        "label": "Yb",
        "xyz": [1.7809878164334774, 1.0282578186349858, 1.3780030575417628]
      },
      {
        "species": [{ "element": "Yb", "occu": 1 }],
        "abc": [0.66722810181627, 0.8336145509071351, 0.25],
        "properties": { "magmom": 0.0 },
        "label": "Yb",
        "xyz": [5.354989751163439, 1.0282578186349856, 1.3780030575417628]
      },
      {
        "species": [{ "element": "Yb", "occu": 1 }],
        "abc": [0.16638544909086, 0.833614550909139, 0.25],
        "properties": { "magmom": 0.0 },
        "label": "Yb",
        "xyz": [3.5679887837984574, 4.123433996663805, 1.3780030575417628]
      },
      {
        "species": [{ "element": "Yb", "occu": 1 }],
        "abc": [0.8336145509071351, 0.66722810181627, 0.75],
        "properties": { "magmom": 0.0 },
        "label": "Yb",
        "xyz": [5.354989751163439, -1.0282578186349856, 4.134009172625288]
      },
      {
        "species": [{ "element": "Yb", "occu": 1 }],
        "abc": [0.33277189818372904, 0.166385449092864, 0.75],
        "properties": { "magmom": 0.0 },
        "label": "Yb",
        "xyz": [1.7809878164334774, -1.0282578186349858, 4.134009172625288]
      },
      {
        "species": [{ "element": "Yb", "occu": 1 }],
        "abc": [0.833614550909139, 0.16638544909086, 0.75],
        "properties": { "magmom": 0.0 },
        "label": "Yb",
        "xyz": [3.5679887837984574, -4.123433996663805, 4.134009172625288]
      }
    ]
  },
  "task_ids": null,
  "uncorrected_energy_per_atom": null,
  "energy_per_atom": -35.21493319125,
  "formation_energy_per_atom": -0.011290565000003002,
  "energy_above_hull": 0.0,
  "is_stable": true,
  "equilibrium_reaction_energy_per_atom": null,
  "decomposes_to": null,
  "xas": null,
  "grain_boundaries": null,
  "band_gap": 0.0,
  "cbm": null,
  "vbm": null,
  "efermi": 1.85605401,
  "is_gap_direct": null,
  "is_metal": null,
  "es_source_calc_id": null,
  "bandstructure": null,
  "dos": null,
  "dos_energy_up": null,
  "dos_energy_down": null,
  "is_magnetic": null,
  "ordering": null,
  "total_magnetization": 0.000419,
  "total_magnetization_normalized_vol": null,
  "total_magnetization_normalized_formula_units": null,
  "num_magnetic_sites": null,
  "num_unique_magnetic_sites": null,
  "types_of_magnetic_species": null,
  "bulk_modulus": null,
  "shear_modulus": null,
  "universal_anisotropy": null,
  "homogeneous_poisson": null,
  "e_total": null,
  "e_ionic": null,
  "e_electronic": null,
  "n": null,
  "e_ij_max": null,
  "weighted_surface_energy_EV_PER_ANG2": null,
  "weighted_surface_energy": null,
  "weighted_work_function": null,
  "surface_anisotropy": null,
  "shape_factor": null,
  "has_reconstructed": null,
  "possible_species": null,
  "has_props": null,
  "theoretical": null,
  "database_IDs": null,
  "fields_not_requested": [
    "builder_meta",
    "nsites",
    "elements",
    "nelements",
    "composition",
    "composition_reduced",
    "chemsys",
    "symmetry",
    "property_name",
    "deprecated",
    "deprecation_reasons",
    "last_updated",
    "origins",
    "warnings",
    "task_ids",
    "uncorrected_energy_per_atom",
    "equilibrium_reaction_energy_per_atom",
    "decomposes_to",
    "xas",
    "grain_boundaries",
    "cbm",
    "vbm",
    "is_gap_direct",
    "is_metal",
    "es_source_calc_id",
    "bandstructure",
    "dos",
    "dos_energy_up",
    "dos_energy_down",
    "is_magnetic",
    "ordering",
    "total_magnetization_normalized_vol",
    "total_magnetization_normalized_formula_units",
    "num_magnetic_sites",
    "num_unique_magnetic_sites",
    "types_of_magnetic_species",
    "bulk_modulus",
    "shear_modulus",
    "universal_anisotropy",
    "homogeneous_poisson",
    "e_total",
    "e_ionic",
    "e_electronic",
    "n",
    "e_ij_max",
    "weighted_surface_energy_EV_PER_ANG2",
    "weighted_surface_energy",
    "weighted_work_function",
    "surface_anisotropy",
    "shape_factor",
    "has_reconstructed",
    "possible_species",
    "has_props",
    "theoretical",
    "database_IDs"
  ]
}
