{
  "builder_meta": null,
  "nsites": null,
  "elements": null,
  "nelements": null,
  "composition": null,
  "composition_reduced": null,
  "formula_pretty": "TbZn3",
  "formula_anonymous": "AB3",
  "chemsys": null,
  "volume": 289.2997444005253,
  "density": 8.154094335504372,
  "density_atomic": 18.08123402503283,
  "symmetry": null,
  "property_name": null,
  "material_id": "mp-1188983",
  "deprecated": null,
  "deprecation_reasons": null,
  "last_updated": null,
  "origins": null,
  "warnings": null,
  "structure": {
    "@module": "pymatgen.core.structure",
    "@class": "Structure",
    "charge": 0,
    "lattice": {
      "matrix": [
        [4.35693764, 0.0, 0.0],
        [0.0, 6.64541697, -0.00016178],
        [0.0, -0.00024399, 9.99181697]
      ],
      "pbc": [true, true, true],
      "a": 4.35693764,
      "b": 6.645416971969235,
      "c": 9.991816972978993,
      "alpha": 90.00279394729431,
      "beta": 90.0,
      "gamma": 90.0,
      "volume": 289.2997444005253
    },
    "properties": {},
    "sites": [
      {
        "species": [{ "element": "Tb", "occu": 1 }],
        "abc": [0.25, 0.28118688000000003, 0.66034216],
        "properties": { "magmom": -0.0 },
        "label": "Tb",
        "xyz": [1.08923441, 1.8684429472097355, 6.597972509881009]
      },
      {
        "species": [{ "element": "Tb", "occu": 1 }],
        "abc": [0.25, 0.78118246, 0.839706],
        "properties": { "magmom": 0.0 },
        "label": "Tb",
        "xyz": [1.08923441, 5.191078296483406, 8.39006228091244]
      },
      {
        "species": [{ "element": "Tb", "occu": 1 }],
        "abc": [0.75, 0.71881558, 0.33963173],
        "properties": { "magmom": 0.0 },
        "label": "Tb",
        "xyz": [3.26770323, 4.77674638688659, 3.3934217933799258]
      },
      {
        "species": [{ "element": "Tb", "occu": 1 }],
        "abc": [0.75, 0.21881995, 0.16032284],
        "properties": { "magmom": 0.0 },
        "label": "Tb",
        "xyz": [3.26770323, 1.4541106919348201, 1.6018810726990838]
      },
      {
        "species": [{ "element": "Zn", "occu": 1 }],
        "abc": [0.25, 0.53562844, 0.10408768],
        "properties": { "magmom": -0.0 },
        "label": "Zn",
        "xyz": [1.08923441, 3.5594489284375834, 1.0399383934229065]
      },
      {
        "species": [{ "element": "Zn", "occu": 1 }],
        "abc": [0.25, 0.03562855, 0.39598117],
        "properties": { "magmom": -0.0 },
        "label": "Zn",
        "xyz": [1.08923441, 0.23666995534082522, 3.956565610219636]
      },
      {
        "species": [{ "element": "Zn", "occu": 1 }],
        "abc": [0.75, 0.46433922, 0.89600406],
        "properties": { "magmom": -0.0 },
        "label": "Zn",
        "xyz": [3.26770323, 3.0855091163939643, 8.952633451097887]
      },
      {
        "species": [{ "element": "Zn", "occu": 1 }],
        "abc": [0.75, 0.96434371, 0.60392263],
        "properties": { "magmom": -0.0 },
        "label": "Zn",
        "xyz": [3.26770323, 6.408318704264265, 6.034128371475627]
      },
      {
        "species": [{ "element": "Zn", "occu": 1 }],
        "abc": [0.25, 0.9152970300000001, 0.14745232],
        "properties": { "magmom": -0.0 },
        "label": "Zn",
        "xyz": [1.08923441, 6.082494438861043, 1.473168516488357]
      },
      {
        "species": [{ "element": "Zn", "occu": 1 }],
        "abc": [0.25, 0.41530084, 0.35264529],
        "properties": { "magmom": -0.0 },
        "label": "Zn",
        "xyz": [1.08923441, 2.759761207866948, 3.5235000056426764]
      },
      {
        "species": [{ "element": "Zn", "occu": 1 }],
        "abc": [0.75, 0.08471406000000001, 0.8526350300000001],
        "properties": { "magmom": -0.0 },
        "label": "Zn",
        "xyz": [3.26770323, 0.5627522175006285, 8.519359456929834]
      },
      {
        "species": [{ "element": "Zn", "occu": 1 }],
        "abc": [0.75, 0.58470909, 0.64726266],
        "properties": { "magmom": -0.0 },
        "label": "Zn",
        "xyz": [3.26770323, 3.8854777835828442, 6.46723543599876]
      },
      {
        "species": [{ "element": "Zn", "occu": 1 }],
        "abc": [0.25, 0.21940483, 0.95544585],
        "properties": { "magmom": -0.0 },
        "label": "Zn",
        "xyz": [1.08923441, 1.4578034613490236, 9.546604562632677]
      },
      {
        "species": [{ "element": "Zn", "occu": 1 }],
        "abc": [0.25, 0.71936755, 0.54453616],
        "properties": { "magmom": -0.0 },
        "label": "Zn",
        "xyz": [1.08923441, 4.780364463059645, 5.440789264984397]
      },
      {
        "species": [{ "element": "Zn", "occu": 1 }],
        "abc": [0.75, 0.78061198, 0.04468779],
        "properties": { "magmom": -0.0 },
        "label": "Zn",
        "xyz": [3.26770323, 5.187481195503419, 0.4463859310676719]
      },
      {
        "species": [{ "element": "Zn", "occu": 1 }],
        "abc": [0.75, 0.28065183, 0.45533467],
        "properties": { "magmom": -0.0 },
        "label": "Zn",
        "xyz": [3.26770323, 1.8649373366374218, 4.549575278882292]
      }
    ]
  },
  "task_ids": null,
  "uncorrected_energy_per_atom": null,
  "energy_per_atom": -14.894058916875,
  "formation_energy_per_atom": -0.40449842562500005,
  "energy_above_hull": 0.0,
  "is_stable": true,
  "equilibrium_reaction_energy_per_atom": null,
  "decomposes_to": null,
  "xas": null,
  "grain_boundaries": null,
  "band_gap": 0.0,
  "cbm": null,
  "vbm": null,
  "efermi": 3.03596217,
  "is_gap_direct": null,
  "is_metal": null,
  "es_source_calc_id": null,
  "bandstructure": null,
  "dos": null,
  "dos_energy_up": null,
  "dos_energy_down": null,
  "is_magnetic": null,
  "ordering": null,
  "total_magnetization": 0.0,
  "total_magnetization_normalized_vol": null,
  "total_magnetization_normalized_formula_units": null,
  "num_magnetic_sites": null,
  "num_unique_magnetic_sites": null,
  "types_of_magnetic_species": null,
  "bulk_modulus": null,
  "shear_modulus": null,
  "universal_anisotropy": null,
  "homogeneous_poisson": null,
  "e_total": null,
  "e_ionic": null,
  "e_electronic": null,
  "n": null,
  "e_ij_max": null,
  "weighted_surface_energy_EV_PER_ANG2": null,
  "weighted_surface_energy": null,
  "weighted_work_function": null,
  "surface_anisotropy": null,
  "shape_factor": null,
  "has_reconstructed": null,
  "possible_species": null,
  "has_props": null,
  "theoretical": null,
  "database_IDs": null,
  "fields_not_requested": [
    "builder_meta",
    "nsites",
    "elements",
    "nelements",
    "composition",
    "composition_reduced",
    "chemsys",
    "symmetry",
    "property_name",
    "deprecated",
    "deprecation_reasons",
    "last_updated",
    "origins",
    "warnings",
    "task_ids",
    "uncorrected_energy_per_atom",
    "equilibrium_reaction_energy_per_atom",
    "decomposes_to",
    "xas",
    "grain_boundaries",
    "cbm",
    "vbm",
    "is_gap_direct",
    "is_metal",
    "es_source_calc_id",
    "bandstructure",
    "dos",
    "dos_energy_up",
    "dos_energy_down",
    "is_magnetic",
    "ordering",
    "total_magnetization_normalized_vol",
    "total_magnetization_normalized_formula_units",
    "num_magnetic_sites",
    "num_unique_magnetic_sites",
    "types_of_magnetic_species",
    "bulk_modulus",
    "shear_modulus",
    "universal_anisotropy",
    "homogeneous_poisson",
    "e_total",
    "e_ionic",
    "e_electronic",
    "n",
    "e_ij_max",
    "weighted_surface_energy_EV_PER_ANG2",
    "weighted_surface_energy",
    "weighted_work_function",
    "surface_anisotropy",
    "shape_factor",
    "has_reconstructed",
    "possible_species",
    "has_props",
    "theoretical",
    "database_IDs"
  ]
}
