{
  "builder_meta": null,
  "nsites": null,
  "elements": null,
  "nelements": null,
  "composition": null,
  "composition_reduced": null,
  "formula_pretty": "TbZn2",
  "formula_anonymous": "AB2",
  "chemsys": null,
  "volume": 118.22108752579379,
  "density": 8.139497986898197,
  "density_atomic": 19.7035145876323,
  "symmetry": null,
  "property_name": null,
  "material_id": "mp-2338",
  "deprecated": null,
  "deprecation_reasons": null,
  "last_updated": null,
  "origins": null,
  "warnings": null,
  "structure": {
    "@module": "pymatgen.core.structure",
    "@class": "Structure",
    "charge": 0,
    "lattice": {
      "matrix": [
        [4.09117776, -1e-8, 1.7627412100000002],
        [1.92808373, 5.14668422, 1.15408988],
        [0.0056863700000000005, -0.01971403, 5.6158148]
      ],
      "pbc": [true, true, true],
      "a": 4.454771827754019,
      "b": 5.615851563334464,
      "c": 5.615852281326642,
      "alpha": 78.30891776254522,
      "beta": 66.63266659577138,
      "gamma": 66.6326562223938,
      "volume": 118.22108752579379
    },
    "properties": {},
    "sites": [
      {
        "species": [{ "element": "Tb", "occu": 1 }],
        "abc": [0.52919993, 0.72080007, 0.22080007000000001],
        "properties": { "magmom": 0.0 },
        "label": "Tb",
        "xyz": [3.5560694226534637, 3.705377481547914, 3.004682892177443]
      },
      {
        "species": [{ "element": "Tb", "occu": 1 }],
        "abc": [0.47080007, 0.27919993, 0.77919993],
        "properties": { "magmom": 0.0 },
        "label": "Tb",
        "xyz": [2.468878437346536, 1.421592698452086, 5.5279629978225575]
      },
      {
        "species": [{ "element": "Zn", "occu": 1 }],
        "abc": [0.83410796, 0.7114642, 0.62032389],
        "properties": { "magmom": 0.0 },
        "label": "Zn",
        "xyz": [4.787773875046815, 3.649452479116668, 5.7750341901389]
      },
      {
        "species": [{ "element": "Zn", "occu": 1 }],
        "abc": [0.16589204, 0.2885358, 0.37967611],
        "properties": { "magmom": 0.0 },
        "label": "Zn",
        "xyz": [1.237173984953185, 1.4775177008833325, 2.7576116998611004]
      },
      {
        "species": [{ "element": "Zn", "occu": 1 }],
        "abc": [0.83410796, 0.12032389, 0.2114642],
        "properties": { "magmom": 0.0 },
        "label": "Zn",
        "xyz": [3.645680933713233, 0.6151002460282102, 2.796724842482425]
      },
      {
        "species": [{ "element": "Zn", "occu": 1 }],
        "abc": [0.16589204, 0.87967611, 0.7885358],
        "properties": { "magmom": 0.0 },
        "label": "Zn",
        "xyz": [2.3792669262867667, 4.5118699339717905, 5.735921047517575]
      }
    ]
  },
  "task_ids": null,
  "uncorrected_energy_per_atom": null,
  "energy_per_atom": -16.796210103333333,
  "formation_energy_per_atom": -0.44699698333333504,
  "energy_above_hull": 0.0,
  "is_stable": true,
  "equilibrium_reaction_energy_per_atom": null,
  "decomposes_to": null,
  "xas": null,
  "grain_boundaries": null,
  "band_gap": 0.0,
  "cbm": null,
  "vbm": null,
  "efermi": 3.08372418,
  "is_gap_direct": null,
  "is_metal": null,
  "es_source_calc_id": null,
  "bandstructure": null,
  "dos": null,
  "dos_energy_up": null,
  "dos_energy_down": null,
  "is_magnetic": null,
  "ordering": null,
  "total_magnetization": 0.0,
  "total_magnetization_normalized_vol": null,
  "total_magnetization_normalized_formula_units": null,
  "num_magnetic_sites": null,
  "num_unique_magnetic_sites": null,
  "types_of_magnetic_species": null,
  "bulk_modulus": null,
  "shear_modulus": null,
  "universal_anisotropy": null,
  "homogeneous_poisson": null,
  "e_total": null,
  "e_ionic": null,
  "e_electronic": null,
  "n": null,
  "e_ij_max": null,
  "weighted_surface_energy_EV_PER_ANG2": null,
  "weighted_surface_energy": null,
  "weighted_work_function": null,
  "surface_anisotropy": null,
  "shape_factor": null,
  "has_reconstructed": null,
  "possible_species": null,
  "has_props": null,
  "theoretical": null,
  "database_IDs": null,
  "fields_not_requested": [
    "builder_meta",
    "nsites",
    "elements",
    "nelements",
    "composition",
    "composition_reduced",
    "chemsys",
    "symmetry",
    "property_name",
    "deprecated",
    "deprecation_reasons",
    "last_updated",
    "origins",
    "warnings",
    "task_ids",
    "uncorrected_energy_per_atom",
    "equilibrium_reaction_energy_per_atom",
    "decomposes_to",
    "xas",
    "grain_boundaries",
    "cbm",
    "vbm",
    "is_gap_direct",
    "is_metal",
    "es_source_calc_id",
    "bandstructure",
    "dos",
    "dos_energy_up",
    "dos_energy_down",
    "is_magnetic",
    "ordering",
    "total_magnetization_normalized_vol",
    "total_magnetization_normalized_formula_units",
    "num_magnetic_sites",
    "num_unique_magnetic_sites",
    "types_of_magnetic_species",
    "bulk_modulus",
    "shear_modulus",
    "universal_anisotropy",
    "homogeneous_poisson",
    "e_total",
    "e_ionic",
    "e_electronic",
    "n",
    "e_ij_max",
    "weighted_surface_energy_EV_PER_ANG2",
    "weighted_surface_energy",
    "weighted_work_function",
    "surface_anisotropy",
    "shape_factor",
    "has_reconstructed",
    "possible_species",
    "has_props",
    "theoretical",
    "database_IDs"
  ]
}
