{"builder_meta": null, "nsites": null, "elements": null, "nelements": null, "composition": null, "composition_reduced": null, "formula_pretty": "Tc2As3", "formula_anonymous": "A2B3", "chemsys": null, "volume": 330.8046508531559, "density": 8.448446978579955, "density_atomic": 16.540232542657797, "symmetry": null, "property_name": null, "material_id": "mp-8886", "deprecated": null, "deprecation_reasons": null, "last_updated": null, "origins": null, "warnings": null, "structure": {"@module": "pymatgen.core.structure", "@class": "Structure", "charge": 0, "lattice": {"matrix": [[6.50985504, -0.00067341, -1.35857358], [-1.8388965, 6.3448169100000005, -0.64696325], [0.01250897, 0.014799660000000001, 8.00427854]], "pbc": [true, true, true], "a": 6.650107913979174, "b": 6.637529917520882, "c": 8.00430199643736, "alpha": 95.51669181709764, "beta": 101.69859196070618, "gamma": 104.55957604988325, "volume": 330.804650853156}, "properties": {}, "sites": [{"species": [{"element": "Tc", "occu": 1}], "abc": [0.91444222, 0.42417841, 0.14255622], "properties": {"magmom": -0.0}, "label": "Tc", "xyz": [5.1746493326105165, 2.692828337676428, -0.37570519075246134]}, {"species": [{"element": "Tc", "occu": 1}], "abc": [0.08555778, 0.57582159, 0.85744378], "properties": {"magmom": -0.0}, "label": "Tc", "xyz": [-0.49118182261051724, 3.666114822323572, 6.374446900752461]}, {"species": [{"element": "Tc", "occu": 1}], "abc": [0.36863445, 0.4270235, 0.13367776], "properties": {"magmom": -0.0}, "label": "Tc", "xyz": [1.6161769837718851, 2.7111160670399728, 0.2929084898090645]}, {"species": [{"element": "Tc", "occu": 1}], "abc": [0.63136555, 0.5729765, 0.86632224], "properties": {"magmom": -0.0}, "label": "Tc", "xyz": [3.067290526228115, 3.647827092960028, 5.705833220190936]}, {"species": [{"element": "Tc", "occu": 1}], "abc": [0.53025021, 0.86335124, 0.36471303], "properties": {"magmom": -0.0}, "label": "Tc", "xyz": [1.8688006128737777, 5.482846099869121, 1.6403242290699942]}, {"species": [{"element": "Tc", "occu": 1}], "abc": [0.46974979, 0.13664876, 0.63528697], "properties": {"magmom": -0.0}, "label": "Tc", "xyz": [2.814666897126222, 0.876097060130878, 4.358417480930005]}, {"species": [{"element": "Tc", "occu": 1}], "abc": [0.08949579, 0.87441921, 0.37494623], "properties": {"magmom": 0.0}, "label": "Tc", "xyz": [-1.0206716140688001, 5.5535185993991805, 2.3138703526636433]}, {"species": [{"element": "Tc", "occu": 1}], "abc": [0.91050421, 0.12558079, 0.6250537700000001], "properties": {"magmom": 0.0}, "label": "Tc", "xyz": [5.7041391240688, 0.8054245606008211, 3.6848713573363563]}, {"species": [{"element": "As", "occu": 1}], "abc": [0.73663004, 0.59197396, 0.34849637], "properties": {"magmom": 0.0}, "label": "As", "xyz": [3.7111352660117003, 3.760627965439662, 1.4057105080035868]}, {"species": [{"element": "As", "occu": 1}], "abc": [0.26336996, 0.40802604000000003, 0.65150363], "properties": {"magmom": 0.0}, "label": "As", "xyz": [0.9723322439882994, 2.598315194560339, 4.593031201996413]}, {"species": [{"element": "As", "occu": 1}], "abc": [0.23575332000000002, 0.56513065, 0.38419571], "properties": {"magmom": -0.0}, "label": "As", "xyz": [0.5003090566815266, 3.591177711717529, 2.3893024827651654]}, {"species": [{"element": "As", "occu": 1}], "abc": [0.7642466800000001, 0.43486935, 0.61580429], "properties": {"magmom": -0.0}, "label": "As", "xyz": [4.183158453318474, 2.7677654482824714, 3.6094392272348346]}, {"species": [{"element": "As", "occu": 1}], "abc": [0.85881884, 0.12638314, 0.31475494], "properties": {"magmom": -0.0}, "label": "As", "xyz": [5.362317900317755, 0.8059578127111735, 1.270852378571135]}, {"species": [{"element": "As", "occu": 1}], "abc": [0.14118116, 0.87361686, 0.68524606], "properties": {"magmom": -0.0}, "label": "As", "xyz": [-0.6788503778087855, 5.552985362088487, 4.727897335707404]}, {"species": [{"element": "As", "occu": 1}], "abc": [0.37174054, 0.152994699999999, 0.32110817], "properties": {"magmom": -0.0}, "label": "As", "xyz": [2.1426523420080583, 0.9752253176425516, 1.9662204095459646]}, {"species": [{"element": "As", "occu": 1}], "abc": [0.62825946, 0.8470053, 0.67889183], "properties": {"magmom": -0.0}, "label": "As", "xyz": [2.5408151679919433, 5.383717842357442, 4.032521300454036]}, {"species": [{"element": "As", "occu": 1}], "abc": [0.54540016, 0.20634067, 0.96414382], "properties": {"magmom": -0.0}, "label": "As", "xyz": [3.183097290642217, 1.3230954950420852, 6.8428146095254725]}, {"species": [{"element": "As", "occu": 1}], "abc": [0.45459984000000003, 0.79365933, 0.03585618], "properties": {"magmom": -0.0}, "label": "As", "xyz": [1.5003702193577833, 5.035847664957915, -0.8440728995254727]}, {"species": [{"element": "As", "occu": 1}], "abc": [0.03325288, 0.19116621, 0.95139683], "properties": {"magmom": 0.0}, "label": "As", "xyz": [-0.12316245162018472, 1.2269725586157683, 7.446391232654335]}, {"species": [{"element": "As", "occu": 1}], "abc": [0.9667471200000001, 0.80883379, 0.04860317], "properties": {"magmom": 0.0}, "label": "As", "xyz": [4.806629961620185, 5.131970601384232, -1.4476495226543356]}]}, "task_ids": null, "uncorrected_energy_per_atom": null, "energy_per_atom": -19.535086497, "formation_energy_per_atom": -0.324703084500001, "energy_above_hull": 0.0, "is_stable": true, "equilibrium_reaction_energy_per_atom": null, "decomposes_to": null, "xas": null, "grain_boundaries": null, "band_gap": 0.0, "cbm": null, "vbm": null, "efermi": 7.28668432, "is_gap_direct": null, "is_metal": null, "es_source_calc_id": null, "bandstructure": null, "dos": null, "dos_energy_up": null, "dos_energy_down": null, "is_magnetic": null, "ordering": null, "total_magnetization": 0.0, "total_magnetization_normalized_vol": null, "total_magnetization_normalized_formula_units": null, "num_magnetic_sites": null, "num_unique_magnetic_sites": null, "types_of_magnetic_species": null, "bulk_modulus": null, "shear_modulus": null, "universal_anisotropy": null, "homogeneous_poisson": null, "e_total": null, "e_ionic": null, "e_electronic": null, "n": null, "e_ij_max": null, "weighted_surface_energy_EV_PER_ANG2": null, "weighted_surface_energy": null, "weighted_work_function": null, "surface_anisotropy": null, "shape_factor": null, "has_reconstructed": null, "possible_species": null, "has_props": null, "theoretical": null, "database_IDs": null, "fields_not_requested": ["builder_meta", "nsites", "elements", "nelements", "composition", "composition_reduced", "chemsys", "symmetry", "property_name", "deprecated", "deprecation_reasons", "last_updated", "origins", "warnings", "task_ids", "uncorrected_energy_per_atom", "equilibrium_reaction_energy_per_atom", "decomposes_to", "xas", "grain_boundaries", "cbm", "vbm", "is_gap_direct", "is_metal", "es_source_calc_id", "bandstructure", "dos", "dos_energy_up", "dos_energy_down", "is_magnetic", "ordering", "total_magnetization_normalized_vol", "total_magnetization_normalized_formula_units", "num_magnetic_sites", "num_unique_magnetic_sites", "types_of_magnetic_species", "bulk_modulus", "shear_modulus", "universal_anisotropy", "homogeneous_poisson", "e_total", "e_ionic", "e_electronic", "n", "e_ij_max", "weighted_surface_energy_EV_PER_ANG2", "weighted_surface_energy", "weighted_work_function", "surface_anisotropy", "shape_factor", "has_reconstructed", "possible_species", "has_props", "theoretical", "database_IDs"]}