{
  "builder_meta": null,
  "nsites": null,
  "elements": null,
  "nelements": null,
  "composition": null,
  "composition_reduced": null,
  "formula_pretty": "Tc2N",
  "formula_anonymous": "AB2",
  "chemsys": null,
  "volume": 66.89335892143518,
  "density": 10.426276545847113,
  "density_atomic": 11.14889315357253,
  "symmetry": null,
  "property_name": null,
  "material_id": "mp-1019316",
  "deprecated": null,
  "deprecation_reasons": null,
  "last_updated": null,
  "origins": null,
  "warnings": null,
  "structure": {
    "@module": "pymatgen.core.structure",
    "@class": "Structure",
    "charge": 0,
    "lattice": {
      "matrix": [
        [2.82473575, 3.06e-6, 0.0],
        [-1.4123653200000001, 2.446211899999999, 5.089999999999999e-6],
        [0.0, 1.9380000000000004e-5, 9.68079071]
      ],
      "pbc": [true, true, true],
      "a": 2.824735750001657,
      "b": 2.8246643087039947,
      "c": 9.680790710019398,
      "alpha": 89.9997974210904,
      "beta": 89.99999999987574,
      "gamma": 120.00071474317853,
      "volume": 66.89335892143514
    },
    "properties": {},
    "sites": [
      {
        "species": [{ "element": "Tc", "occu": 1 }],
        "abc": [0.33312306, 0.66624611, 0.39245285],
        "properties": { "magmom": 0.0 },
        "label": "Tc",
        "xyz": [1.7163824896915258e-6, 1.629787787703505, 3.799257295585724]
      },
      {
        "species": [{ "element": "Tc", "occu": 1 }],
        "abc": [0.66687737, 0.33375574, 0.60766346],
        "properties": { "magmom": -0.0 },
        "label": "Tc",
        "xyz": [1.4123673153780407, 0.8164510800439126, 5.882664477191174]
      },
      {
        "species": [{ "element": "Tc", "occu": 1 }],
        "abc": [0.66687737, 0.33375475, 0.8923365400000001],
        "properties": { "magmom": -0.0 },
        "label": "Tc",
        "xyz": [1.4123687136197076, 0.816454175258422, 8.638524985437222]
      },
      {
        "species": [{ "element": "Tc", "occu": 1 }],
        "abc": [0.33312306, 0.66624711, 0.10754315],
        "properties": { "magmom": 0.0 },
        "label": "Tc",
        "xyz": [3.0401716966110826e-7, 1.6297847123654188, 1.0411061186419264]
      },
      {
        "species": [{ "element": "N", "occu": 1 }],
        "abc": [0.33378278, 0.66756656, 0.750002],
        "properties": { "magmom": -0.0 },
        "label": "N",
        "xyz": [2.932646855358101e-7, 1.63302481952813, 7.26061579199521]
      },
      {
        "species": [{ "element": "N", "occu": 1 }],
        "abc": [0.66621537, 0.33243073, 0.250001],
        "properties": { "magmom": -0.0 },
        "label": "N",
        "xyz": [1.4123687384841936, 0.8132028912900989, 2.4202090503631255]
      }
    ]
  },
  "task_ids": null,
  "uncorrected_energy_per_atom": null,
  "energy_per_atom": -20.585650326666666,
  "formation_energy_per_atom": -0.23295873624999702,
  "energy_above_hull": 0.0,
  "is_stable": true,
  "equilibrium_reaction_energy_per_atom": null,
  "decomposes_to": null,
  "xas": null,
  "grain_boundaries": null,
  "band_gap": 0.0,
  "cbm": null,
  "vbm": null,
  "efermi": 9.19898834,
  "is_gap_direct": null,
  "is_metal": null,
  "es_source_calc_id": null,
  "bandstructure": null,
  "dos": null,
  "dos_energy_up": null,
  "dos_energy_down": null,
  "is_magnetic": null,
  "ordering": null,
  "total_magnetization": 2e-7,
  "total_magnetization_normalized_vol": null,
  "total_magnetization_normalized_formula_units": null,
  "num_magnetic_sites": null,
  "num_unique_magnetic_sites": null,
  "types_of_magnetic_species": null,
  "bulk_modulus": null,
  "shear_modulus": null,
  "universal_anisotropy": null,
  "homogeneous_poisson": null,
  "e_total": null,
  "e_ionic": null,
  "e_electronic": null,
  "n": null,
  "e_ij_max": null,
  "weighted_surface_energy_EV_PER_ANG2": null,
  "weighted_surface_energy": null,
  "weighted_work_function": null,
  "surface_anisotropy": null,
  "shape_factor": null,
  "has_reconstructed": null,
  "possible_species": null,
  "has_props": null,
  "theoretical": null,
  "database_IDs": null,
  "fields_not_requested": [
    "builder_meta",
    "nsites",
    "elements",
    "nelements",
    "composition",
    "composition_reduced",
    "chemsys",
    "symmetry",
    "property_name",
    "deprecated",
    "deprecation_reasons",
    "last_updated",
    "origins",
    "warnings",
    "task_ids",
    "uncorrected_energy_per_atom",
    "equilibrium_reaction_energy_per_atom",
    "decomposes_to",
    "xas",
    "grain_boundaries",
    "cbm",
    "vbm",
    "is_gap_direct",
    "is_metal",
    "es_source_calc_id",
    "bandstructure",
    "dos",
    "dos_energy_up",
    "dos_energy_down",
    "is_magnetic",
    "ordering",
    "total_magnetization_normalized_vol",
    "total_magnetization_normalized_formula_units",
    "num_magnetic_sites",
    "num_unique_magnetic_sites",
    "types_of_magnetic_species",
    "bulk_modulus",
    "shear_modulus",
    "universal_anisotropy",
    "homogeneous_poisson",
    "e_total",
    "e_ionic",
    "e_electronic",
    "n",
    "e_ij_max",
    "weighted_surface_energy_EV_PER_ANG2",
    "weighted_surface_energy",
    "weighted_work_function",
    "surface_anisotropy",
    "shape_factor",
    "has_reconstructed",
    "possible_species",
    "has_props",
    "theoretical",
    "database_IDs"
  ]
}
