{"builder_meta": null, "nsites": null, "elements": null, "nelements": null, "composition": null, "composition_reduced": null, "formula_pretty": "Tc2O7", "formula_anonymous": "A2B7", "chemsys": null, "volume": 551.7048267620728, "density": 3.708062960045716, "density_atomic": 15.325134076724245, "symmetry": null, "property_name": null, "material_id": "mp-27485", "deprecated": null, "deprecation_reasons": null, "last_updated": null, "origins": null, "warnings": null, "structure": {"@module": "pymatgen.core.structure", "@class": "Structure", "charge": 0, "lattice": {"matrix": [[5.51493846, 0.0, 0.0], [-0.0, 7.27388761, 0.0], [0.0, 0.0, 13.75306598]], "pbc": [true, true, true], "a": 5.51493846, "b": 7.27388761, "c": 13.75306598, "alpha": 90.0, "beta": 90.0, "gamma": 90.0, "volume": 551.7048267620728}, "properties": {}, "sites": [{"species": [{"element": "Tc", "occu": 1}], "abc": [0.79908946, 0.48318245, 0.60696313], "properties": {"magmom": 0.0}, "label": "Tc", "xyz": [4.406929195934632, 3.5146148364244443, 8.347603974317318]}, {"species": [{"element": "Tc", "occu": 1}], "abc": [0.29908946000000003, 0.51681755, 0.89303687], "properties": {"magmom": 0.0}, "label": "Tc", "xyz": [1.6494599659346316, 3.7592727735755553, 12.281994995682682]}, {"species": [{"element": "Tc", "occu": 1}], "abc": [0.70091054, 0.98318245, 0.39303687], "properties": {"magmom": 0.0}, "label": "Tc", "xyz": [3.865478494065368, 7.151558641424445, 5.405462005682683]}, {"species": [{"element": "Tc", "occu": 1}], "abc": [0.20091054, 0.01681755, 0.10696313], "properties": {"magmom": 0.0}, "label": "Tc", "xyz": [1.1080092640653683, 0.1223289685755555, 1.4710709843173175]}, {"species": [{"element": "Tc", "occu": 1}], "abc": [0.20091054, 0.51681755, 0.39303687], "properties": {"magmom": 0.0}, "label": "Tc", "xyz": [1.1080092640653683, 3.7592727735755553, 5.405462005682683]}, {"species": [{"element": "Tc", "occu": 1}], "abc": [0.70091054, 0.48318245, 0.10696313], "properties": {"magmom": 0.0}, "label": "Tc", "xyz": [3.865478494065368, 3.5146148364244443, 1.4710709843173175]}, {"species": [{"element": "Tc", "occu": 1}], "abc": [0.29908946000000003, 0.01681755, 0.60696313], "properties": {"magmom": 0.0}, "label": "Tc", "xyz": [1.6494599659346316, 0.1223289685755555, 8.347603974317318]}, {"species": [{"element": "Tc", "occu": 1}], "abc": [0.79908946, 0.98318245, 0.89303687], "properties": {"magmom": 0.0}, "label": "Tc", "xyz": [4.406929195934632, 7.151558641424445, 12.281994995682682]}, {"species": [{"element": "O", "occu": 1}], "abc": [0.56265194, 0.62380459, 0.58674422], "properties": {"magmom": -0.0}, "label": "O", "xyz": [3.102990823499612, 4.5374844782621295, 8.069531971043636]}, {"species": [{"element": "O", "occu": 1}], "abc": [0.06265194, 0.37619541, 0.9132557800000001], "properties": {"magmom": -0.0}, "label": "O", "xyz": [0.3455215934996124, 2.73640313173787, 12.560066998956366]}, {"species": [{"element": "O", "occu": 1}], "abc": [0.93734806, 0.12380459, 0.41325578], "properties": {"magmom": -0.0}, "label": "O", "xyz": [5.169416866500388, 0.9005406732621299, 5.683534008956365]}, {"species": [{"element": "O", "occu": 1}], "abc": [0.43734806, 0.87619541, 0.08674422], "properties": {"magmom": -0.0}, "label": "O", "xyz": [2.4119476365003876, 6.37334693673787, 1.1929989810436357]}, {"species": [{"element": "O", "occu": 1}], "abc": [0.43734806, 0.37619541, 0.41325578], "properties": {"magmom": -0.0}, "label": "O", "xyz": [2.4119476365003876, 2.73640313173787, 5.683534008956365]}, {"species": [{"element": "O", "occu": 1}], "abc": [0.93734806, 0.62380459, 0.08674422], "properties": {"magmom": -0.0}, "label": "O", "xyz": [5.169416866500388, 4.5374844782621295, 1.1929989810436357]}, {"species": [{"element": "O", "occu": 1}], "abc": [0.06265194, 0.87619541, 0.58674422], "properties": {"magmom": -0.0}, "label": "O", "xyz": [0.3455215934996124, 6.37334693673787, 8.069531971043636]}, {"species": [{"element": "O", "occu": 1}], "abc": [0.56265194, 0.12380459, 0.9132557800000001], "properties": {"magmom": -0.0}, "label": "O", "xyz": [3.102990823499612, 0.9005406732621299, 12.560066998956366]}, {"species": [{"element": "O", "occu": 1}], "abc": [0.0, -0.0, -0.0], "properties": {"magmom": 0.0}, "label": "O", "xyz": [0.0, 0.0, 0.0]}, {"species": [{"element": "O", "occu": 1}], "abc": [0.5, -0.0, 0.5], "properties": {"magmom": 0.0}, "label": "O", "xyz": [2.75746923, 0.0, 6.87653299]}, {"species": [{"element": "O", "occu": 1}], "abc": [0.5, 0.5, -0.0], "properties": {"magmom": 0.0}, "label": "O", "xyz": [2.75746923, 3.636943805, 0.0]}, {"species": [{"element": "O", "occu": 1}], "abc": [0.0, 0.5, 0.5], "properties": {"magmom": 0.0}, "label": "O", "xyz": [0.0, 3.636943805, 6.87653299]}, {"species": [{"element": "O", "occu": 1}], "abc": [0.6925328, 0.76820186, 0.88099781], "properties": {"magmom": 0.0}, "label": "O", "xyz": [3.8192757735314875, 5.587813991432955, 12.116421009165505]}, {"species": [{"element": "O", "occu": 1}], "abc": [0.1925328, 0.23179814, 0.61900219], "properties": {"magmom": 0.0}, "label": "O", "xyz": [1.061806543531488, 1.6860736185670455, 8.513177960834497]}, {"species": [{"element": "O", "occu": 1}], "abc": [0.807467199999999, 0.26820186, 0.11900319000000001], "properties": {"magmom": 0.0}, "label": "O", "xyz": [4.453131916468506, 1.9508701864329547, 1.6366587239004764]}, {"species": [{"element": "O", "occu": 1}], "abc": [0.3074672, 0.73179814, 0.38099781], "properties": {"magmom": 0.0}, "label": "O", "xyz": [1.6956626864685118, 5.3230174235670455, 5.2398880191655035]}, {"species": [{"element": "O", "occu": 1}], "abc": [0.3074672, 0.23179814, 0.11900319000000001], "properties": {"magmom": 0.0}, "label": "O", "xyz": [1.6956626864685118, 1.6860736185670455, 1.6366587239004764]}, {"species": [{"element": "O", "occu": 1}], "abc": [0.807467199999999, 0.76820186, 0.38099781], "properties": {"magmom": 0.0}, "label": "O", "xyz": [4.453131916468506, 5.587813991432955, 5.2398880191655035]}, {"species": [{"element": "O", "occu": 1}], "abc": [0.1925328, 0.73179814, 0.88099781], "properties": {"magmom": 0.0}, "label": "O", "xyz": [1.061806543531488, 5.3230174235670455, 12.116421009165505]}, {"species": [{"element": "O", "occu": 1}], "abc": [0.6925328, 0.26820186, 0.61900219], "properties": {"magmom": 0.0}, "label": "O", "xyz": [3.8192757735314875, 1.9508701864329547, 8.513177960834497]}, {"species": [{"element": "O", "occu": 1}], "abc": [0.93698297, 0.04733113, 0.79042509], "properties": {"magmom": 0.0}, "label": "O", "xyz": [5.167403417618026, 0.3442813200742993, 10.870768415017439]}, {"species": [{"element": "O", "occu": 1}], "abc": [0.43698297, 0.95266887, 0.7095749100000001], "properties": {"magmom": 0.0}, "label": "O", "xyz": [2.4099341876180262, 6.929606289925701, 9.758830554982563]}, {"species": [{"element": "O", "occu": 1}], "abc": [0.56301703, 0.54733113, 0.20957491], "properties": {"magmom": 0.0}, "label": "O", "xyz": [3.105004272381974, 3.981225125074299, 2.882297564982562]}, {"species": [{"element": "O", "occu": 1}], "abc": [0.06301703, 0.45266887, 0.29042509], "properties": {"magmom": 0.0}, "label": "O", "xyz": [0.3475350423819738, 3.292662484925701, 3.9942354250174383]}, {"species": [{"element": "O", "occu": 1}], "abc": [0.06301703, 0.95266887, 0.20957491], "properties": {"magmom": 0.0}, "label": "O", "xyz": [0.3475350423819738, 6.929606289925701, 2.882297564982562]}, {"species": [{"element": "O", "occu": 1}], "abc": [0.56301703, 0.04733113, 0.29042509], "properties": {"magmom": 0.0}, "label": "O", "xyz": [3.105004272381974, 0.3442813200742993, 3.9942354250174383]}, {"species": [{"element": "O", "occu": 1}], "abc": [0.43698297, 0.45266887, 0.79042509], "properties": {"magmom": 0.0}, "label": "O", "xyz": [2.4099341876180262, 3.292662484925701, 10.870768415017439]}, {"species": [{"element": "O", "occu": 1}], "abc": [0.93698297, 0.54733113, 0.7095749100000001], "properties": {"magmom": 0.0}, "label": "O", "xyz": [5.167403417618026, 3.981225125074299, 9.758830554982563]}]}, "task_ids": null, "uncorrected_energy_per_atom": null, "energy_per_atom": -7.950056886388888, "formation_energy_per_atom": -1.799278561388888, "energy_above_hull": 0.0, "is_stable": true, "equilibrium_reaction_energy_per_atom": null, "decomposes_to": null, "xas": null, "grain_boundaries": null, "band_gap": 2.6664, "cbm": null, "vbm": null, "efermi": -2.22494907, "is_gap_direct": null, "is_metal": null, "es_source_calc_id": null, "bandstructure": null, "dos": null, "dos_energy_up": null, "dos_energy_down": null, "is_magnetic": null, "ordering": null, "total_magnetization": 0.0, "total_magnetization_normalized_vol": null, "total_magnetization_normalized_formula_units": null, "num_magnetic_sites": null, "num_unique_magnetic_sites": null, "types_of_magnetic_species": null, "bulk_modulus": null, "shear_modulus": null, "universal_anisotropy": null, "homogeneous_poisson": null, "e_total": null, "e_ionic": null, "e_electronic": null, "n": null, "e_ij_max": null, "weighted_surface_energy_EV_PER_ANG2": null, "weighted_surface_energy": null, "weighted_work_function": null, "surface_anisotropy": null, "shape_factor": null, "has_reconstructed": null, "possible_species": null, "has_props": null, "theoretical": null, "database_IDs": null, "fields_not_requested": ["builder_meta", "nsites", "elements", "nelements", "composition", "composition_reduced", "chemsys", "symmetry", "property_name", "deprecated", "deprecation_reasons", "last_updated", "origins", "warnings", "task_ids", "uncorrected_energy_per_atom", "equilibrium_reaction_energy_per_atom", "decomposes_to", "xas", "grain_boundaries", "cbm", "vbm", "is_gap_direct", "is_metal", "es_source_calc_id", "bandstructure", "dos", "dos_energy_up", "dos_energy_down", "is_magnetic", "ordering", "total_magnetization_normalized_vol", "total_magnetization_normalized_formula_units", "num_magnetic_sites", "num_unique_magnetic_sites", "types_of_magnetic_species", "bulk_modulus", "shear_modulus", "universal_anisotropy", "homogeneous_poisson", "e_total", "e_ionic", "e_electronic", "n", "e_ij_max", "weighted_surface_energy_EV_PER_ANG2", "weighted_surface_energy", "weighted_work_function", "surface_anisotropy", "shape_factor", "has_reconstructed", "possible_species", "has_props", "theoretical", "database_IDs"]}