{
  "builder_meta": null,
  "nsites": null,
  "elements": null,
  "nelements": null,
  "composition": null,
  "composition_reduced": null,
  "formula_pretty": "Tc2P3",
  "formula_anonymous": "A2B3",
  "chemsys": null,
  "volume": 287.27771564146167,
  "density": 6.680157303590993,
  "density_atomic": 14.363885782073083,
  "symmetry": null,
  "property_name": null,
  "material_id": "mp-9895",
  "deprecated": null,
  "deprecation_reasons": null,
  "last_updated": null,
  "origins": null,
  "warnings": null,
  "structure": {
    "@module": "pymatgen.core.structure",
    "@class": "Structure",
    "charge": 0,
    "lattice": {
      "matrix": [
        [6.17776306, 0.001145599999999, -1.28083669],
        [-1.74181256, 6.05399184, -0.6294583300000001],
        [-0.00474722, 0.00910059, 7.68028152]
      ],
      "pbc": [true, true, true],
      "a": 6.309144186365539,
      "b": 6.330951427879282,
      "c": 7.680288378914531,
      "alpha": 95.63105516446102,
      "beta": 101.74858564451173,
      "gamma": 104.42065286419346,
      "volume": 287.27771564146155
    },
    "properties": {},
    "sites": [
      {
        "species": [{ "element": "Tc", "occu": 1 }],
        "abc": [0.902840499999999, 0.41309987000000004, 0.14676787],
        "properties": { "magmom": 0.0 },
        "label": "Tc",
        "xyz": [4.857295408503735, 2.5032732103719035, -0.2892018322205987]
      },
      {
        "species": [{ "element": "Tc", "occu": 1 }],
        "abc": [0.0971595, 0.58690013, 0.85323213],
        "properties": { "magmom": 0.0 },
        "label": "Tc",
        "xyz": [-0.42609212850374134, 3.560964819628096, 6.0591883322206]
      },
      {
        "species": [{ "element": "Tc", "occu": 1 }],
        "abc": [0.37721107, 0.41457249, 0.1407917],
        "properties": { "magmom": -0.0 },
        "label": "Tc",
        "xyz": [1.6075446747825257, 2.5115318920873766, 0.33721800612988395]
      },
      {
        "species": [{ "element": "Tc", "occu": 1 }],
        "abc": [0.62278893, 0.58542751, 0.859208299999999],
        "properties": { "magmom": -0.0 },
        "label": "Tc",
        "xyz": [2.8236586052174744, 3.5527061379126232, 5.432768493870109]
      },
      {
        "species": [{ "element": "Tc", "occu": 1 }],
        "abc": [0.5356432600000001, 0.861132799999999, 0.36155058],
        "properties": { "magmom": 0.0 },
        "label": "Tc",
        "xyz": [1.807428857953622, 5.217194900867844, 1.5486914837638488]
      },
      {
        "species": [{ "element": "Tc", "occu": 1 }],
        "abc": [0.46435674, 0.1388672, 0.63844942],
        "properties": { "magmom": 0.0 },
        "label": "Tc",
        "xyz": [2.62377442204638, 0.8470431291321493, 4.221295016236152]
      },
      {
        "species": [{ "element": "Tc", "occu": 1 }],
        "abc": [0.07940713, 0.86840377, 0.36878188],
        "properties": { "magmom": -0.0 },
        "label": "Tc",
        "xyz": [-1.023788848039107, 5.260756438902675, 2.184017105493354]
      },
      {
        "species": [{ "element": "Tc", "occu": 1 }],
        "abc": [0.92059287, 0.13159623, 0.63121812],
        "properties": { "magmom": -0.0 },
        "label": "Tc",
        "xyz": [5.454992128039107, 0.8034815910973252, 3.5859693945066464]
      },
      {
        "species": [{ "element": "P", "occu": 1 }],
        "abc": [0.73540921, 0.57632834, 0.36135839000000003],
        "properties": { "magmom": 0.0 },
        "label": "P",
        "xyz": [3.537612462449657, 3.493218126862171, 1.470620392053966]
      },
      {
        "species": [{ "element": "P", "occu": 1 }],
        "abc": [0.26459079, 0.42367166, 0.63864161],
        "properties": { "magmom": 0.0 },
        "label": "P",
        "xyz": [0.8935908175503438, 2.5710199031378282, 4.2993661079460335]
      },
      {
        "species": [{ "element": "P", "occu": 1 }],
        "abc": [0.23465649, 0.56160982, 0.38111895],
        "properties": { "magmom": 0.0 },
        "label": "P",
        "xyz": [0.4696239019141011, 3.4037184973239936, 2.2730342072593857]
      },
      {
        "species": [{ "element": "P", "occu": 1 }],
        "abc": [0.76534351, 0.43839018, 0.61888105],
        "properties": { "magmom": 0.0 },
        "label": "P",
        "xyz": [3.961579378085899, 2.6605195326760063, 3.496952292740615]
      },
      {
        "species": [{ "element": "P", "occu": 1 }],
        "abc": [0.86106707, 0.13236726000000001, 0.31905786],
        "properties": { "magmom": -0.0 },
        "label": "P",
        "xyz": [5.0873947433735, 0.8052403651286871, 1.2642482157356734]
      },
      {
        "species": [{ "element": "P", "occu": 1 }],
        "abc": [0.13893293, 0.86763274, 0.68094214],
        "properties": { "magmom": -0.0 },
        "label": "P",
        "xyz": [-0.6561914633734992, 5.258997664871312, 4.505738284264327]
      },
      {
        "species": [{ "element": "P", "occu": 1 }],
        "abc": [0.37031413, 0.14941702, 0.3230571],
        "properties": { "magmom": 0.0 },
        "label": "P",
        "xyz": [2.0259228876700046, 0.9079336619181335, 1.9128057626225856]
      },
      {
        "species": [{ "element": "P", "occu": 1 }],
        "abc": [0.62968587, 0.85058298, 0.6769429],
        "properties": { "magmom": 0.0 },
        "label": "P",
        "xyz": [2.405280392329995, 5.156304368081866, 3.857180737377414]
      },
      {
        "species": [{ "element": "P", "occu": 1 }],
        "abc": [0.53777251, 0.18398261, 0.96412682],
        "properties": { "magmom": -0.0 },
        "label": "P",
        "xyz": [2.9971910039194594, 1.1232194147261818, 6.600157250461334]
      },
      {
        "species": [{ "element": "P", "occu": 1 }],
        "abc": [0.46222749, 0.8160173900000001, 0.03587318],
        "properties": { "magmom": -0.0 },
        "label": "P",
        "xyz": [1.4340122760805414, 4.941018615273817, -0.8301707504613334]
      },
      {
        "species": [{ "element": "P", "occu": 1 }],
        "abc": [0.03359318, 0.17839948, 0.95799186],
        "properties": { "magmom": -0.0 },
        "label": "P",
        "xyz": [-0.10775554660716719, 1.0887857716684486, 7.2023247624369855]
      },
      {
        "species": [{ "element": "P", "occu": 1 }],
        "abc": [0.96640682, 0.8216005200000001, 0.04200814],
        "properties": { "magmom": -0.0 },
        "label": "P",
        "xyz": [4.538958826607167, 4.9754522583315515, -1.4323382624369845]
      }
    ]
  },
  "task_ids": null,
  "uncorrected_energy_per_atom": null,
  "energy_per_atom": -16.378730611,
  "formation_energy_per_atom": -0.591620003785712,
  "energy_above_hull": 0.0,
  "is_stable": true,
  "equilibrium_reaction_energy_per_atom": null,
  "decomposes_to": null,
  "xas": null,
  "grain_boundaries": null,
  "band_gap": 0.0,
  "cbm": null,
  "vbm": null,
  "efermi": 9.0718577,
  "is_gap_direct": null,
  "is_metal": null,
  "es_source_calc_id": null,
  "bandstructure": null,
  "dos": null,
  "dos_energy_up": null,
  "dos_energy_down": null,
  "is_magnetic": null,
  "ordering": null,
  "total_magnetization": 0.0,
  "total_magnetization_normalized_vol": null,
  "total_magnetization_normalized_formula_units": null,
  "num_magnetic_sites": null,
  "num_unique_magnetic_sites": null,
  "types_of_magnetic_species": null,
  "bulk_modulus": null,
  "shear_modulus": null,
  "universal_anisotropy": null,
  "homogeneous_poisson": null,
  "e_total": null,
  "e_ionic": null,
  "e_electronic": null,
  "n": null,
  "e_ij_max": null,
  "weighted_surface_energy_EV_PER_ANG2": null,
  "weighted_surface_energy": null,
  "weighted_work_function": null,
  "surface_anisotropy": null,
  "shape_factor": null,
  "has_reconstructed": null,
  "possible_species": null,
  "has_props": null,
  "theoretical": null,
  "database_IDs": null,
  "fields_not_requested": [
    "builder_meta",
    "nsites",
    "elements",
    "nelements",
    "composition",
    "composition_reduced",
    "chemsys",
    "symmetry",
    "property_name",
    "deprecated",
    "deprecation_reasons",
    "last_updated",
    "origins",
    "warnings",
    "task_ids",
    "uncorrected_energy_per_atom",
    "equilibrium_reaction_energy_per_atom",
    "decomposes_to",
    "xas",
    "grain_boundaries",
    "cbm",
    "vbm",
    "is_gap_direct",
    "is_metal",
    "es_source_calc_id",
    "bandstructure",
    "dos",
    "dos_energy_up",
    "dos_energy_down",
    "is_magnetic",
    "ordering",
    "total_magnetization_normalized_vol",
    "total_magnetization_normalized_formula_units",
    "num_magnetic_sites",
    "num_unique_magnetic_sites",
    "types_of_magnetic_species",
    "bulk_modulus",
    "shear_modulus",
    "universal_anisotropy",
    "homogeneous_poisson",
    "e_total",
    "e_ionic",
    "e_electronic",
    "n",
    "e_ij_max",
    "weighted_surface_energy_EV_PER_ANG2",
    "weighted_surface_energy",
    "weighted_work_function",
    "surface_anisotropy",
    "shape_factor",
    "has_reconstructed",
    "possible_species",
    "has_props",
    "theoretical",
    "database_IDs"
  ]
}
