{"builder_meta": null, "nsites": null, "elements": null, "nelements": null, "composition": null, "composition_reduced": null, "formula_pretty": "Tc2Te5", "formula_anonymous": "A2B5", "chemsys": null, "volume": 2516.8593957719663, "density": 6.602941350816123, "density_atomic": 29.96261185442817, "symmetry": null, "property_name": null, "material_id": "mp-1204799", "deprecated": null, "deprecation_reasons": null, "last_updated": null, "origins": null, "warnings": null, "structure": {"@module": "pymatgen.core.structure", "@class": "Structure", "charge": 0, "lattice": {"matrix": [[13.149326, 0.0, 0.0], [0.0, 13.235261, 0.0], [0.0, 0.0, 14.46182]], "pbc": [true, true, true], "a": 13.149326, "b": 13.235261, "c": 14.46182, "alpha": 90.0, "beta": 90.0, "gamma": 90.0, "volume": 2516.8593957719663}, "properties": {}, "sites": [{"species": [{"element": "Tc", "occu": 1}], "abc": [0.867298999999999, 0.971266, 0.452024999999999], "properties": {"magmom": -0.0}, "label": "Tc", "xyz": [11.404397290473987, 12.854959010425999, 6.537104185499985]}, {"species": [{"element": "Tc", "occu": 1}], "abc": [0.13270099999999901, 0.528733999999999, 0.952025], "properties": {"magmom": -0.0}, "label": "Tc", "xyz": [1.744928709525987, 6.997932489573987, 13.7680141855]}, {"species": [{"element": "Tc", "occu": 1}], "abc": [0.632701, 0.471265999999999, 0.547975], "properties": {"magmom": -0.0}, "label": "Tc", "xyz": [8.319591709526, 6.237328510425987, 7.9247158145]}, {"species": [{"element": "Tc", "occu": 1}], "abc": [0.367299, 0.028734, 0.047975], "properties": {"magmom": -0.0}, "label": "Tc", "xyz": [4.829734290474, 0.38030198957399997, 0.6938058144999999]}, {"species": [{"element": "Tc", "occu": 1}], "abc": [0.13270099999999901, 0.028734, 0.547975], "properties": {"magmom": -0.0}, "label": "Tc", "xyz": [1.744928709525987, 0.38030198957399997, 7.9247158145]}, {"species": [{"element": "Tc", "occu": 1}], "abc": [0.867298999999999, 0.471265999999999, 0.047975], "properties": {"magmom": -0.0}, "label": "Tc", "xyz": [11.404397290473987, 6.237328510425987, 0.6938058144999999]}, {"species": [{"element": "Tc", "occu": 1}], "abc": [0.367299, 0.528733999999999, 0.452024999999999], "properties": {"magmom": -0.0}, "label": "Tc", "xyz": [4.829734290474, 6.997932489573987, 6.537104185499985]}, {"species": [{"element": "Tc", "occu": 1}], "abc": [0.632701, 0.971266, 0.952025], "properties": {"magmom": -0.0}, "label": "Tc", "xyz": [8.319591709526, 12.854959010425999, 13.7680141855]}, {"species": [{"element": "Tc", "occu": 1}], "abc": [0.05865000000000001, 0.952583, 0.387430999999999], "properties": {"magmom": 0.0}, "label": "Tc", "xyz": [0.7712079699000001, 12.607684629163, 5.602957384419986]}, {"species": [{"element": "Tc", "occu": 1}], "abc": [0.9413500000000001, 0.547416999999999, 0.887431], "properties": {"magmom": 0.0}, "label": "Tc", "xyz": [12.378118030100001, 7.245206870836987, 12.83386738442]}, {"species": [{"element": "Tc", "occu": 1}], "abc": [0.44135, 0.452582999999999, 0.612568999999999], "properties": {"magmom": 0.0}, "label": "Tc", "xyz": [5.8034550301, 5.990054129162987, 8.858862615579985]}, {"species": [{"element": "Tc", "occu": 1}], "abc": [0.5586500000000001, 0.047417, 0.112568999999999], "properties": {"magmom": 0.0}, "label": "Tc", "xyz": [7.345870969900002, 0.627576370837, 1.6279526155799855]}, {"species": [{"element": "Tc", "occu": 1}], "abc": [0.9413500000000001, 0.047417, 0.612568999999999], "properties": {"magmom": 0.0}, "label": "Tc", "xyz": [12.378118030100001, 0.627576370837, 8.858862615579985]}, {"species": [{"element": "Tc", "occu": 1}], "abc": [0.05865000000000001, 0.452582999999999, 0.112568999999999], "properties": {"magmom": 0.0}, "label": "Tc", "xyz": [0.7712079699000001, 5.990054129162987, 1.6279526155799855]}, {"species": [{"element": "Tc", "occu": 1}], "abc": [0.5586500000000001, 0.547416999999999, 0.387430999999999], "properties": {"magmom": 0.0}, "label": "Tc", "xyz": [7.345870969900002, 7.245206870836987, 5.602957384419986]}, {"species": [{"element": "Tc", "occu": 1}], "abc": [0.44135, 0.952583, 0.887431], "properties": {"magmom": 0.0}, "label": "Tc", "xyz": [5.8034550301, 12.607684629163, 12.83386738442]}, {"species": [{"element": "Tc", "occu": 1}], "abc": [0.992483999999999, 0.133873, 0.449206999999999], "properties": {"magmom": -0.0}, "label": "Tc", "xyz": [13.050495665783988, 1.7718440958529997, 6.496350776739986]}, {"species": [{"element": "Tc", "occu": 1}], "abc": [0.007515999999999001, 0.366127, 0.949206999999999], "properties": {"magmom": -0.0}, "label": "Tc", "xyz": [0.09883033421598686, 4.845786404147, 13.727260776739985]}, {"species": [{"element": "Tc", "occu": 1}], "abc": [0.507516, 0.633873, 0.550793], "properties": {"magmom": -0.0}, "label": "Tc", "xyz": [6.673493334215999, 8.389474595853, 7.9654692232599995]}, {"species": [{"element": "Tc", "occu": 1}], "abc": [0.492484, 0.866127, 0.050793], "properties": {"magmom": -0.0}, "label": "Tc", "xyz": [6.475832665784, 11.463416904147, 0.7345592232599999]}, {"species": [{"element": "Tc", "occu": 1}], "abc": [0.007515999999999001, 0.866127, 0.550793], "properties": {"magmom": -0.0}, "label": "Tc", "xyz": [0.09883033421598686, 11.463416904147, 7.9654692232599995]}, {"species": [{"element": "Tc", "occu": 1}], "abc": [0.992483999999999, 0.633873, 0.050793], "properties": {"magmom": -0.0}, "label": "Tc", "xyz": [13.050495665783988, 8.389474595853, 0.7345592232599999]}, {"species": [{"element": "Tc", "occu": 1}], "abc": [0.492484, 0.366127, 0.449206999999999], "properties": {"magmom": -0.0}, "label": "Tc", "xyz": [6.475832665784, 4.845786404147, 6.496350776739986]}, {"species": [{"element": "Tc", "occu": 1}], "abc": [0.507516, 0.133873, 0.949206999999999], "properties": {"magmom": -0.0}, "label": "Tc", "xyz": [6.673493334215999, 1.7718440958529997, 13.727260776739985]}, {"species": [{"element": "Te", "occu": 1}], "abc": [0.800528, 0.151524, 0.516027999999999], "properties": {"magmom": 0.0}, "label": "Te", "xyz": [10.526403644128001, 2.0054596877639996, 7.462704050959986]}, {"species": [{"element": "Te", "occu": 1}], "abc": [0.199471999999999, 0.348476, 0.016028], "properties": {"magmom": 0.0}, "label": "Te", "xyz": [2.622922355871987, 4.612170812236, 0.23179405096]}, {"species": [{"element": "Te", "occu": 1}], "abc": [0.699472, 0.651524, 0.483971999999999], "properties": {"magmom": 0.0}, "label": "Te", "xyz": [9.197585355872, 8.623090187764, 6.999115949039986]}, {"species": [{"element": "Te", "occu": 1}], "abc": [0.300527999999999, 0.848476, 0.983972], "properties": {"magmom": 0.0}, "label": "Te", "xyz": [3.951740644127987, 11.229801312235999, 14.230025949039998]}, {"species": [{"element": "Te", "occu": 1}], "abc": [0.199471999999999, 0.848476, 0.483971999999999], "properties": {"magmom": 0.0}, "label": "Te", "xyz": [2.622922355871987, 11.229801312235999, 6.999115949039986]}, {"species": [{"element": "Te", "occu": 1}], "abc": [0.800528, 0.651524, 0.983972], "properties": {"magmom": 0.0}, "label": "Te", "xyz": [10.526403644128001, 8.623090187764, 14.230025949039998]}, {"species": [{"element": "Te", "occu": 1}], "abc": [0.300527999999999, 0.348476, 0.516027999999999], "properties": {"magmom": 0.0}, "label": "Te", "xyz": [3.951740644127987, 4.612170812236, 7.462704050959986]}, {"species": [{"element": "Te", "occu": 1}], "abc": [0.699472, 0.151524, 0.016028], "properties": {"magmom": 0.0}, "label": "Te", "xyz": [9.197585355872, 2.0054596877639996, 0.23179405096]}, {"species": [{"element": "Te", "occu": 1}], "abc": [0.919176999999999, 0.056511, 0.28940899999999903], "properties": {"magmom": 0.0}, "label": "Te", "xyz": [12.086558024701988, 0.7479378343709999, 4.185380864379986]}, {"species": [{"element": "Te", "occu": 1}], "abc": [0.080822999999999, 0.443488999999999, 0.789408999999999], "properties": {"magmom": 0.0}, "label": "Te", "xyz": [1.062767975297987, 5.869692665628987, 11.416290864379986]}, {"species": [{"element": "Te", "occu": 1}], "abc": [0.580823, 0.556511, 0.710591], "properties": {"magmom": 0.0}, "label": "Te", "xyz": [7.637430975298, 7.365568334370999, 10.276439135619999]}, {"species": [{"element": "Te", "occu": 1}], "abc": [0.419176999999999, 0.943488999999999, 0.210591], "properties": {"magmom": 0.0}, "label": "Te", "xyz": [5.511895024701987, 12.487323165628986, 3.04552913562]}, {"species": [{"element": "Te", "occu": 1}], "abc": [0.080822999999999, 0.943488999999999, 0.710591], "properties": {"magmom": 0.0}, "label": "Te", "xyz": [1.062767975297987, 12.487323165628986, 10.276439135619999]}, {"species": [{"element": "Te", "occu": 1}], "abc": [0.919176999999999, 0.556511, 0.210591], "properties": {"magmom": 0.0}, "label": "Te", "xyz": [12.086558024701988, 7.365568334370999, 3.04552913562]}, {"species": [{"element": "Te", "occu": 1}], "abc": [0.419176999999999, 0.443488999999999, 0.28940899999999903], "properties": {"magmom": 0.0}, "label": "Te", "xyz": [5.511895024701987, 5.869692665628987, 4.185380864379986]}, {"species": [{"element": "Te", "occu": 1}], "abc": [0.580823, 0.056511, 0.789408999999999], "properties": {"magmom": 0.0}, "label": "Te", "xyz": [7.637430975298, 0.7479378343709999, 11.416290864379986]}, {"species": [{"element": "Te", "occu": 1}], "abc": [0.183388, 0.114521, 0.385069], "properties": {"magmom": 0.0}, "label": "Te", "xyz": [2.411428596488, 1.5157153249809998, 5.56879856558]}, {"species": [{"element": "Te", "occu": 1}], "abc": [0.816612, 0.385478999999999, 0.885069], "properties": {"magmom": 0.0}, "label": "Te", "xyz": [10.737897403512001, 5.101915175018987, 12.79970856558]}, {"species": [{"element": "Te", "occu": 1}], "abc": [0.316612, 0.614521, 0.614931], "properties": {"magmom": 0.0}, "label": "Te", "xyz": [4.163234403512, 8.133345824981, 8.89302143442]}, {"species": [{"element": "Te", "occu": 1}], "abc": [0.683388, 0.885478999999999, 0.114930999999999], "properties": {"magmom": 0.0}, "label": "Te", "xyz": [8.986091596488, 11.719545675018987, 1.6621114344199857]}, {"species": [{"element": "Te", "occu": 1}], "abc": [0.816612, 0.885478999999999, 0.614931], "properties": {"magmom": 0.0}, "label": "Te", "xyz": [10.737897403512001, 11.719545675018987, 8.89302143442]}, {"species": [{"element": "Te", "occu": 1}], "abc": [0.183388, 0.614521, 0.114930999999999], "properties": {"magmom": 0.0}, "label": "Te", "xyz": [2.411428596488, 8.133345824981, 1.6621114344199857]}, {"species": [{"element": "Te", "occu": 1}], "abc": [0.683388, 0.385478999999999, 0.385069], "properties": {"magmom": 0.0}, "label": "Te", "xyz": [8.986091596488, 5.101915175018987, 5.56879856558]}, {"species": [{"element": "Te", "occu": 1}], "abc": [0.316612, 0.114521, 0.885069], "properties": {"magmom": 0.0}, "label": "Te", "xyz": [4.163234403512, 1.5157153249809998, 12.79970856558]}, {"species": [{"element": "Te", "occu": 1}], "abc": [0.063986, 0.210052, 0.608256999999999], "properties": {"magmom": 0.0}, "label": "Te", "xyz": [0.841372773436, 2.7800930435719997, 8.796503247739986]}, {"species": [{"element": "Te", "occu": 1}], "abc": [0.936014, 0.289948, 0.108256999999999], "properties": {"magmom": 0.0}, "label": "Te", "xyz": [12.307953226564, 3.8375374564279996, 1.5655932477399856]}, {"species": [{"element": "Te", "occu": 1}], "abc": [0.436013999999999, 0.710052, 0.391743], "properties": {"magmom": 0.0}, "label": "Te", "xyz": [5.733290226563987, 9.397723543571999, 5.66531675226]}, {"species": [{"element": "Te", "occu": 1}], "abc": [0.563986, 0.789948, 0.891743], "properties": {"magmom": 0.0}, "label": "Te", "xyz": [7.416035773436, 10.455167956428, 12.896226752259999]}, {"species": [{"element": "Te", "occu": 1}], "abc": [0.936014, 0.789948, 0.391743], "properties": {"magmom": 0.0}, "label": "Te", "xyz": [12.307953226564, 10.455167956428, 5.66531675226]}, {"species": [{"element": "Te", "occu": 1}], "abc": [0.063986, 0.710052, 0.891743], "properties": {"magmom": 0.0}, "label": "Te", "xyz": [0.841372773436, 9.397723543571999, 12.896226752259999]}, {"species": [{"element": "Te", "occu": 1}], "abc": [0.563986, 0.289948, 0.608256999999999], "properties": {"magmom": 0.0}, "label": "Te", "xyz": [7.416035773436, 3.8375374564279996, 8.796503247739986]}, {"species": [{"element": "Te", "occu": 1}], "abc": [0.436013999999999, 0.210052, 0.108256999999999], "properties": {"magmom": 0.0}, "label": "Te", "xyz": [5.733290226563987, 2.7800930435719997, 1.5655932477399856]}, {"species": [{"element": "Te", "occu": 1}], "abc": [0.677288999999999, 0.927076, 0.380028], "properties": {"magmom": 0.0}, "label": "Te", "xyz": [8.905893857213988, 12.270092826836, 5.49589653096]}, {"species": [{"element": "Te", "occu": 1}], "abc": [0.322710999999999, 0.572924, 0.880027999999999], "properties": {"magmom": 0.0}, "label": "Te", "xyz": [4.243432142785987, 7.582798673164, 12.726806530959985]}, {"species": [{"element": "Te", "occu": 1}], "abc": [0.822711, 0.427075999999999, 0.619972], "properties": {"magmom": 0.0}, "label": "Te", "xyz": [10.818095142786, 5.652462326835987, 8.96592346904]}, {"species": [{"element": "Te", "occu": 1}], "abc": [0.177289, 0.072924, 0.119972], "properties": {"magmom": 0.0}, "label": "Te", "xyz": [2.331230857214, 0.965168173164, 1.7350134690399999]}, {"species": [{"element": "Te", "occu": 1}], "abc": [0.322710999999999, 0.072924, 0.619972], "properties": {"magmom": 0.0}, "label": "Te", "xyz": [4.243432142785987, 0.965168173164, 8.96592346904]}, {"species": [{"element": "Te", "occu": 1}], "abc": [0.677288999999999, 0.427075999999999, 0.119972], "properties": {"magmom": 0.0}, "label": "Te", "xyz": [8.905893857213988, 5.652462326835987, 1.7350134690399999]}, {"species": [{"element": "Te", "occu": 1}], "abc": [0.177289, 0.572924, 0.380028], "properties": {"magmom": 0.0}, "label": "Te", "xyz": [2.331230857214, 7.582798673164, 5.49589653096]}, {"species": [{"element": "Te", "occu": 1}], "abc": [0.822711, 0.927076, 0.880027999999999], "properties": {"magmom": 0.0}, "label": "Te", "xyz": [10.818095142786, 12.270092826836, 12.726806530959985]}, {"species": [{"element": "Te", "occu": 1}], "abc": [0.5, 0.0, 0.5], "properties": {"magmom": -0.0}, "label": "Te", "xyz": [6.574663, 0.0, 7.23091]}, {"species": [{"element": "Te", "occu": 1}], "abc": [0.5, 0.5, 0.0], "properties": {"magmom": -0.0}, "label": "Te", "xyz": [6.574663, 6.6176305, 0.0]}, {"species": [{"element": "Te", "occu": 1}], "abc": [0.0, 0.5, 0.5], "properties": {"magmom": -0.0}, "label": "Te", "xyz": [0.0, 6.6176305, 7.23091]}, {"species": [{"element": "Te", "occu": 1}], "abc": [0.0, 0.0, 0.0], "properties": {"magmom": -0.0}, "label": "Te", "xyz": [0.0, 0.0, 0.0]}, {"species": [{"element": "Te", "occu": 1}], "abc": [0.460694999999999, 0.177784, 0.374249], "properties": {"magmom": 0.0}, "label": "Te", "xyz": [6.057828741569987, 2.353017641624, 5.41232167318]}, {"species": [{"element": "Te", "occu": 1}], "abc": [0.539304999999999, 0.322216, 0.874248999999999], "properties": {"magmom": 0.0}, "label": "Te", "xyz": [7.091497258429987, 4.264612858376, 12.643231673179987]}, {"species": [{"element": "Te", "occu": 1}], "abc": [0.039305, 0.677783999999999, 0.625751], "properties": {"magmom": 0.0}, "label": "Te", "xyz": [0.51683425843, 8.970648141623988, 9.049498326819998]}, {"species": [{"element": "Te", "occu": 1}], "abc": [0.960695, 0.822216, 0.125751], "properties": {"magmom": 0.0}, "label": "Te", "xyz": [12.63249174157, 10.882243358375998, 1.81858832682]}, {"species": [{"element": "Te", "occu": 1}], "abc": [0.539304999999999, 0.822216, 0.625751], "properties": {"magmom": 0.0}, "label": "Te", "xyz": [7.091497258429987, 10.882243358375998, 9.049498326819998]}, {"species": [{"element": "Te", "occu": 1}], "abc": [0.460694999999999, 0.677783999999999, 0.125751], "properties": {"magmom": 0.0}, "label": "Te", "xyz": [6.057828741569987, 8.970648141623988, 1.81858832682]}, {"species": [{"element": "Te", "occu": 1}], "abc": [0.960695, 0.322216, 0.374249], "properties": {"magmom": 0.0}, "label": "Te", "xyz": [12.63249174157, 4.264612858376, 5.41232167318]}, {"species": [{"element": "Te", "occu": 1}], "abc": [0.039305, 0.177784, 0.874248999999999], "properties": {"magmom": 0.0}, "label": "Te", "xyz": [0.51683425843, 2.353017641624, 12.643231673179987]}, {"species": [{"element": "Te", "occu": 1}], "abc": [0.641008, 0.111706, 0.275146], "properties": {"magmom": 0.0}, "label": "Te", "xyz": [8.428823160608001, 1.478458065266, 3.97911192572]}, {"species": [{"element": "Te", "occu": 1}], "abc": [0.358992, 0.388294, 0.775146], "properties": {"magmom": 0.0}, "label": "Te", "xyz": [4.720502839392, 5.139172434733999, 11.21002192572]}, {"species": [{"element": "Te", "occu": 1}], "abc": [0.858992, 0.611706, 0.724854], "properties": {"magmom": 0.0}, "label": "Te", "xyz": [11.295165839392, 8.096088565266, 10.48270807428]}, {"species": [{"element": "Te", "occu": 1}], "abc": [0.141008, 0.888293999999999, 0.224854], "properties": {"magmom": 0.0}, "label": "Te", "xyz": [1.854160160608, 11.756802934733987, 3.25179807428]}, {"species": [{"element": "Te", "occu": 1}], "abc": [0.358992, 0.888293999999999, 0.724854], "properties": {"magmom": 0.0}, "label": "Te", "xyz": [4.720502839392, 11.756802934733987, 10.48270807428]}, {"species": [{"element": "Te", "occu": 1}], "abc": [0.641008, 0.611706, 0.224854], "properties": {"magmom": 0.0}, "label": "Te", "xyz": [8.428823160608001, 8.096088565266, 3.25179807428]}, {"species": [{"element": "Te", "occu": 1}], "abc": [0.141008, 0.388294, 0.275146], "properties": {"magmom": 0.0}, "label": "Te", "xyz": [1.854160160608, 5.139172434733999, 3.97911192572]}, {"species": [{"element": "Te", "occu": 1}], "abc": [0.858992, 0.111706, 0.775146], "properties": {"magmom": 0.0}, "label": "Te", "xyz": [11.295165839392, 1.478458065266, 11.21002192572]}]}, "task_ids": null, "uncorrected_energy_per_atom": null, "energy_per_atom": -5.778171653214286, "formation_energy_per_atom": -0.572770602261904, "energy_above_hull": 0.0, "is_stable": true, "equilibrium_reaction_energy_per_atom": null, "decomposes_to": null, "xas": null, "grain_boundaries": null, "band_gap": 0.525999999999999, "cbm": null, "vbm": null, "efermi": 5.52434057, "is_gap_direct": null, "is_metal": null, "es_source_calc_id": null, "bandstructure": null, "dos": null, "dos_energy_up": null, "dos_energy_down": null, "is_magnetic": null, "ordering": null, "total_magnetization": 0.0021704, "total_magnetization_normalized_vol": null, "total_magnetization_normalized_formula_units": null, "num_magnetic_sites": null, "num_unique_magnetic_sites": null, "types_of_magnetic_species": null, "bulk_modulus": null, "shear_modulus": null, "universal_anisotropy": null, "homogeneous_poisson": null, "e_total": null, "e_ionic": null, "e_electronic": null, "n": null, "e_ij_max": null, "weighted_surface_energy_EV_PER_ANG2": null, "weighted_surface_energy": null, "weighted_work_function": null, "surface_anisotropy": null, "shape_factor": null, "has_reconstructed": null, "possible_species": null, "has_props": null, "theoretical": null, "database_IDs": null, "fields_not_requested": ["builder_meta", "nsites", "elements", "nelements", "composition", "composition_reduced", "chemsys", "symmetry", "property_name", "deprecated", "deprecation_reasons", "last_updated", "origins", "warnings", "task_ids", "uncorrected_energy_per_atom", "equilibrium_reaction_energy_per_atom", "decomposes_to", "xas", "grain_boundaries", "cbm", "vbm", "is_gap_direct", "is_metal", "es_source_calc_id", "bandstructure", "dos", "dos_energy_up", "dos_energy_down", "is_magnetic", "ordering", "total_magnetization_normalized_vol", "total_magnetization_normalized_formula_units", "num_magnetic_sites", "num_unique_magnetic_sites", "types_of_magnetic_species", "bulk_modulus", "shear_modulus", "universal_anisotropy", "homogeneous_poisson", "e_total", "e_ionic", "e_electronic", "n", "e_ij_max", "weighted_surface_energy_EV_PER_ANG2", "weighted_surface_energy", "weighted_work_function", "surface_anisotropy", "shape_factor", "has_reconstructed", "possible_species", "has_props", "theoretical", "database_IDs"]}