{"builder_meta": null, "nsites": null, "elements": null, "nelements": null, "composition": null, "composition_reduced": null, "formula_pretty": "Tc3B", "formula_anonymous": "AB3", "chemsys": null, "volume": 96.2767376581668, "density": 10.51449365113542, "density_atomic": 12.03459220727085, "symmetry": null, "property_name": null, "material_id": "mp-1087495", "deprecated": null, "deprecation_reasons": null, "last_updated": null, "origins": null, "warnings": null, "structure": {"@module": "pymatgen.core.structure", "@class": "Structure", "charge": 0, "lattice": {"matrix": [[2.9100328600000003, 0.0, -0.0], [-1.45501542, 4.59592034, -0.0], [0.0, -0.0, 7.1986487]], "pbc": [true, true, true], "a": 2.9100328600000003, "b": 4.8207420221438415, "c": 7.1986487, "alpha": 90.0, "beta": 90.0, "gamma": 107.56718703439837, "volume": 96.27673765816681}, "properties": {}, "sites": [{"species": [{"element": "Tc", "occu": 1}], "abc": [0.13511058, 0.27022017, 0.43932582000000003], "properties": {"magmom": 0.0}, "label": "Tc", "xyz": [1.713388637469837e-06, 1.2419103755812577, 3.162552243019434]}, {"species": [{"element": "Tc", "occu": 1}], "abc": [0.86488942, 0.72977983, 0.56067418], "properties": {"magmom": 0.0}, "label": "Tc", "xyz": [1.4550157266113626, 3.354009964418742, 4.036096456980566]}, {"species": [{"element": "Tc", "occu": 1}], "abc": [0.13511058, 0.27022017, 0.06067418], "properties": {"magmom": 0.0}, "label": "Tc", "xyz": [1.713388637469837e-06, 1.2419103755812577, 0.436772106980566]}, {"species": [{"element": "Tc", "occu": 1}], "abc": [0.86488942, 0.72977983, 0.93932582], "properties": {"magmom": 0.0}, "label": "Tc", "xyz": [1.4550157266113626, 3.354009964418742, 6.761876593019434]}, {"species": [{"element": "Tc", "occu": 1}], "abc": [0.42489856000000004, 0.8497971200000001, 0.25], "properties": {"magmom": 0.0}, "label": "Tc", "xyz": [8.582950912217058e-07, 3.905599868681421, 1.799662175]}, {"species": [{"element": "Tc", "occu": 1}], "abc": [0.57510144, 0.15020288, 0.75], "properties": {"magmom": 0.0}, "label": "Tc", "xyz": [1.4550165817049088, 0.6903204713185793, 5.398986525]}, {"species": [{"element": "B", "occu": 1}], "abc": [0.74333775, 0.48667449, 0.25], "properties": {"magmom": -0.0}, "label": "B", "xyz": [1.4550183911078292, 2.2367171875501266, 1.799662175]}, {"species": [{"element": "B", "occu": 1}], "abc": [0.25666225, 0.51332551, 0.75], "properties": {"magmom": -0.0}, "label": "B", "xyz": [-9.511078292723241e-07, 2.3592031524498736, 5.398986525]}]}, "task_ids": null, "uncorrected_energy_per_atom": null, "energy_per_atom": -21.60888342375, "formation_energy_per_atom": -0.298798336874998, "energy_above_hull": 0.0, "is_stable": true, "equilibrium_reaction_energy_per_atom": null, "decomposes_to": null, "xas": null, "grain_boundaries": null, "band_gap": 0.0, "cbm": null, "vbm": null, "efermi": 8.79495061, "is_gap_direct": null, "is_metal": null, "es_source_calc_id": null, "bandstructure": null, "dos": null, "dos_energy_up": null, "dos_energy_down": null, "is_magnetic": null, "ordering": null, "total_magnetization": 0.0, "total_magnetization_normalized_vol": null, "total_magnetization_normalized_formula_units": null, "num_magnetic_sites": null, "num_unique_magnetic_sites": null, "types_of_magnetic_species": null, "bulk_modulus": null, "shear_modulus": null, "universal_anisotropy": null, "homogeneous_poisson": null, "e_total": null, "e_ionic": null, "e_electronic": null, "n": null, "e_ij_max": null, "weighted_surface_energy_EV_PER_ANG2": null, "weighted_surface_energy": null, "weighted_work_function": null, "surface_anisotropy": null, "shape_factor": null, "has_reconstructed": null, "possible_species": null, "has_props": null, "theoretical": null, "database_IDs": null, "fields_not_requested": ["builder_meta", "nsites", "elements", "nelements", "composition", "composition_reduced", "chemsys", "symmetry", "property_name", "deprecated", "deprecation_reasons", "last_updated", "origins", "warnings", "task_ids", "uncorrected_energy_per_atom", "equilibrium_reaction_energy_per_atom", "decomposes_to", "xas", "grain_boundaries", "cbm", "vbm", "is_gap_direct", "is_metal", "es_source_calc_id", "bandstructure", "dos", "dos_energy_up", "dos_energy_down", "is_magnetic", "ordering", "total_magnetization_normalized_vol", "total_magnetization_normalized_formula_units", "num_magnetic_sites", "num_unique_magnetic_sites", "types_of_magnetic_species", "bulk_modulus", "shear_modulus", "universal_anisotropy", "homogeneous_poisson", "e_total", "e_ionic", "e_electronic", "n", "e_ij_max", "weighted_surface_energy_EV_PER_ANG2", "weighted_surface_energy", "weighted_work_function", "surface_anisotropy", "shape_factor", "has_reconstructed", "possible_species", "has_props", "theoretical", "database_IDs"]}