{
  "builder_meta": null,
  "nsites": null,
  "elements": null,
  "nelements": null,
  "composition": null,
  "composition_reduced": null,
  "formula_pretty": "Tc3Ir",
  "formula_anonymous": "AB3",
  "chemsys": null,
  "volume": 113.5721768842212,
  "density": 14.217959811902192,
  "density_atomic": 14.19652211052765,
  "symmetry": null,
  "property_name": null,
  "material_id": "mp-862770",
  "deprecated": null,
  "deprecation_reasons": null,
  "last_updated": null,
  "origins": null,
  "warnings": null,
  "structure": {
    "@module": "pymatgen.core.structure",
    "@class": "Structure",
    "charge": 0,
    "lattice": {
      "matrix": [
        [5.49572555, -1.73e-6, 0.0],
        [-2.74786303, 4.75944114, -0.0],
        [-0.0, -0.0, 4.34201213]
      ],
      "pbc": [true, true, true],
      "a": 5.495725550000272,
      "b": 5.4957284500569425,
      "c": 4.34201213,
      "alpha": 90.0,
      "beta": 90.0,
      "gamma": 120.0000036499819,
      "volume": 113.5721768842212
    },
    "properties": {},
    "sites": [
      {
        "species": [{ "element": "Tc", "occu": 1 }],
        "abc": [0.83967229, 0.16031227, 0.749999],
        "properties": { "magmom": 0.0 },
        "label": "Tc",
        "xyz": [4.174092297791632, 0.7629953604517261, 3.2565047554878697]
      },
      {
        "species": [{ "element": "Tc", "occu": 1 }],
        "abc": [0.32063679, 0.16030803, 0.749999],
        "properties": { "magmom": 0.0 },
        "label": "Tc",
        "xyz": [1.3216272900238537, 0.7629760783527074, 3.2565047554878697]
      },
      {
        "species": [{ "element": "Tc", "occu": 1 }],
        "abc": [0.83968659, 0.67936881, 0.749999],
        "properties": { "magmom": -0.0 },
        "label": "Tc",
        "xyz": [2.74787460992128, 3.2334144108890426, 3.2565047554878697]
      },
      {
        "species": [{ "element": "Tc", "occu": 1 }],
        "abc": [0.1603269, 0.8396959700000001, 0.249999],
        "properties": { "magmom": 0.0 },
        "label": "Tc",
        "xyz": [-1.4262568717206943, 3.9964832673446686, 1.0854986904878698]
      },
      {
        "species": [{ "element": "Tc", "occu": 1 }],
        "abc": [0.67936734, 0.83969359, 0.249999],
        "properties": { "magmom": 0.0 },
        "label": "Tc",
        "xyz": [1.4262534757845593, 3.996471041934794, 1.0854986904878698]
      },
      {
        "species": [{ "element": "Tc", "occu": 1 }],
        "abc": [0.16031326, 0.32062255, 0.249999],
        "properties": { "magmom": -0.0 },
        "label": "Tc",
        "xyz": [1.0827256466616753e-5, 1.5259838775397672, 1.0854986904878698]
      },
      {
        "species": [{ "element": "Ir", "occu": 1 }],
        "abc": [0.6666617, 0.33332756, 0.249999],
        "properties": { "magmom": -0.0 },
        "label": "Ir",
        "xyz": [2.7478512588923287, 1.5864517488350773, 1.0854986904878698]
      },
      {
        "species": [{ "element": "Ir", "occu": 1 }],
        "abc": [0.33333413, 0.6666732200000001, 0.749999],
        "properties": { "magmom": 0.0 },
        "label": "Ir",
        "xyz": [-1.3799401035186065e-5, 3.172991373536226, 3.2565047554878697]
      }
    ]
  },
  "task_ids": null,
  "uncorrected_energy_per_atom": null,
  "energy_per_atom": -32.817189445,
  "formation_energy_per_atom": -0.25385454499999505,
  "energy_above_hull": 0.0,
  "is_stable": true,
  "equilibrium_reaction_energy_per_atom": null,
  "decomposes_to": null,
  "xas": null,
  "grain_boundaries": null,
  "band_gap": 0.0,
  "cbm": null,
  "vbm": null,
  "efermi": 8.73018564,
  "is_gap_direct": null,
  "is_metal": null,
  "es_source_calc_id": null,
  "bandstructure": null,
  "dos": null,
  "dos_energy_up": null,
  "dos_energy_down": null,
  "is_magnetic": null,
  "ordering": null,
  "total_magnetization": 0.0,
  "total_magnetization_normalized_vol": null,
  "total_magnetization_normalized_formula_units": null,
  "num_magnetic_sites": null,
  "num_unique_magnetic_sites": null,
  "types_of_magnetic_species": null,
  "bulk_modulus": null,
  "shear_modulus": null,
  "universal_anisotropy": null,
  "homogeneous_poisson": null,
  "e_total": null,
  "e_ionic": null,
  "e_electronic": null,
  "n": null,
  "e_ij_max": null,
  "weighted_surface_energy_EV_PER_ANG2": null,
  "weighted_surface_energy": null,
  "weighted_work_function": null,
  "surface_anisotropy": null,
  "shape_factor": null,
  "has_reconstructed": null,
  "possible_species": null,
  "has_props": null,
  "theoretical": null,
  "database_IDs": null,
  "fields_not_requested": [
    "builder_meta",
    "nsites",
    "elements",
    "nelements",
    "composition",
    "composition_reduced",
    "chemsys",
    "symmetry",
    "property_name",
    "deprecated",
    "deprecation_reasons",
    "last_updated",
    "origins",
    "warnings",
    "task_ids",
    "uncorrected_energy_per_atom",
    "equilibrium_reaction_energy_per_atom",
    "decomposes_to",
    "xas",
    "grain_boundaries",
    "cbm",
    "vbm",
    "is_gap_direct",
    "is_metal",
    "es_source_calc_id",
    "bandstructure",
    "dos",
    "dos_energy_up",
    "dos_energy_down",
    "is_magnetic",
    "ordering",
    "total_magnetization_normalized_vol",
    "total_magnetization_normalized_formula_units",
    "num_magnetic_sites",
    "num_unique_magnetic_sites",
    "types_of_magnetic_species",
    "bulk_modulus",
    "shear_modulus",
    "universal_anisotropy",
    "homogeneous_poisson",
    "e_total",
    "e_ionic",
    "e_electronic",
    "n",
    "e_ij_max",
    "weighted_surface_energy_EV_PER_ANG2",
    "weighted_surface_energy",
    "weighted_work_function",
    "surface_anisotropy",
    "shape_factor",
    "has_reconstructed",
    "possible_species",
    "has_props",
    "theoretical",
    "database_IDs"
  ]
}
