{"builder_meta": null, "nsites": null, "elements": null, "nelements": null, "composition": null, "composition_reduced": null, "formula_pretty": "Tc3Mo", "formula_anonymous": "AB3", "chemsys": null, "volume": 59.80868524891407, "density": 10.826364113091092, "density_atomic": 14.952171312228517, "symmetry": null, "property_name": null, "material_id": "mp-1217419", "deprecated": null, "deprecation_reasons": null, "last_updated": null, "origins": null, "warnings": null, "structure": {"@module": "pymatgen.core.structure", "@class": "Structure", "charge": 0, "lattice": {"matrix": [[1.385973, -2.400576, 0.0], [1.385973, 2.400576, 0.0], [0.0, 0.0, 8.98802]], "pbc": [true, true, true], "a": 2.7719462997152378, "b": 2.7719462997152378, "c": 8.98802, "alpha": 90.0, "beta": 90.0, "gamma": 120.00000715345755, "volume": 59.80868524891407}, "properties": {}, "sites": [{"species": [{"element": "Tc", "occu": 1}], "abc": [0.333333, 0.666667, 0.0], "properties": {"magmom": -0.001}, "label": "Tc", "xyz": [1.385973, 0.800193600384, 0.0]}, {"species": [{"element": "Tc", "occu": 1}], "abc": [0.666667, 0.333333, 0.757277], "properties": {"magmom": 0.001}, "label": "Tc", "xyz": [1.385973, -0.800193600384, 6.806420821540001]}, {"species": [{"element": "Tc", "occu": 1}], "abc": [0.666667, 0.333333, 0.242723], "properties": {"magmom": 0.001}, "label": "Tc", "xyz": [1.385973, -0.800193600384, 2.18159917846]}, {"species": [{"element": "Mo", "occu": 1}], "abc": [0.333333, 0.666667, 0.5], "properties": {"magmom": 0.001}, "label": "Mo", "xyz": [1.385973, 0.800193600384, 4.49401]}]}, "task_ids": null, "uncorrected_energy_per_atom": null, "energy_per_atom": -25.88794434375, "formation_energy_per_atom": 0.10354705374999801, "energy_above_hull": 0.10354705374999801, "is_stable": false, "equilibrium_reaction_energy_per_atom": null, "decomposes_to": null, "xas": null, "grain_boundaries": null, "band_gap": 0.0, "cbm": null, "vbm": null, "efermi": 8.11772983, "is_gap_direct": null, "is_metal": null, "es_source_calc_id": null, "bandstructure": null, "dos": null, "dos_energy_up": null, "dos_energy_down": null, "is_magnetic": null, "ordering": null, "total_magnetization": 0.0019919, "total_magnetization_normalized_vol": null, "total_magnetization_normalized_formula_units": null, "num_magnetic_sites": null, "num_unique_magnetic_sites": null, "types_of_magnetic_species": null, "bulk_modulus": null, "shear_modulus": null, "universal_anisotropy": null, "homogeneous_poisson": null, "e_total": null, "e_ionic": null, "e_electronic": null, "n": null, "e_ij_max": null, "weighted_surface_energy_EV_PER_ANG2": null, "weighted_surface_energy": null, "weighted_work_function": null, "surface_anisotropy": null, "shape_factor": null, "has_reconstructed": null, "possible_species": null, "has_props": null, "theoretical": null, "database_IDs": null, "fields_not_requested": ["builder_meta", "nsites", "elements", "nelements", "composition", "composition_reduced", "chemsys", "symmetry", "property_name", "deprecated", "deprecation_reasons", "last_updated", "origins", "warnings", "task_ids", "uncorrected_energy_per_atom", "equilibrium_reaction_energy_per_atom", "decomposes_to", "xas", "grain_boundaries", "cbm", "vbm", "is_gap_direct", "is_metal", "es_source_calc_id", "bandstructure", "dos", "dos_energy_up", "dos_energy_down", "is_magnetic", "ordering", "total_magnetization_normalized_vol", "total_magnetization_normalized_formula_units", "num_magnetic_sites", "num_unique_magnetic_sites", "types_of_magnetic_species", "bulk_modulus", "shear_modulus", "universal_anisotropy", "homogeneous_poisson", "e_total", "e_ionic", "e_electronic", "n", "e_ij_max", "weighted_surface_energy_EV_PER_ANG2", "weighted_surface_energy", "weighted_work_function", "surface_anisotropy", "shape_factor", "has_reconstructed", "possible_species", "has_props", "theoretical", "database_IDs"]}