{"builder_meta": null, "nsites": null, "elements": null, "nelements": null, "composition": null, "composition_reduced": null, "formula_pretty": "Tc3Ni", "formula_anonymous": "AB3", "chemsys": null, "volume": 105.61615483657333, "density": 11.090370978534704, "density_atomic": 13.202019354571666, "symmetry": null, "property_name": null, "material_id": "mp-867357", "deprecated": null, "deprecation_reasons": null, "last_updated": null, "origins": null, "warnings": null, "structure": {"@module": "pymatgen.core.structure", "@class": "Structure", "charge": 0, "lattice": {"matrix": [[5.32623269, 0.0, 0.0], [-2.66311634, 4.61265321, -0.0], [0.0, 0.0, 4.29892048]], "pbc": [true, true, true], "a": 5.32623269, "b": 5.326233028707842, "c": 4.29892048, "alpha": 90.0, "beta": 90.0, "gamma": 119.9999978342738, "volume": 105.61615483657333}, "properties": {}, "sites": [{"species": [{"element": "Tc", "occu": 1}], "abc": [0.8340721, 0.66814519, 0.750000999999999], "properties": {"magmom": -0.0}, "label": "Tc", "xyz": [2.6631137118555444, 3.0819220553995605, 3.2241946589204757]}, {"species": [{"element": "Tc", "occu": 1}], "abc": [0.1659259, 0.8340731, 0.249999], "properties": {"magmom": -0.0}, "label": "Tc", "xyz": [-1.3374737486667834, 3.8472899620896515, 1.0747258210795199]}, {"species": [{"element": "Tc", "occu": 1}], "abc": [0.66814619, 0.8340731, 0.249999], "properties": {"magmom": -0.0}, "label": "Tc", "xyz": [1.3374683775124967, 3.8472899620896515, 1.0747258210795199]}, {"species": [{"element": "Tc", "occu": 1}], "abc": [0.1659259, 0.33185281, 0.249999], "properties": {"magmom": -0.0}, "label": "Tc", "xyz": [-2.6880882445512455e-06, 1.5307219292940202, 1.0747258210795199]}, {"species": [{"element": "Tc", "occu": 1}], "abc": [0.8340731, 0.1659269, 0.750000999999999], "properties": {"magmom": -0.0}, "label": "Tc", "xyz": [4.0005847724340935, 0.765363247910349, 3.2241946589204757]}, {"species": [{"element": "Tc", "occu": 1}], "abc": [0.33185281, 0.1659269, 0.750000999999999], "properties": {"magmom": -0.0}, "label": "Tc", "xyz": [1.325642646254813, 0.765363247910349, 3.2241946589204757]}, {"species": [{"element": "Ni", "occu": 1}], "abc": [0.666665, 0.333331999999999, 0.249999], "properties": {"magmom": -0.0}, "label": "Ni", "xyz": [2.6631110204339725, 1.5375449197957156, 1.0747258210795199]}, {"species": [{"element": "Ni", "occu": 1}], "abc": [0.333333, 0.666666, 0.750000999999999], "properties": {"magmom": -0.0}, "label": "Ni", "xyz": [3.333330056420891e-09, 3.0750990648978602, 3.2241946589204757]}]}, "task_ids": null, "uncorrected_energy_per_atom": null, "energy_per_atom": -22.5843230975, "formation_energy_per_atom": -0.11539726999999901, "energy_above_hull": 0.0, "is_stable": true, "equilibrium_reaction_energy_per_atom": null, "decomposes_to": null, "xas": null, "grain_boundaries": null, "band_gap": 0.0, "cbm": null, "vbm": null, "efermi": 8.6895804, "is_gap_direct": null, "is_metal": null, "es_source_calc_id": null, "bandstructure": null, "dos": null, "dos_energy_up": null, "dos_energy_down": null, "is_magnetic": null, "ordering": null, "total_magnetization": 5e-07, "total_magnetization_normalized_vol": null, "total_magnetization_normalized_formula_units": null, "num_magnetic_sites": null, "num_unique_magnetic_sites": null, "types_of_magnetic_species": null, "bulk_modulus": null, "shear_modulus": null, "universal_anisotropy": null, "homogeneous_poisson": null, "e_total": null, "e_ionic": null, "e_electronic": null, "n": null, "e_ij_max": null, "weighted_surface_energy_EV_PER_ANG2": null, "weighted_surface_energy": null, "weighted_work_function": null, "surface_anisotropy": null, "shape_factor": null, "has_reconstructed": null, "possible_species": null, "has_props": null, "theoretical": null, "database_IDs": null, "fields_not_requested": ["builder_meta", "nsites", "elements", "nelements", "composition", "composition_reduced", "chemsys", "symmetry", "property_name", "deprecated", "deprecation_reasons", "last_updated", "origins", "warnings", "task_ids", "uncorrected_energy_per_atom", "equilibrium_reaction_energy_per_atom", "decomposes_to", "xas", "grain_boundaries", "cbm", "vbm", "is_gap_direct", "is_metal", "es_source_calc_id", "bandstructure", "dos", "dos_energy_up", "dos_energy_down", "is_magnetic", "ordering", "total_magnetization_normalized_vol", "total_magnetization_normalized_formula_units", "num_magnetic_sites", "num_unique_magnetic_sites", "types_of_magnetic_species", "bulk_modulus", "shear_modulus", "universal_anisotropy", "homogeneous_poisson", "e_total", "e_ionic", "e_electronic", "n", "e_ij_max", "weighted_surface_energy_EV_PER_ANG2", "weighted_surface_energy", "weighted_work_function", "surface_anisotropy", "shape_factor", "has_reconstructed", "possible_species", "has_props", "theoretical", "database_IDs"]}