{"builder_meta": null, "nsites": null, "elements": null, "nelements": null, "composition": null, "composition_reduced": null, "formula_pretty": "Tc3Os", "formula_anonymous": "AB3", "chemsys": null, "volume": 113.47862943693549, "density": 14.1715287928566, "density_atomic": 14.184828679616936, "symmetry": null, "property_name": null, "material_id": "mp-862779", "deprecated": null, "deprecation_reasons": null, "last_updated": null, "origins": null, "warnings": null, "structure": {"@module": "pymatgen.core.structure", "@class": "Structure", "charge": 0, "lattice": {"matrix": [[5.48769627, 0.0, -0.0], [-2.74384763, 4.75248322, 0.0], [0.0, -0.0, 4.35114367]], "pbc": [true, true, true], "a": 5.48769627, "b": 5.487695014579272, "c": 4.35114367, "alpha": 90.0, "beta": 90.0, "gamma": 120.00000147939205, "volume": 113.47862943693549}, "properties": {}, "sites": [{"species": [{"element": "Tc", "occu": 1}], "abc": [0.8343324, 0.1656666, 0.749999], "properties": {"magmom": -0.0}, "label": "Tc", "xyz": [4.12399889163999, 0.787327736614452, 3.26335340135633]}, {"species": [{"element": "Tc", "occu": 1}], "abc": [0.33133321, 0.1656666, 0.749999], "properties": {"magmom": -0.0}, "label": "Tc", "xyz": [1.3636921128639685, 0.787327736614452, 3.26335340135633]}, {"species": [{"element": "Tc", "occu": 1}], "abc": [0.8343324, 0.66866479, 0.749999], "properties": {"magmom": -0.0}, "label": "Tc", "xyz": [2.7438485001142, 3.177818194279824, 3.26335340135633]}, {"species": [{"element": "Tc", "occu": 1}], "abc": [0.1656666, 0.8343324, 0.249998], "properties": {"magmom": -0.0}, "label": "Tc", "xyz": [-1.38015299548863, 3.965150730902328, 1.08777721521266]}, {"species": [{"element": "Tc", "occu": 1}], "abc": [0.66866779, 0.8343324, 0.249998], "properties": {"magmom": -0.0}, "label": "Tc", "xyz": [1.380164758679931, 3.965150730902328, 1.08777721521266]}, {"species": [{"element": "Tc", "occu": 1}], "abc": [0.1656666, 0.33133121, 0.249998], "properties": {"magmom": -0.0}, "label": "Tc", "xyz": [5.627580049738512e-06, 1.5746460157872961, 1.08777721521266]}, {"species": [{"element": "Os", "occu": 1}], "abc": [0.666665, 0.333331, 0.249998], "properties": {"magmom": 0.0}, "label": "Os", "xyz": [2.7438455594840194, 1.58414998420582, 1.08777721521266]}, {"species": [{"element": "Os", "occu": 1}], "abc": [0.333333, 0.666666, 0.749999], "properties": {"magmom": 0.0}, "label": "Os", "xyz": [3.366663299253503e-07, 3.1683189783445203, 3.26335340135633]}]}, "task_ids": null, "uncorrected_energy_per_atom": null, "energy_per_atom": -32.78824973375, "formation_energy_per_atom": -0.068445983750002, "energy_above_hull": 0.0, "is_stable": true, "equilibrium_reaction_energy_per_atom": null, "decomposes_to": null, "xas": null, "grain_boundaries": null, "band_gap": 0.0, "cbm": null, "vbm": null, "efermi": 8.31986595, "is_gap_direct": null, "is_metal": null, "es_source_calc_id": null, "bandstructure": null, "dos": null, "dos_energy_up": null, "dos_energy_down": null, "is_magnetic": null, "ordering": null, "total_magnetization": 5e-07, "total_magnetization_normalized_vol": null, "total_magnetization_normalized_formula_units": null, "num_magnetic_sites": null, "num_unique_magnetic_sites": null, "types_of_magnetic_species": null, "bulk_modulus": null, "shear_modulus": null, "universal_anisotropy": null, "homogeneous_poisson": null, "e_total": null, "e_ionic": null, "e_electronic": null, "n": null, "e_ij_max": null, "weighted_surface_energy_EV_PER_ANG2": null, "weighted_surface_energy": null, "weighted_work_function": null, "surface_anisotropy": null, "shape_factor": null, "has_reconstructed": null, "possible_species": null, "has_props": null, "theoretical": null, "database_IDs": null, "fields_not_requested": ["builder_meta", "nsites", "elements", "nelements", "composition", "composition_reduced", "chemsys", "symmetry", "property_name", "deprecated", "deprecation_reasons", "last_updated", "origins", "warnings", "task_ids", "uncorrected_energy_per_atom", "equilibrium_reaction_energy_per_atom", "decomposes_to", "xas", "grain_boundaries", "cbm", "vbm", "is_gap_direct", "is_metal", "es_source_calc_id", "bandstructure", "dos", "dos_energy_up", "dos_energy_down", "is_magnetic", "ordering", "total_magnetization_normalized_vol", "total_magnetization_normalized_formula_units", "num_magnetic_sites", "num_unique_magnetic_sites", "types_of_magnetic_species", "bulk_modulus", "shear_modulus", "universal_anisotropy", "homogeneous_poisson", "e_total", "e_ionic", "e_electronic", "n", "e_ij_max", "weighted_surface_energy_EV_PER_ANG2", "weighted_surface_energy", "weighted_work_function", "surface_anisotropy", "shape_factor", "has_reconstructed", "possible_species", "has_props", "theoretical", "database_IDs"]}