{"builder_meta": null, "nsites": null, "elements": null, "nelements": null, "composition": null, "composition_reduced": null, "formula_pretty": "Tc3Pd", "formula_anonymous": "AB3", "chemsys": null, "volume": 114.4778749655573, "density": 11.616446466149425, "density_atomic": 14.309734370694663, "symmetry": null, "property_name": null, "material_id": "mp-861610", "deprecated": null, "deprecation_reasons": null, "last_updated": null, "origins": null, "warnings": null, "structure": {"@module": "pymatgen.core.structure", "@class": "Structure", "charge": 0, "lattice": {"matrix": [[5.49954363, -0.0, 0.0], [-2.74977232, 4.7627441600000004, -0.0], [0.0, -0.0, 4.37056571]], "pbc": [true, true, true], "a": 5.49954363, "b": 5.499543594286011, "c": 4.37056571, "alpha": 90.0, "beta": 90.0, "gamma": 120.00000628996588, "volume": 114.47787496555732}, "properties": {}, "sites": [{"species": [{"element": "Tc", "occu": 1}], "abc": [0.84245283, 0.15754917000000002, 0.750000999999999], "properties": {"magmom": 0.0}, "label": "Tc", "xyz": [4.199881748096999, 0.7503663893303474, 3.2779286530657057]}, {"species": [{"element": "Tc", "occu": 1}], "abc": [0.31509534, 0.15754917000000002, 0.750000999999999], "properties": {"magmom": 0.0}, "label": "Tc", "xyz": [1.2996562232347095, 0.7503663893303474, 3.2779286530657057]}, {"species": [{"element": "Tc", "occu": 1}], "abc": [0.84245083, 0.68490466, 0.750000999999999], "properties": {"magmom": 0.0}, "label": "Tc", "xyz": [2.7497632198077016, 3.262025669571786, 3.2779286530657057]}, {"species": [{"element": "Tc", "occu": 1}], "abc": [0.15754817000000002, 0.84245083, 0.249999], "properties": {"magmom": 0.0}, "label": "Tc", "xyz": [-1.4501049385533682, 4.012377770669653, 1.09263705693429]}, {"species": [{"element": "Tc", "occu": 1}], "abc": [0.68490366, 0.84245083, 0.249999], "properties": {"magmom": 0.0}, "label": "Tc", "xyz": [1.4501095872216605, 4.012377770669653, 1.09263705693429]}, {"species": [{"element": "Tc", "occu": 1}], "abc": [0.15754817000000002, 0.31509534, 0.249999], "properties": {"magmom": 0.0}, "label": "Tc", "xyz": [2.5906486683657803e-06, 1.5007184904282145, 1.09263705693429]}, {"species": [{"element": "Pd", "occu": 1}], "abc": [0.666667, 0.333333, 0.249999], "properties": {"magmom": 0.0}, "label": "Pd", "xyz": [2.74977439643865, 1.58757979908528, 1.09263705693429]}, {"species": [{"element": "Pd", "occu": 1}], "abc": [0.333333, 0.666667, 0.750000999999999], "properties": {"magmom": 0.0}, "label": "Pd", "xyz": [-3.0864386502127417e-06, 3.1751643609147204, 3.2779286530657057]}]}, "task_ids": null, "uncorrected_energy_per_atom": null, "energy_per_atom": -25.30331047375, "formation_energy_per_atom": -0.08970053374999701, "energy_above_hull": 0.0, "is_stable": true, "equilibrium_reaction_energy_per_atom": null, "decomposes_to": null, "xas": null, "grain_boundaries": null, "band_gap": 0.0, "cbm": null, "vbm": null, "efermi": 7.95700138, "is_gap_direct": null, "is_metal": null, "es_source_calc_id": null, "bandstructure": null, "dos": null, "dos_energy_up": null, "dos_energy_down": null, "is_magnetic": null, "ordering": null, "total_magnetization": 0.0, "total_magnetization_normalized_vol": null, "total_magnetization_normalized_formula_units": null, "num_magnetic_sites": null, "num_unique_magnetic_sites": null, "types_of_magnetic_species": null, "bulk_modulus": null, "shear_modulus": null, "universal_anisotropy": null, "homogeneous_poisson": null, "e_total": null, "e_ionic": null, "e_electronic": null, "n": null, "e_ij_max": null, "weighted_surface_energy_EV_PER_ANG2": null, "weighted_surface_energy": null, "weighted_work_function": null, "surface_anisotropy": null, "shape_factor": null, "has_reconstructed": null, "possible_species": null, "has_props": null, "theoretical": null, "database_IDs": null, "fields_not_requested": ["builder_meta", "nsites", "elements", "nelements", "composition", "composition_reduced", "chemsys", "symmetry", "property_name", "deprecated", "deprecation_reasons", "last_updated", "origins", "warnings", "task_ids", "uncorrected_energy_per_atom", "equilibrium_reaction_energy_per_atom", "decomposes_to", "xas", "grain_boundaries", "cbm", "vbm", "is_gap_direct", "is_metal", "es_source_calc_id", "bandstructure", "dos", "dos_energy_up", "dos_energy_down", "is_magnetic", "ordering", "total_magnetization_normalized_vol", "total_magnetization_normalized_formula_units", "num_magnetic_sites", "num_unique_magnetic_sites", "types_of_magnetic_species", "bulk_modulus", "shear_modulus", "universal_anisotropy", "homogeneous_poisson", "e_total", "e_ionic", "e_electronic", "n", "e_ij_max", "weighted_surface_energy_EV_PER_ANG2", "weighted_surface_energy", "weighted_work_function", "surface_anisotropy", "shape_factor", "has_reconstructed", "possible_species", "has_props", "theoretical", "database_IDs"]}