{"builder_meta": null, "nsites": null, "elements": null, "nelements": null, "composition": null, "composition_reduced": null, "formula_pretty": "Tc3Pt", "formula_anonymous": "AB3", "chemsys": null, "volume": 115.12042094684105, "density": 14.10945307825127, "density_atomic": 14.390052618355131, "symmetry": null, "property_name": null, "material_id": "mp-867281", "deprecated": null, "deprecation_reasons": null, "last_updated": null, "origins": null, "warnings": null, "structure": {"@module": "pymatgen.core.structure", "@class": "Structure", "charge": 0, "lattice": {"matrix": [[5.51387585, -3.2e-06, 0.0], [-2.75693959, 4.77516066, 0.0], [0.0, 0.0, 4.37227574]], "pbc": [true, true, true], "a": 5.513875850000928, "b": 5.5138802337121, "c": 4.37227574, "alpha": 90.0, "beta": 90.0, "gamma": 120.0000269302414, "volume": 115.12042094684105}, "properties": {}, "sites": [{"species": [{"element": "Tc", "occu": 1}], "abc": [0.15749767, 0.31500551, 0.250001], "properties": {"magmom": 0.0}, "label": "Tc", "xyz": [-2.8562542871313212e-05, 1.5042014150426926, 1.09307330727574]}, {"species": [{"element": "Tc", "occu": 1}], "abc": [0.68499416, 0.84249892, 0.250001], "properties": {"magmom": 0.0}, "label": "Tc", "xyz": [1.4542541291347932, 4.0230655068951755, 1.09307330727574]}, {"species": [{"element": "Tc", "occu": 1}], "abc": [0.15750012, 0.8424933800000001, 0.250001], "properties": {"magmom": -0.0}, "label": "Tc", "xyz": [-1.4542672455948125, 4.0230407404860475, 1.09307330727574]}, {"species": [{"element": "Tc", "occu": 1}], "abc": [0.84248859, 0.6849944, 0.750000999999999], "properties": {"magmom": 0.0}, "label": "Tc", "xyz": [2.756889310013255, 3.270955615236816, 3.279211177275736]}, {"species": [{"element": "Tc", "occu": 1}], "abc": [0.31500889, 0.15750582, 0.750000999999999], "properties": {"magmom": 0.0}, "label": "Tc", "xyz": [1.3026858802928925, 0.7521145873565931, 3.279211177275736]}, {"species": [{"element": "Tc", "occu": 1}], "abc": [0.84249059, 0.15749493, 0.750000999999999], "properties": {"magmom": -0.0}, "label": "Tc", "xyz": [4.2111845103119725, 0.7520608979155659, 3.279211177275736]}, {"species": [{"element": "Pt", "occu": 1}], "abc": [0.33334422, 0.6666703700000001, 0.750000999999999], "properties": {"magmom": -0.0}, "label": "Pt", "xyz": [4.870786213850842e-05, 3.1834570573101404, 3.279211177275736]}, {"species": [{"element": "Pt", "occu": 1}], "abc": [0.66667376, 0.33333367, 0.250001], "properties": {"magmom": 0.0}, "label": "Pt", "xyz": [2.7569755535897005, 1.5917196942813903, 1.09307330727574]}]}, "task_ids": null, "uncorrected_energy_per_atom": null, "energy_per_atom": -32.6557264775, "formation_energy_per_atom": -0.310300714999996, "energy_above_hull": 0.0, "is_stable": true, "equilibrium_reaction_energy_per_atom": null, "decomposes_to": null, "xas": null, "grain_boundaries": null, "band_gap": 0.0, "cbm": null, "vbm": null, "efermi": 8.66268101, "is_gap_direct": null, "is_metal": null, "es_source_calc_id": null, "bandstructure": null, "dos": null, "dos_energy_up": null, "dos_energy_down": null, "is_magnetic": null, "ordering": null, "total_magnetization": 0.0, "total_magnetization_normalized_vol": null, "total_magnetization_normalized_formula_units": null, "num_magnetic_sites": null, "num_unique_magnetic_sites": null, "types_of_magnetic_species": null, "bulk_modulus": null, "shear_modulus": null, "universal_anisotropy": null, "homogeneous_poisson": null, "e_total": null, "e_ionic": null, "e_electronic": null, "n": null, "e_ij_max": null, "weighted_surface_energy_EV_PER_ANG2": null, "weighted_surface_energy": null, "weighted_work_function": null, "surface_anisotropy": null, "shape_factor": null, "has_reconstructed": null, "possible_species": null, "has_props": null, "theoretical": null, "database_IDs": null, "fields_not_requested": ["builder_meta", "nsites", "elements", "nelements", "composition", "composition_reduced", "chemsys", "symmetry", "property_name", "deprecated", "deprecation_reasons", "last_updated", "origins", "warnings", "task_ids", "uncorrected_energy_per_atom", "equilibrium_reaction_energy_per_atom", "decomposes_to", "xas", "grain_boundaries", "cbm", "vbm", "is_gap_direct", "is_metal", "es_source_calc_id", "bandstructure", "dos", "dos_energy_up", "dos_energy_down", "is_magnetic", "ordering", "total_magnetization_normalized_vol", "total_magnetization_normalized_formula_units", "num_magnetic_sites", "num_unique_magnetic_sites", "types_of_magnetic_species", "bulk_modulus", "shear_modulus", "universal_anisotropy", "homogeneous_poisson", "e_total", "e_ionic", "e_electronic", "n", "e_ij_max", "weighted_surface_energy_EV_PER_ANG2", "weighted_surface_energy", "weighted_work_function", "surface_anisotropy", "shape_factor", "has_reconstructed", "possible_species", "has_props", "theoretical", "database_IDs"]}