{"builder_meta": null, "nsites": null, "elements": null, "nelements": null, "composition": null, "composition_reduced": null, "formula_pretty": "Tc3P", "formula_anonymous": "AB3", "chemsys": null, "volume": 217.22819995101023, "density": 9.93667723698248, "density_atomic": 13.576762496938139, "symmetry": null, "property_name": null, "material_id": "mp-17449", "deprecated": null, "deprecation_reasons": null, "last_updated": null, "origins": null, "warnings": null, "structure": {"@module": "pymatgen.core.structure", "@class": "Structure", "charge": 0, "lattice": {"matrix": [[4.56082197, -0.0, 1.59631576], [2.28033914, 6.70485737, 0.79836185], [0.06542388, -0.00021805000000000001, 7.12658121]], "pbc": [true, true, true], "a": 4.832113517671027, "b": 7.126881547282421, "c": 7.126881511176198, "alpha": 83.40070536502287, "beta": 70.18366416619878, "gamma": 70.18366801570943, "volume": 217.22819995101023}, "properties": {}, "sites": [{"species": [{"element": "Tc", "occu": 1}], "abc": [0.34413183, 0.6537307800000001, 0.64910751], "properties": {"magmom": 0.0}, "label": "Tc", "xyz": [3.102719027338374, 4.383030100386294, 5.697174162705271]}, {"species": [{"element": "Tc", "occu": 1}], "abc": [0.00676066, 0.64910751, 0.34626922], "properties": {"magmom": 0.0}, "label": "Tc", "xyz": [1.5336737036776154, 4.352097768342428, 2.9967305374918514]}, {"species": [{"element": "Tc", "occu": 1}], "abc": [0.00213639, 0.35089249, 0.6537307800000001], "properties": {"magmom": 0.0}, "label": "Tc", "xyz": [0.8526671774305734, 2.3525415516575725, 4.942415023640658]}, {"species": [{"element": "Tc", "occu": 1}], "abc": [0.64697012, 0.34626922, 0.35089249], "properties": {"magmom": 0.0}, "label": "Tc", "xyz": [3.7632835407314684, 2.321609219613707, 3.8098805598464613]}, {"species": [{"element": "Tc", "occu": 1}], "abc": [0.90582664, 0.00497139, 0.59175322], "properties": {"magmom": -0.0}, "label": "Tc", "xyz": [4.181365287575379, 0.0332034290910233, 5.6671316879863145]}, {"species": [{"element": "Tc", "occu": 1}], "abc": [0.50242014, 0.59175322, 0.99502861], "properties": {"magmom": -0.0}, "label": "Tc", "xyz": [3.7059454738467137, 3.9674039723498207, 8.365606578524481]}, {"species": [{"element": "Tc", "occu": 1}], "abc": [0.08920198, 0.40824678000000003, 0.00497139], "properties": {"magmom": -0.0}, "label": "Tc", "xyz": [1.3381007089872632, 2.7372353476501794, 0.5037521955961297]}, {"species": [{"element": "Tc", "occu": 1}], "abc": [0.50255224, 0.99502861, 0.40824678000000003], "properties": {"magmom": -0.0}, "label": "Tc", "xyz": [4.587763070412614, 6.671435890908977, 4.5060287742088345]}, {"species": [{"element": "Tc", "occu": 1}], "abc": [0.09310665, 0.00105577, 0.19720093], "properties": {"magmom": 0.0}, "label": "Tc", "xyz": [0.43995201850714666, 0.007035787602738399, 1.554838941578704]}, {"species": [{"element": "Tc", "occu": 1}], "abc": [0.70969142, 0.19720093, 0.99894423], "properties": {"magmom": 0.0}, "label": "Tc", "xyz": [3.7518160268101104, 1.3219862890920027, 8.409386477135218]}, {"species": [{"element": "Tc", "occu": 1}], "abc": [0.90583758, 0.8027990700000001, 0.00105577], "properties": {"magmom": 0.0}, "label": "Tc", "xyz": [5.96208714956202, 5.382653030907997, 2.094450986301822]}, {"species": [{"element": "Tc", "occu": 1}], "abc": [0.29136535, 0.99894423, 0.8027990700000001], "properties": {"magmom": 0.0}, "label": "Tc", "xyz": [3.659319345942693, 6.697603532397262, 6.983842831300017]}, {"species": [{"element": "P", "occu": 1}], "abc": [0.20914463, 0.28846639, 0.29387465], "properties": {"magmom": 0.0}, "label": "P", "xyz": [1.6308990429396677, 1.934061921621362, 2.658482988556917]}, {"species": [{"element": "P", "occu": 1}], "abc": [0.49698073000000004, 0.29387465, 0.71153361], "properties": {"magmom": 0.0}, "label": "P", "xyz": [2.983325788216046, 1.97023246300501, 6.098758536266876]}, {"species": [{"element": "P", "occu": 1}], "abc": [0.50239099, 0.70612535, 0.28846639], "properties": {"magmom": 0.0}, "label": "P", "xyz": [3.920393728556643, 4.7344068569949895, 3.421497350467432]}, {"species": [{"element": "P", "occu": 1}], "abc": [0.79148566, 0.71153361, 0.70612535], "properties": {"magmom": 0.0}, "label": "P", "xyz": [5.278560587539804, 4.770577398378639, 6.863781973303454]}]}, "task_ids": null, "uncorrected_energy_per_atom": null, "energy_per_atom": -22.09791669625, "formation_energy_per_atom": -0.37390108074404405, "energy_above_hull": 0.0, "is_stable": true, "equilibrium_reaction_energy_per_atom": null, "decomposes_to": null, "xas": null, "grain_boundaries": null, "band_gap": 0.0, "cbm": null, "vbm": null, "efermi": 9.63064984, "is_gap_direct": null, "is_metal": null, "es_source_calc_id": null, "bandstructure": null, "dos": null, "dos_energy_up": null, "dos_energy_down": null, "is_magnetic": null, "ordering": null, "total_magnetization": 0.0, "total_magnetization_normalized_vol": null, "total_magnetization_normalized_formula_units": null, "num_magnetic_sites": null, "num_unique_magnetic_sites": null, "types_of_magnetic_species": null, "bulk_modulus": null, "shear_modulus": null, "universal_anisotropy": null, "homogeneous_poisson": null, "e_total": null, "e_ionic": null, "e_electronic": null, "n": null, "e_ij_max": null, "weighted_surface_energy_EV_PER_ANG2": null, "weighted_surface_energy": null, "weighted_work_function": null, "surface_anisotropy": null, "shape_factor": null, "has_reconstructed": null, "possible_species": null, "has_props": null, "theoretical": null, "database_IDs": null, "fields_not_requested": ["builder_meta", "nsites", "elements", "nelements", "composition", "composition_reduced", "chemsys", "symmetry", "property_name", "deprecated", "deprecation_reasons", "last_updated", "origins", "warnings", "task_ids", "uncorrected_energy_per_atom", "equilibrium_reaction_energy_per_atom", "decomposes_to", "xas", "grain_boundaries", "cbm", "vbm", "is_gap_direct", "is_metal", "es_source_calc_id", "bandstructure", "dos", "dos_energy_up", "dos_energy_down", "is_magnetic", "ordering", "total_magnetization_normalized_vol", "total_magnetization_normalized_formula_units", "num_magnetic_sites", "num_unique_magnetic_sites", "types_of_magnetic_species", "bulk_modulus", "shear_modulus", "universal_anisotropy", "homogeneous_poisson", "e_total", "e_ionic", "e_electronic", "n", "e_ij_max", "weighted_surface_energy_EV_PER_ANG2", "weighted_surface_energy", "weighted_work_function", "surface_anisotropy", "shape_factor", "has_reconstructed", "possible_species", "has_props", "theoretical", "database_IDs"]}