{
  "builder_meta": null,
  "nsites": null,
  "elements": null,
  "nelements": null,
  "composition": null,
  "composition_reduced": null,
  "formula_pretty": "Tc3Ru",
  "formula_anonymous": "AB3",
  "chemsys": null,
  "volume": 112.42738910214258,
  "density": 11.670273129720124,
  "density_atomic": 14.053423637767823,
  "symmetry": null,
  "property_name": null,
  "material_id": "mp-861630",
  "deprecated": null,
  "deprecation_reasons": null,
  "last_updated": null,
  "origins": null,
  "warnings": null,
  "structure": {
    "@module": "pymatgen.core.structure",
    "@class": "Structure",
    "charge": 0,
    "lattice": {
      "matrix": [
        [5.47553108, -0.00031503, -1.055e-5],
        [-2.73803807, 4.74177564, 7.53e-6],
        [1.578e-5, -7.219999999999999e-6, 4.33031315]
      ],
      "pbc": [true, true, true],
      "a": 5.475531089072654,
      "b": 5.47551720780087,
      "c": 4.330313150034771,
      "alpha": 90.00010834066762,
      "beta": 89.99990159905711,
      "gamma": 120.00667324853657,
      "volume": 112.4273891021426
    },
    "properties": {},
    "sites": [
      {
        "species": [{ "element": "Tc", "occu": 1 }],
        "abc": [0.16412613, 0.32813713, 0.24997995],
        "properties": { "magmom": 0.0 },
        "label": "Tc",
        "xyz": [0.00022971641819227043, 1.5558991401035402, 1.08249220406326]
      },
      {
        "species": [{ "element": "Tc", "occu": 1 }],
        "abc": [0.67186087, 0.83587287, 0.24997995],
        "properties": { "magmom": 0.0 },
        "label": "Tc",
        "xyz": [1.39014728006429, 3.9633081519177717, 1.082490670711875]
      },
      {
        "species": [{ "element": "Tc", "occu": 1 }],
        "abc": [0.16414126, 0.83585474, 0.24999655],
        "properties": { "magmom": -0.0 },
        "label": "Tc",
        "xyz": [-1.3898375835240317, 3.963382130314305, 1.082567910215532]
      },
      {
        "species": [{ "element": "Tc", "occu": 1 }],
        "abc": [0.83587352, 0.67186217, 0.75001924],
        "properties": { "magmom": -0.0 },
        "label": "Tc",
        "xyz": [2.7372790737597974, 3.1855509307696206, 3.24781441838151]
      },
      {
        "species": [{ "element": "Tc", "occu": 1 }],
        "abc": [0.32814083, 0.16412748, 0.75001924],
        "properties": { "magmom": -0.0 },
        "label": "Tc",
        "xyz": [1.3473698600124397, 0.7781468971739995, 3.247815951719174]
      },
      {
        "species": [{ "element": "Tc", "occu": 1 }],
        "abc": [0.83585913, 0.16414487, 0.75000278],
        "properties": { "magmom": -0.0 },
        "label": "Tc",
        "xyz": [4.127349576805428, 0.7780694102751714, 3.2477393184676067]
      },
      {
        "species": [{ "element": "Ru", "occu": 1 }],
        "abc": [0.33330212, 0.66669988, 0.74999412],
        "properties": { "magmom": -0.0 },
        "label": "Ru",
        "xyz": [-0.00043170070732864534, 3.161230835050514, 3.2477109041714085]
      },
      {
        "species": [{ "element": "Ru", "occu": 1 }],
        "abc": [0.66669912, 0.33329988, 0.25000516],
        "properties": { "magmom": 0.0 },
        "label": "Ru",
        "xyz": [2.7379479374836424, 1.5802214165378945, 1.0825961079882345]
      }
    ]
  },
  "task_ids": null,
  "uncorrected_energy_per_atom": null,
  "energy_per_atom": -25.8865440425,
  "formation_energy_per_atom": -0.056913681249998,
  "energy_above_hull": 0.0,
  "is_stable": true,
  "equilibrium_reaction_energy_per_atom": null,
  "decomposes_to": null,
  "xas": null,
  "grain_boundaries": null,
  "band_gap": 0.0,
  "cbm": null,
  "vbm": null,
  "efermi": 8.23704597,
  "is_gap_direct": null,
  "is_metal": null,
  "es_source_calc_id": null,
  "bandstructure": null,
  "dos": null,
  "dos_energy_up": null,
  "dos_energy_down": null,
  "is_magnetic": null,
  "ordering": null,
  "total_magnetization": 0.0,
  "total_magnetization_normalized_vol": null,
  "total_magnetization_normalized_formula_units": null,
  "num_magnetic_sites": null,
  "num_unique_magnetic_sites": null,
  "types_of_magnetic_species": null,
  "bulk_modulus": null,
  "shear_modulus": null,
  "universal_anisotropy": null,
  "homogeneous_poisson": null,
  "e_total": null,
  "e_ionic": null,
  "e_electronic": null,
  "n": null,
  "e_ij_max": null,
  "weighted_surface_energy_EV_PER_ANG2": null,
  "weighted_surface_energy": null,
  "weighted_work_function": null,
  "surface_anisotropy": null,
  "shape_factor": null,
  "has_reconstructed": null,
  "possible_species": null,
  "has_props": null,
  "theoretical": null,
  "database_IDs": null,
  "fields_not_requested": [
    "builder_meta",
    "nsites",
    "elements",
    "nelements",
    "composition",
    "composition_reduced",
    "chemsys",
    "symmetry",
    "property_name",
    "deprecated",
    "deprecation_reasons",
    "last_updated",
    "origins",
    "warnings",
    "task_ids",
    "uncorrected_energy_per_atom",
    "equilibrium_reaction_energy_per_atom",
    "decomposes_to",
    "xas",
    "grain_boundaries",
    "cbm",
    "vbm",
    "is_gap_direct",
    "is_metal",
    "es_source_calc_id",
    "bandstructure",
    "dos",
    "dos_energy_up",
    "dos_energy_down",
    "is_magnetic",
    "ordering",
    "total_magnetization_normalized_vol",
    "total_magnetization_normalized_formula_units",
    "num_magnetic_sites",
    "num_unique_magnetic_sites",
    "types_of_magnetic_species",
    "bulk_modulus",
    "shear_modulus",
    "universal_anisotropy",
    "homogeneous_poisson",
    "e_total",
    "e_ionic",
    "e_electronic",
    "n",
    "e_ij_max",
    "weighted_surface_energy_EV_PER_ANG2",
    "weighted_surface_energy",
    "weighted_work_function",
    "surface_anisotropy",
    "shape_factor",
    "has_reconstructed",
    "possible_species",
    "has_props",
    "theoretical",
    "database_IDs"
  ]
}
