{"builder_meta": null, "nsites": null, "elements": null, "nelements": null, "composition": null, "composition_reduced": null, "formula_pretty": "Tc3Rh", "formula_anonymous": "AB3", "chemsys": null, "volume": 112.63746980395526, "density": 11.702625949349278, "density_atomic": 14.079683725494407, "symmetry": null, "property_name": null, "material_id": "mp-861626", "deprecated": null, "deprecation_reasons": null, "last_updated": null, "origins": null, "warnings": null, "structure": {"@module": "pymatgen.core.structure", "@class": "Structure", "charge": 0, "lattice": {"matrix": [[5.48342828, -3.461e-05, -5.889999999999999e-06], [-2.74174357, 4.74876237, 6.099999999999997e-06], [-5.15e-06, 2.44e-06, 4.32565485]], "pbc": [true, true, true], "a": 5.483428280112388, "b": 5.483420634093427, "c": 4.325654850003755, "alpha": 89.99987416473675, "beta": 90.00012975891352, "gamma": 120.00076284620489, "volume": 112.63746980395524}, "properties": {}, "sites": [{"species": [{"element": "Tc", "occu": 1}], "abc": [0.15963856, 0.31926454, 0.24998304000000002], "properties": {"magmom": -0.0}, "label": "Tc", "xyz": [2.380739581312826e-05, 1.5161065184954157, 1.0813413566363197]}, {"species": [{"element": "Tc", "occu": 1}], "abc": [0.6807359, 0.84035991, 0.24998304000000002], "properties": {"magmom": -0.0}, "label": "Tc", "xyz": [1.428713818130317, 3.990646567553705, 1.081341466054744]}, {"species": [{"element": "Tc", "occu": 1}], "abc": [0.15963143, 0.84036533, 0.24998628], "properties": {"magmom": 0.0}, "label": "Tc", "xyz": [-1.42874002976893, 3.990690341279363, 1.0813585505148484]}, {"species": [{"element": "Tc", "occu": 1}], "abc": [0.84036023, 0.68073247, 0.75001943], "properties": {"magmom": -0.0}, "label": "Tc", "xyz": [2.741657315456522, 3.232609482753003, 3.2443243877200483]}, {"species": [{"element": "Tc", "occu": 1}], "abc": [0.31926718, 0.15964015, 0.75001943], "properties": {"magmom": -0.0}, "label": "Tc", "xyz": [1.3129824663114502, 0.7580839172714648, 3.2443242782949606]}, {"species": [{"element": "Tc", "occu": 1}], "abc": [0.84036606, 0.15963466, 0.7500163200000001], "properties": {"magmom": 0.0}, "label": "Tc", "xyz": [4.170405853767993, 0.7580398113262283, 3.244307756202485]}, {"species": [{"element": "Rh", "occu": 1}], "abc": [0.33332948, 0.66667402, 0.74998164], "properties": {"magmom": -0.0}, "label": "Rh", "xyz": [-6.47728368031418e-05, 3.165866792654526, 3.244163821877839]}, {"species": [{"element": "Rh", "occu": 1}], "abc": [0.66667117, 0.33332692, 0.25002082000000003], "properties": {"magmom": -0.0}, "label": "Rh", "xyz": [2.74174531981356, 1.5828678711656075, 1.0815018792349977]}]}, "task_ids": null, "uncorrected_energy_per_atom": null, "energy_per_atom": -25.6889553825, "formation_energy_per_atom": -0.18140168749999902, "energy_above_hull": 0.0, "is_stable": true, "equilibrium_reaction_energy_per_atom": null, "decomposes_to": null, "xas": null, "grain_boundaries": null, "band_gap": 0.0, "cbm": null, "vbm": null, "efermi": 8.02306808, "is_gap_direct": null, "is_metal": null, "es_source_calc_id": null, "bandstructure": null, "dos": null, "dos_energy_up": null, "dos_energy_down": null, "is_magnetic": null, "ordering": null, "total_magnetization": 0.0, "total_magnetization_normalized_vol": null, "total_magnetization_normalized_formula_units": null, "num_magnetic_sites": null, "num_unique_magnetic_sites": null, "types_of_magnetic_species": null, "bulk_modulus": null, "shear_modulus": null, "universal_anisotropy": null, "homogeneous_poisson": null, "e_total": null, "e_ionic": null, "e_electronic": null, "n": null, "e_ij_max": null, "weighted_surface_energy_EV_PER_ANG2": null, "weighted_surface_energy": null, "weighted_work_function": null, "surface_anisotropy": null, "shape_factor": null, "has_reconstructed": null, "possible_species": null, "has_props": null, "theoretical": null, "database_IDs": null, "fields_not_requested": ["builder_meta", "nsites", "elements", "nelements", "composition", "composition_reduced", "chemsys", "symmetry", "property_name", "deprecated", "deprecation_reasons", "last_updated", "origins", "warnings", "task_ids", "uncorrected_energy_per_atom", "equilibrium_reaction_energy_per_atom", "decomposes_to", "xas", "grain_boundaries", "cbm", "vbm", "is_gap_direct", "is_metal", "es_source_calc_id", "bandstructure", "dos", "dos_energy_up", "dos_energy_down", "is_magnetic", "ordering", "total_magnetization_normalized_vol", "total_magnetization_normalized_formula_units", "num_magnetic_sites", "num_unique_magnetic_sites", "types_of_magnetic_species", "bulk_modulus", "shear_modulus", "universal_anisotropy", "homogeneous_poisson", "e_total", "e_ionic", "e_electronic", "n", "e_ij_max", "weighted_surface_energy_EV_PER_ANG2", "weighted_surface_energy", "weighted_work_function", "surface_anisotropy", "shape_factor", "has_reconstructed", "possible_species", "has_props", "theoretical", "database_IDs"]}