{
  "builder_meta": null,
  "nsites": null,
  "elements": null,
  "nelements": null,
  "composition": null,
  "composition_reduced": null,
  "formula_pretty": "Tc3Sn",
  "formula_anonymous": "AB3",
  "chemsys": null,
  "volume": 64.69801065823852,
  "density": 10.59261438186459,
  "density_atomic": 16.17450266455963,
  "symmetry": null,
  "property_name": null,
  "material_id": "mp-1217417",
  "deprecated": null,
  "deprecation_reasons": null,
  "last_updated": null,
  "origins": null,
  "warnings": null,
  "structure": {
    "@module": "pymatgen.core.structure",
    "@class": "Structure",
    "charge": 0,
    "lattice": {
      "matrix": [
        [-1.470729, -2.547676, 0.0],
        [-2.941456999999999, 0.0, 0.0],
        [0.0, 0.0, -8.633447]
      ],
      "pbc": [true, true, true],
      "a": 2.9417166404018253,
      "b": 2.941456999999999,
      "c": 8.633447,
      "alpha": 90.0,
      "beta": 90.0,
      "gamma": 60.002908380141115,
      "volume": 64.69801065823849
    },
    "properties": {},
    "sites": [
      {
        "species": [{ "element": "Tc", "occu": 1 }],
        "abc": [0.333312999999999, 0.333344, 0.875],
        "properties": { "magmom": 0.001 },
        "label": "Tc",
        "xyz": [-1.4707301373849981, -0.8491735305879975, -7.554266125]
      },
      {
        "species": [{ "element": "Tc", "occu": 1 }],
        "abc": [0.666661, 0.666669, 0.113218],
        "properties": { "magmom": 0.001 },
        "label": "Tc",
        "xyz": [-2.941455862601999, -1.6984362298359998, -0.977461602446]
      },
      {
        "species": [{ "element": "Tc", "occu": 1 }],
        "abc": [0.666661, 0.666669, 0.636782],
        "properties": { "magmom": 0.001 },
        "label": "Tc",
        "xyz": [-2.941455862601999, -1.6984362298359998, -5.497623647554]
      },
      {
        "species": [{ "element": "Sn", "occu": 1 }],
        "abc": [0.333364999999999, 0.333317, 0.375],
        "properties": { "magmom": 0.0 },
        "label": "Sn",
        "xyz": [-1.470727195953998, -0.8493060097399975, -3.237542625]
      }
    ]
  },
  "task_ids": null,
  "uncorrected_energy_per_atom": null,
  "energy_per_atom": -25.459431152500002,
  "formation_energy_per_atom": 0.200611329999997,
  "energy_above_hull": 0.200611329999997,
  "is_stable": false,
  "equilibrium_reaction_energy_per_atom": null,
  "decomposes_to": null,
  "xas": null,
  "grain_boundaries": null,
  "band_gap": 0.0,
  "cbm": null,
  "vbm": null,
  "efermi": 9.40527896,
  "is_gap_direct": null,
  "is_metal": null,
  "es_source_calc_id": null,
  "bandstructure": null,
  "dos": null,
  "dos_energy_up": null,
  "dos_energy_down": null,
  "is_magnetic": null,
  "ordering": null,
  "total_magnetization": 0.007112999999999,
  "total_magnetization_normalized_vol": null,
  "total_magnetization_normalized_formula_units": null,
  "num_magnetic_sites": null,
  "num_unique_magnetic_sites": null,
  "types_of_magnetic_species": null,
  "bulk_modulus": null,
  "shear_modulus": null,
  "universal_anisotropy": null,
  "homogeneous_poisson": null,
  "e_total": null,
  "e_ionic": null,
  "e_electronic": null,
  "n": null,
  "e_ij_max": null,
  "weighted_surface_energy_EV_PER_ANG2": null,
  "weighted_surface_energy": null,
  "weighted_work_function": null,
  "surface_anisotropy": null,
  "shape_factor": null,
  "has_reconstructed": null,
  "possible_species": null,
  "has_props": null,
  "theoretical": null,
  "database_IDs": null,
  "fields_not_requested": [
    "builder_meta",
    "nsites",
    "elements",
    "nelements",
    "composition",
    "composition_reduced",
    "chemsys",
    "symmetry",
    "property_name",
    "deprecated",
    "deprecation_reasons",
    "last_updated",
    "origins",
    "warnings",
    "task_ids",
    "uncorrected_energy_per_atom",
    "equilibrium_reaction_energy_per_atom",
    "decomposes_to",
    "xas",
    "grain_boundaries",
    "cbm",
    "vbm",
    "is_gap_direct",
    "is_metal",
    "es_source_calc_id",
    "bandstructure",
    "dos",
    "dos_energy_up",
    "dos_energy_down",
    "is_magnetic",
    "ordering",
    "total_magnetization_normalized_vol",
    "total_magnetization_normalized_formula_units",
    "num_magnetic_sites",
    "num_unique_magnetic_sites",
    "types_of_magnetic_species",
    "bulk_modulus",
    "shear_modulus",
    "universal_anisotropy",
    "homogeneous_poisson",
    "e_total",
    "e_ionic",
    "e_electronic",
    "n",
    "e_ij_max",
    "weighted_surface_energy_EV_PER_ANG2",
    "weighted_surface_energy",
    "weighted_work_function",
    "surface_anisotropy",
    "shape_factor",
    "has_reconstructed",
    "possible_species",
    "has_props",
    "theoretical",
    "database_IDs"
  ]
}
