{"builder_meta": null, "nsites": null, "elements": null, "nelements": null, "composition": null, "composition_reduced": null, "formula_pretty": "Tc3W", "formula_anonymous": "AB3", "chemsys": null, "volume": 120.15715540655569, "density": 13.207236554484092, "density_atomic": 15.019644425819461, "symmetry": null, "property_name": null, "material_id": "mp-1187398", "deprecated": null, "deprecation_reasons": null, "last_updated": null, "origins": null, "warnings": null, "structure": {"@module": "pymatgen.core.structure", "@class": "Structure", "charge": 0, "lattice": {"matrix": [[2.782253, -4.819004, 0.0], [2.782253, 4.819004, 0.0], [0.0, 0.0, 4.480905]], "pbc": [true, true, true], "a": 5.564506384938829, "b": 5.564506384938829, "c": 4.480905, "alpha": 90.0, "beta": 90.0, "gamma": 120.00000457674878, "volume": 120.15715540655569}, "properties": {}, "sites": [{"species": [{"element": "Tc", "occu": 1}], "abc": [0.167067, 0.334134999999999, 0.25], "properties": {"magmom": 0.0}, "label": "Tc", "xyz": [1.3944707681059971, 0.8051013602719953, 1.12022625]}, {"species": [{"element": "Tc", "occu": 1}], "abc": [0.665864999999999, 0.832932999999999, 0.25], "properties": {"magmom": 0.0}, "label": "Tc", "xyz": [4.170035231893994, 0.8051013602719999, 1.12022625]}, {"species": [{"element": "Tc", "occu": 1}], "abc": [0.167067, 0.832932999999999, 0.25], "properties": {"magmom": -0.0}, "label": "Tc", "xyz": [2.782252999999997, 3.208810917463995, 1.12022625]}, {"species": [{"element": "Tc", "occu": 1}], "abc": [0.832932999999999, 0.665864999999999, 0.75], "properties": {"magmom": 0.0}, "label": "Tc", "xyz": [4.170035231893994, -0.8051013602719999, 3.36067875]}, {"species": [{"element": "Tc", "occu": 1}], "abc": [0.334134999999999, 0.167067, 0.75], "properties": {"magmom": 0.0}, "label": "Tc", "xyz": [1.3944707681059971, -0.8051013602719953, 3.36067875]}, {"species": [{"element": "Tc", "occu": 1}], "abc": [0.832932999999999, 0.167067, 0.75], "properties": {"magmom": -0.0}, "label": "Tc", "xyz": [2.782252999999997, -3.208810917463995, 3.36067875]}, {"species": [{"element": "W", "occu": 1}], "abc": [0.333333, 0.666667, 0.75], "properties": {"magmom": -0.0}, "label": "W", "xyz": [2.782253, 1.6063378793360001, 3.36067875]}, {"species": [{"element": "W", "occu": 1}], "abc": [0.666667, 0.333333, 0.25], "properties": {"magmom": -0.0}, "label": "W", "xyz": [2.782253, -1.6063378793360001, 1.12022625]}]}, "task_ids": null, "uncorrected_energy_per_atom": null, "energy_per_atom": -32.2082058575, "formation_energy_per_atom": 0.107239275000004, "energy_above_hull": 0.107239275000004, "is_stable": false, "equilibrium_reaction_energy_per_atom": null, "decomposes_to": null, "xas": null, "grain_boundaries": null, "band_gap": 0.0, "cbm": null, "vbm": null, "efermi": 7.93197042, "is_gap_direct": null, "is_metal": null, "es_source_calc_id": null, "bandstructure": null, "dos": null, "dos_energy_up": null, "dos_energy_down": null, "is_magnetic": null, "ordering": null, "total_magnetization": 0.0008393, "total_magnetization_normalized_vol": null, "total_magnetization_normalized_formula_units": null, "num_magnetic_sites": null, "num_unique_magnetic_sites": null, "types_of_magnetic_species": null, "bulk_modulus": null, "shear_modulus": null, "universal_anisotropy": null, "homogeneous_poisson": null, "e_total": null, "e_ionic": null, "e_electronic": null, "n": null, "e_ij_max": null, "weighted_surface_energy_EV_PER_ANG2": null, "weighted_surface_energy": null, "weighted_work_function": null, "surface_anisotropy": null, "shape_factor": null, "has_reconstructed": null, "possible_species": null, "has_props": null, "theoretical": null, "database_IDs": null, "fields_not_requested": ["builder_meta", "nsites", "elements", "nelements", "composition", "composition_reduced", "chemsys", "symmetry", "property_name", "deprecated", "deprecation_reasons", "last_updated", "origins", "warnings", "task_ids", "uncorrected_energy_per_atom", "equilibrium_reaction_energy_per_atom", "decomposes_to", "xas", "grain_boundaries", "cbm", "vbm", "is_gap_direct", "is_metal", "es_source_calc_id", "bandstructure", "dos", "dos_energy_up", "dos_energy_down", "is_magnetic", "ordering", "total_magnetization_normalized_vol", "total_magnetization_normalized_formula_units", "num_magnetic_sites", "num_unique_magnetic_sites", "types_of_magnetic_species", "bulk_modulus", "shear_modulus", "universal_anisotropy", "homogeneous_poisson", "e_total", "e_ionic", "e_electronic", "n", "e_ij_max", "weighted_surface_energy_EV_PER_ANG2", "weighted_surface_energy", "weighted_work_function", "surface_anisotropy", "shape_factor", "has_reconstructed", "possible_species", "has_props", "theoretical", "database_IDs"]}