{
  "builder_meta": null,
  "nsites": null,
  "elements": null,
  "nelements": null,
  "composition": null,
  "composition_reduced": null,
  "formula_pretty": "Tc4N3",
  "formula_anonymous": "A3B4",
  "chemsys": null,
  "volume": 73.70444271713004,
  "density": 9.77834313876625,
  "density_atomic": 10.529206102447148,
  "symmetry": null,
  "property_name": null,
  "material_id": "mp-1217441",
  "deprecated": null,
  "deprecation_reasons": null,
  "last_updated": null,
  "origins": null,
  "warnings": null,
  "structure": {
    "@module": "pymatgen.core.structure",
    "@class": "Structure",
    "charge": 0,
    "lattice": {
      "matrix": [
        [10.826599, -1.403834, 0.0],
        [10.826599, 1.403834, 0.0],
        [10.644571, 0.0, 2.424687999999999]
      ],
      "pbc": [true, true, true],
      "a": 10.917233889880578,
      "b": 10.917233889880578,
      "c": 10.917234250092143,
      "alpha": 14.776100452668306,
      "beta": 14.776100452668306,
      "gamma": 14.776104098637129,
      "volume": 73.70444271713
    },
    "properties": {},
    "sites": [
      {
        "species": [{ "element": "Tc", "occu": 1 }],
        "abc": [0.620800999999999, 0.620800999999999, 0.620800999999999],
        "properties": { "magmom": 0.007 },
        "label": "Tc",
        "xyz": [20.050487292968967, 0.0, 1.505248735087997]
      },
      {
        "species": [{ "element": "Tc", "occu": 1 }],
        "abc": [0.379199, 0.379199, 0.379199],
        "properties": { "magmom": 0.007 },
        "label": "Tc",
        "xyz": [12.247281707031, 0.0, 0.9194392649119996]
      },
      {
        "species": [{ "element": "Tc", "occu": 1 }],
        "abc": [0.865657, 0.865657, 0.865657],
        "properties": { "magmom": -0.001 },
        "label": "Tc",
        "xyz": [27.958789819232997, 0.0, 2.098948140015999]
      },
      {
        "species": [{ "element": "Tc", "occu": 1 }],
        "abc": [0.134343, 0.134343, 0.134343],
        "properties": { "magmom": -0.001 },
        "label": "Tc",
        "xyz": [4.338979180767, 0.0, 0.32573985998399985]
      },
      {
        "species": [{ "element": "N", "occu": 1 }],
        "abc": [0.757181, 0.757181, 0.757181],
        "properties": { "magmom": -0.0 },
        "label": "N",
        "xyz": [24.455257029189, 0.0, 1.835927684527999]
      },
      {
        "species": [{ "element": "N", "occu": 1 }],
        "abc": [0.0, 0.0, 0.0],
        "properties": { "magmom": -0.001 },
        "label": "N",
        "xyz": [0.0, 0.0, 0.0]
      },
      {
        "species": [{ "element": "N", "occu": 1 }],
        "abc": [0.242818999999999, 0.242818999999999, 0.242818999999999],
        "properties": { "magmom": -0.0 },
        "label": "N",
        "xyz": [7.842511970810968, 0.0, 0.5887603154719974]
      }
    ]
  },
  "task_ids": null,
  "uncorrected_energy_per_atom": null,
  "energy_per_atom": -18.66247975041667,
  "formation_energy_per_atom": 0.086791708690477,
  "energy_above_hull": 0.286470625476187,
  "is_stable": false,
  "equilibrium_reaction_energy_per_atom": null,
  "decomposes_to": null,
  "xas": null,
  "grain_boundaries": null,
  "band_gap": 0.0,
  "cbm": null,
  "vbm": null,
  "efermi": 9.24533882,
  "is_gap_direct": null,
  "is_metal": null,
  "es_source_calc_id": null,
  "bandstructure": null,
  "dos": null,
  "dos_energy_up": null,
  "dos_energy_down": null,
  "is_magnetic": null,
  "ordering": null,
  "total_magnetization": 0.040445499999999,
  "total_magnetization_normalized_vol": null,
  "total_magnetization_normalized_formula_units": null,
  "num_magnetic_sites": null,
  "num_unique_magnetic_sites": null,
  "types_of_magnetic_species": null,
  "bulk_modulus": null,
  "shear_modulus": null,
  "universal_anisotropy": null,
  "homogeneous_poisson": null,
  "e_total": null,
  "e_ionic": null,
  "e_electronic": null,
  "n": null,
  "e_ij_max": null,
  "weighted_surface_energy_EV_PER_ANG2": null,
  "weighted_surface_energy": null,
  "weighted_work_function": null,
  "surface_anisotropy": null,
  "shape_factor": null,
  "has_reconstructed": null,
  "possible_species": null,
  "has_props": null,
  "theoretical": null,
  "database_IDs": null,
  "fields_not_requested": [
    "builder_meta",
    "nsites",
    "elements",
    "nelements",
    "composition",
    "composition_reduced",
    "chemsys",
    "symmetry",
    "property_name",
    "deprecated",
    "deprecation_reasons",
    "last_updated",
    "origins",
    "warnings",
    "task_ids",
    "uncorrected_energy_per_atom",
    "equilibrium_reaction_energy_per_atom",
    "decomposes_to",
    "xas",
    "grain_boundaries",
    "cbm",
    "vbm",
    "is_gap_direct",
    "is_metal",
    "es_source_calc_id",
    "bandstructure",
    "dos",
    "dos_energy_up",
    "dos_energy_down",
    "is_magnetic",
    "ordering",
    "total_magnetization_normalized_vol",
    "total_magnetization_normalized_formula_units",
    "num_magnetic_sites",
    "num_unique_magnetic_sites",
    "types_of_magnetic_species",
    "bulk_modulus",
    "shear_modulus",
    "universal_anisotropy",
    "homogeneous_poisson",
    "e_total",
    "e_ionic",
    "e_electronic",
    "n",
    "e_ij_max",
    "weighted_surface_energy_EV_PER_ANG2",
    "weighted_surface_energy",
    "weighted_work_function",
    "surface_anisotropy",
    "shape_factor",
    "has_reconstructed",
    "possible_species",
    "has_props",
    "theoretical",
    "database_IDs"
  ]
}
