{
  "builder_meta": null,
  "nsites": null,
  "elements": null,
  "nelements": null,
  "composition": null,
  "composition_reduced": null,
  "formula_pretty": "Tc7B3",
  "formula_anonymous": "A3B7",
  "chemsys": null,
  "volume": 233.1909753221306,
  "density": 10.231837330639777,
  "density_atomic": 11.65954876610653,
  "symmetry": null,
  "property_name": null,
  "material_id": "mp-978989",
  "deprecated": null,
  "deprecation_reasons": null,
  "last_updated": null,
  "origins": null,
  "warnings": null,
  "structure": {
    "@module": "pymatgen.core.structure",
    "@class": "Structure",
    "charge": 0,
    "lattice": {
      "matrix": [
        [7.46654839, 1.22e-5, -0.0],
        [-3.73326302, 6.46622471, 0.0],
        [0.0, -0.0, 4.82992795]
      ],
      "pbc": [true, true, true],
      "a": 7.466548390009967,
      "b": 7.466546375447895,
      "c": 4.82992795,
      "alpha": 90.0,
      "beta": 90.0,
      "gamma": 119.99981628732365,
      "volume": 233.1909753221306
    },
    "properties": {},
    "sites": [
      {
        "species": [{ "element": "Tc", "occu": 1 }],
        "abc": [0.54562703, 0.45437297, 0.048377790000000004],
        "properties": { "magmom": -0.0 },
        "label": "Tc",
        "xyz": [2.377656816198413, 2.9380843828198544, 0.2336612400802305]
      },
      {
        "species": [{ "element": "Tc", "occu": 1 }],
        "abc": [0.45437297, 0.54562703, 0.54837779],
        "properties": { "magmom": -0.0 },
        "label": "Tc",
        "xyz": [1.3556285538015875, 3.5281525271801453, 2.6486252150802305]
      },
      {
        "species": [{ "element": "Tc", "occu": 1 }],
        "abc": [0.54562703, 0.09125506, 0.04837579],
        "properties": { "magmom": -0.0 },
        "label": "Tc",
        "xyz": [3.7332714815011006, 0.5900823805342985, 0.23365158022433052]
      },
      {
        "species": [{ "element": "Tc", "occu": 1 }],
        "abc": [0.9087449400000001, 0.45437297, 0.04837579],
        "properties": { "magmom": -0.0 },
        "label": "Tc",
        "xyz": [5.088894262489077, 2.938088812858356, 0.23365158022433052]
      },
      {
        "species": [{ "element": "Tc", "occu": 1 }],
        "abc": [0.09125506, 0.54562703, 0.54837579],
        "properties": { "magmom": -0.0 },
        "label": "Tc",
        "xyz": [-1.355608892489077, 3.5281480971416435, 2.648615555224331]
      },
      {
        "species": [{ "element": "Tc", "occu": 1 }],
        "abc": [0.45437297, 0.9087449400000001, 0.54837579],
        "properties": { "magmom": -0.0 },
        "label": "Tc",
        "xyz": [1.3888498898939616e-5, 5.876154529465701, 2.648615555224331]
      },
      {
        "species": [{ "element": "Tc", "occu": 1 }],
        "abc": [0.12368069, 0.87632031, 0.25487013000000003],
        "properties": { "magmom": 0.0 },
        "label": "Tc",
        "xyz": [-2.348066350204347, 5.666485551301278, 1.2310043645071336]
      },
      {
        "species": [{ "element": "Tc", "occu": 1 }],
        "abc": [0.87632031, 0.12367969000000001, 0.7548711300000001],
        "properties": { "magmom": 0.0 },
        "label": "Tc",
        "xyz": [6.081359186752737, 0.7997513587109218, 3.645973169435084]
      },
      {
        "species": [{ "element": "Tc", "occu": 1 }],
        "abc": [0.12368069, 0.24736037, 0.25486913],
        "properties": { "magmom": 0.0 },
        "label": "Tc",
        "xyz": [6.534859071649635e-6, 1.5994892456731606, 1.2309995345791835]
      },
      {
        "species": [{ "element": "Tc", "occu": 1 }],
        "abc": [0.75263963, 0.8763193100000001, 0.25486913],
        "properties": { "magmom": 0.0 },
        "label": "Tc",
        "xyz": [2.348089743891779, 5.666486758375636, 1.2309995345791835]
      },
      {
        "species": [{ "element": "Tc", "occu": 1 }],
        "abc": [0.24736137, 0.12368069, 0.75486913],
        "properties": { "magmom": 0.0 },
        "label": "Tc",
        "xyz": [1.3852030926566106, 0.7997501516365638, 3.6459635095791834]
      },
      {
        "species": [{ "element": "Tc", "occu": 1 }],
        "abc": [0.8763193100000001, 0.75263963, 0.75486913],
        "properties": { "magmom": 0.0 },
        "label": "Tc",
        "xyz": [3.7332788351409287, 4.866747664326839, 3.6459635095791834]
      },
      {
        "species": [{ "element": "Tc", "occu": 1 }],
        "abc": [0.333333, 0.666667, 0.08192285],
        "properties": { "magmom": -0.0 },
        "label": "Tc",
        "xyz": [3.7167295299234127e-6, 4.310822695404171, 0.3956814629586575]
      },
      {
        "species": [{ "element": "Tc", "occu": 1 }],
        "abc": [0.666667, 0.333333, 0.58192285],
        "properties": { "magmom": -0.0 },
        "label": "Tc",
        "xyz": [3.7332816532704696, 2.15541421459583, 2.8106454379586574]
      },
      {
        "species": [{ "element": "B", "occu": 1 }],
        "abc": [0.81072859, 0.6214591700000001, 0.3401128],
        "properties": { "magmom": 0.0 },
        "label": "B",
        "xyz": [3.7332737105905767, 4.018504532198889, 1.64272031887276]
      },
      {
        "species": [{ "element": "B", "occu": 1 }],
        "abc": [0.18927041, 0.81072959, 0.840113799999999],
        "properties": { "magmom": 0.0 },
        "label": "B",
        "xyz": [-1.6134701225066217, 5.242362017085171, 4.057689123800706]
      },
      {
        "species": [{ "element": "B", "occu": 1 }],
        "abc": [0.81073059, 0.18926941, 0.3401148],
        "properties": { "magmom": 0.0 },
        "label": "B",
        "xyz": [5.346766692318033, 1.223868426702319, 1.64272997872866]
      },
      {
        "species": [{ "element": "B", "occu": 1 }],
        "abc": [0.37854183, 0.18927241, 0.3401128],
        "properties": { "magmom": 0.0 },
        "label": "B",
        "xyz": [2.1197972023748752, 1.223882552673577, 1.64272031887276]
      },
      {
        "species": [{ "element": "B", "occu": 1 }],
        "abc": [0.6214591700000001, 0.81072859, 0.8401128],
        "properties": { "magmom": 0.0 },
        "label": "B",
        "xyz": [1.6134919009104949, 5.242360823563333, 4.05768429387276]
      },
      {
        "species": [{ "element": "B", "occu": 1 }],
        "abc": [0.18927141, 0.37854083, 0.8401128],
        "properties": { "magmom": 0.0 },
        "label": "B",
        "xyz": [1.1659409423492306e-5, 2.447732377801111, 4.05768429387276]
      }
    ]
  },
  "task_ids": null,
  "uncorrected_energy_per_atom": null,
  "energy_per_atom": -20.7279274335,
  "formation_energy_per_atom": -0.34875773925000103,
  "energy_above_hull": 0.0,
  "is_stable": true,
  "equilibrium_reaction_energy_per_atom": null,
  "decomposes_to": null,
  "xas": null,
  "grain_boundaries": null,
  "band_gap": 0.0,
  "cbm": null,
  "vbm": null,
  "efermi": 8.74787478,
  "is_gap_direct": null,
  "is_metal": null,
  "es_source_calc_id": null,
  "bandstructure": null,
  "dos": null,
  "dos_energy_up": null,
  "dos_energy_down": null,
  "is_magnetic": null,
  "ordering": null,
  "total_magnetization": 1e-7,
  "total_magnetization_normalized_vol": null,
  "total_magnetization_normalized_formula_units": null,
  "num_magnetic_sites": null,
  "num_unique_magnetic_sites": null,
  "types_of_magnetic_species": null,
  "bulk_modulus": null,
  "shear_modulus": null,
  "universal_anisotropy": null,
  "homogeneous_poisson": null,
  "e_total": null,
  "e_ionic": null,
  "e_electronic": null,
  "n": null,
  "e_ij_max": null,
  "weighted_surface_energy_EV_PER_ANG2": null,
  "weighted_surface_energy": null,
  "weighted_work_function": null,
  "surface_anisotropy": null,
  "shape_factor": null,
  "has_reconstructed": null,
  "possible_species": null,
  "has_props": null,
  "theoretical": null,
  "database_IDs": null,
  "fields_not_requested": [
    "builder_meta",
    "nsites",
    "elements",
    "nelements",
    "composition",
    "composition_reduced",
    "chemsys",
    "symmetry",
    "property_name",
    "deprecated",
    "deprecation_reasons",
    "last_updated",
    "origins",
    "warnings",
    "task_ids",
    "uncorrected_energy_per_atom",
    "equilibrium_reaction_energy_per_atom",
    "decomposes_to",
    "xas",
    "grain_boundaries",
    "cbm",
    "vbm",
    "is_gap_direct",
    "is_metal",
    "es_source_calc_id",
    "bandstructure",
    "dos",
    "dos_energy_up",
    "dos_energy_down",
    "is_magnetic",
    "ordering",
    "total_magnetization_normalized_vol",
    "total_magnetization_normalized_formula_units",
    "num_magnetic_sites",
    "num_unique_magnetic_sites",
    "types_of_magnetic_species",
    "bulk_modulus",
    "shear_modulus",
    "universal_anisotropy",
    "homogeneous_poisson",
    "e_total",
    "e_ionic",
    "e_electronic",
    "n",
    "e_ij_max",
    "weighted_surface_energy_EV_PER_ANG2",
    "weighted_surface_energy",
    "weighted_work_function",
    "surface_anisotropy",
    "shape_factor",
    "has_reconstructed",
    "possible_species",
    "has_props",
    "theoretical",
    "database_IDs"
  ]
}
