{
  "builder_meta": null,
  "nsites": null,
  "elements": null,
  "nelements": null,
  "composition": null,
  "composition_reduced": null,
  "formula_pretty": "TcB2",
  "formula_anonymous": "AB2",
  "chemsys": null,
  "volume": 53.80727683246632,
  "density": 7.383276609344082,
  "density_atomic": 8.967879472077719,
  "symmetry": null,
  "property_name": null,
  "material_id": "mp-1019317",
  "deprecated": null,
  "deprecation_reasons": null,
  "last_updated": null,
  "origins": null,
  "warnings": null,
  "structure": {
    "@module": "pymatgen.core.structure",
    "@class": "Structure",
    "charge": 0,
    "lattice": {
      "matrix": [
        [2.89072041, -7.699999999999999e-7, 0.0],
        [-1.44536088, 2.50343167, 0.0],
        [0.0, 0.0, 7.43531289]
      ],
      "pbc": [true, true, true],
      "a": 2.8907204100001027,
      "b": 2.8907158628605067,
      "c": 7.43531289,
      "alpha": 90.0,
      "beta": 90.0,
      "gamma": 120.0000827454384,
      "volume": 53.80727683246632
    },
    "properties": {},
    "sites": [
      {
        "species": [{ "element": "Tc", "occu": 1 }],
        "abc": [0.33333363, 0.66666718, 0.25],
        "properties": { "magmom": -0.0 },
        "label": "Tc",
        "xyz": [-3.343715301307171e-7, 1.6689554750946956, 1.8588282225]
      },
      {
        "species": [{ "element": "Tc", "occu": 1 }],
        "abc": [0.6666663700000001, 0.33333282000000003, 0.75],
        "properties": { "magmom": -0.0 },
        "label": "Tc",
        "xyz": [1.4453598643715304, 0.8344754249053046, 5.5764846675]
      },
      {
        "species": [{ "element": "B", "occu": 1 }],
        "abc": [0.33333297, 0.66666537, 0.95204626],
        "properties": { "magmom": 0.0 },
        "label": "B",
        "xyz": [3.7385619222618516e-7, 1.6689509438838812, 7.078761828854291]
      },
      {
        "species": [{ "element": "B", "occu": 1 }],
        "abc": [0.66666703, 0.33333463, 0.04795374],
        "properties": { "magmom": 0.0 },
        "label": "B",
        "xyz": [1.4453591561438082, 0.834479956116119, 0.3565510611457086]
      },
      {
        "species": [{ "element": "B", "occu": 1 }],
        "abc": [0.66666703, 0.33333463, 0.45204626000000003],
        "properties": { "magmom": 0.0 },
        "label": "B",
        "xyz": [1.4453591561438082, 0.834479956116119, 3.3611053838542917]
      },
      {
        "species": [{ "element": "B", "occu": 1 }],
        "abc": [0.33333297, 0.66666537, 0.54795374],
        "properties": { "magmom": 0.0 },
        "label": "B",
        "xyz": [3.7385619222618516e-7, 1.6689509438838812, 4.074207506145708]
      }
    ]
  },
  "task_ids": null,
  "uncorrected_energy_per_atom": null,
  "energy_per_atom": -14.02493716,
  "formation_energy_per_atom": -0.472480345000001,
  "energy_above_hull": 0.0,
  "is_stable": true,
  "equilibrium_reaction_energy_per_atom": null,
  "decomposes_to": null,
  "xas": null,
  "grain_boundaries": null,
  "band_gap": 0.0,
  "cbm": null,
  "vbm": null,
  "efermi": 7.87862969,
  "is_gap_direct": null,
  "is_metal": null,
  "es_source_calc_id": null,
  "bandstructure": null,
  "dos": null,
  "dos_energy_up": null,
  "dos_energy_down": null,
  "is_magnetic": null,
  "ordering": null,
  "total_magnetization": 1e-7,
  "total_magnetization_normalized_vol": null,
  "total_magnetization_normalized_formula_units": null,
  "num_magnetic_sites": null,
  "num_unique_magnetic_sites": null,
  "types_of_magnetic_species": null,
  "bulk_modulus": null,
  "shear_modulus": null,
  "universal_anisotropy": null,
  "homogeneous_poisson": null,
  "e_total": null,
  "e_ionic": null,
  "e_electronic": null,
  "n": null,
  "e_ij_max": null,
  "weighted_surface_energy_EV_PER_ANG2": null,
  "weighted_surface_energy": null,
  "weighted_work_function": null,
  "surface_anisotropy": null,
  "shape_factor": null,
  "has_reconstructed": null,
  "possible_species": null,
  "has_props": null,
  "theoretical": null,
  "database_IDs": null,
  "fields_not_requested": [
    "builder_meta",
    "nsites",
    "elements",
    "nelements",
    "composition",
    "composition_reduced",
    "chemsys",
    "symmetry",
    "property_name",
    "deprecated",
    "deprecation_reasons",
    "last_updated",
    "origins",
    "warnings",
    "task_ids",
    "uncorrected_energy_per_atom",
    "equilibrium_reaction_energy_per_atom",
    "decomposes_to",
    "xas",
    "grain_boundaries",
    "cbm",
    "vbm",
    "is_gap_direct",
    "is_metal",
    "es_source_calc_id",
    "bandstructure",
    "dos",
    "dos_energy_up",
    "dos_energy_down",
    "is_magnetic",
    "ordering",
    "total_magnetization_normalized_vol",
    "total_magnetization_normalized_formula_units",
    "num_magnetic_sites",
    "num_unique_magnetic_sites",
    "types_of_magnetic_species",
    "bulk_modulus",
    "shear_modulus",
    "universal_anisotropy",
    "homogeneous_poisson",
    "e_total",
    "e_ionic",
    "e_electronic",
    "n",
    "e_ij_max",
    "weighted_surface_energy_EV_PER_ANG2",
    "weighted_surface_energy",
    "weighted_work_function",
    "surface_anisotropy",
    "shape_factor",
    "has_reconstructed",
    "possible_species",
    "has_props",
    "theoretical",
    "database_IDs"
  ]
}
