{"builder_meta": null, "nsites": null, "elements": null, "nelements": null, "composition": null, "composition_reduced": null, "formula_pretty": "TcB4", "formula_anonymous": "AB4", "chemsys": null, "volume": 157.21398793026916, "density": 5.967437961738596, "density_atomic": 7.860699396513458, "symmetry": null, "property_name": null, "material_id": "mp-1105617", "deprecated": null, "deprecation_reasons": null, "last_updated": null, "origins": null, "warnings": null, "structure": {"@module": "pymatgen.core.structure", "@class": "Structure", "charge": 0.0, "lattice": {"matrix": [[2.6396815, -4.5720621900000005, -0.0], [2.6396815, 4.5720621900000005, -0.0], [0.0, 0.0, 6.51324674]], "pbc": [true, true, true], "a": 5.279362754222317, "b": 5.279362754222317, "c": 6.51324674, "alpha": 90.0, "beta": 90.0, "gamma": 119.9999969199842, "volume": 157.21398793026918}, "properties": {}, "sites": [{"species": [{"element": "Tc", "occu": 1}], "abc": [0.333333, 0.666667, 0.25], "properties": {"magmom": 1.079}, "label": "Tc", "xyz": [2.6396815, 1.5240237780414603, 1.628311685]}, {"species": [{"element": "Tc", "occu": 1}], "abc": [0.666667, 0.333333, 0.75], "properties": {"magmom": 1.077}, "label": "Tc", "xyz": [2.6396815, -1.5240237780414603, 4.884935055]}, {"species": [{"element": "Tc", "occu": 1}], "abc": [0.0, -0.0, 0.25], "properties": {"magmom": 1.059}, "label": "Tc", "xyz": [0.0, 0.0, 1.628311685]}, {"species": [{"element": "Tc", "occu": 1}], "abc": [0.0, -0.0, 0.75], "properties": {"magmom": 1.058}, "label": "Tc", "xyz": [0.0, 0.0, 4.884935055]}, {"species": [{"element": "B", "occu": 1}], "abc": [0.33559836, 0.33560132, 0.50003315], "properties": {"magmom": 0.002}, "label": "B", "xyz": [1.77175337810192, 1.3533304082491426e-05, 3.256839284129431]}, {"species": [{"element": "B", "occu": 1}], "abc": [0.66439868, -2.96e-06, 0.50003315], "properties": {"magmom": 0.002}, "label": "B", "xyz": [1.75379309076318, -3.037685617217992, 3.256839284129431]}, {"species": [{"element": "B", "occu": 1}], "abc": [2.96e-06, 0.66440164, 0.50003315], "properties": {"magmom": 0.002}, "label": "B", "xyz": [1.7538165311349, 3.0376720839139097, 3.256839284129431]}, {"species": [{"element": "B", "occu": 1}], "abc": [0.66439868, 0.66440164, 0.50003315], "properties": {"magmom": 0.002}, "label": "B", "xyz": [3.50760962189808, 1.3533304082269382e-05, 3.256839284129431]}, {"species": [{"element": "B", "occu": 1}], "abc": [2.96e-06, 0.33560132, 0.50003315], "properties": {"magmom": 0.002}, "label": "B", "xyz": [0.88588840923682, 1.5343765727820085, 3.256839284129431]}, {"species": [{"element": "B", "occu": 1}], "abc": [0.33559836, -2.96e-06, 0.50003315], "properties": {"magmom": 0.002}, "label": "B", "xyz": [0.8858649688651, -1.534390106086091, 3.256839284129431]}, {"species": [{"element": "B", "occu": 1}], "abc": [0.66439868, 0.66440164, 0.9999668500000001], "properties": {"magmom": 0.002}, "label": "B", "xyz": [3.50760962189808, 1.3533304082269382e-05, 6.513030825870569]}, {"species": [{"element": "B", "occu": 1}], "abc": [0.33559836, -2.96e-06, 0.9999668500000001], "properties": {"magmom": 0.002}, "label": "B", "xyz": [0.8858649688651, -1.534390106086091, 6.513030825870569]}, {"species": [{"element": "B", "occu": 1}], "abc": [2.96e-06, 0.33560132, 0.9999668500000001], "properties": {"magmom": 0.002}, "label": "B", "xyz": [0.88588840923682, 1.5343765727820085, 6.513030825870569]}, {"species": [{"element": "B", "occu": 1}], "abc": [0.33559836, 0.33560132, 0.9999668500000001], "properties": {"magmom": 0.002}, "label": "B", "xyz": [1.77175337810192, 1.3533304082491426e-05, 6.513030825870569]}, {"species": [{"element": "B", "occu": 1}], "abc": [2.96e-06, 0.66440164, 0.9999668500000001], "properties": {"magmom": 0.002}, "label": "B", "xyz": [1.7538165311349, 3.0376720839139097, 6.513030825870569]}, {"species": [{"element": "B", "occu": 1}], "abc": [0.66439868, -2.96e-06, 0.9999668500000001], "properties": {"magmom": 0.002}, "label": "B", "xyz": [1.75379309076318, -3.037685617217992, 6.513030825870569]}, {"species": [{"element": "B", "occu": 1}], "abc": [0.333333, 0.666667, 0.8803491800000001], "properties": {"magmom": 0.024}, "label": "B", "xyz": [2.6396815, 1.5240237780414603, 5.733931426696674]}, {"species": [{"element": "B", "occu": 1}], "abc": [0.666667, 0.333333, 0.11962462], "properties": {"magmom": 0.024}, "label": "B", "xyz": [2.6396815, -1.5240237780414603, 0.7791446662387388]}, {"species": [{"element": "B", "occu": 1}], "abc": [0.666667, 0.333333, 0.38037538], "properties": {"magmom": 0.024}, "label": "B", "xyz": [2.6396815, -1.5240237780414603, 2.477478703761261]}, {"species": [{"element": "B", "occu": 1}], "abc": [0.333333, 0.666667, 0.61965082], "properties": {"magmom": 0.024}, "label": "B", "xyz": [2.6396815, 1.5240237780414603, 4.035938683303327]}]}, "task_ids": null, "uncorrected_energy_per_atom": null, "energy_per_atom": -10.6854383795, "formation_energy_per_atom": 0.384577388499998, "energy_above_hull": 0.668065595499996, "is_stable": false, "equilibrium_reaction_energy_per_atom": null, "decomposes_to": null, "xas": null, "grain_boundaries": null, "band_gap": 0.0, "cbm": null, "vbm": null, "efermi": 9.28272138, "is_gap_direct": null, "is_metal": null, "es_source_calc_id": null, "bandstructure": null, "dos": null, "dos_energy_up": null, "dos_energy_down": null, "is_magnetic": null, "ordering": null, "total_magnetization": 4.4904188, "total_magnetization_normalized_vol": null, "total_magnetization_normalized_formula_units": null, "num_magnetic_sites": null, "num_unique_magnetic_sites": null, "types_of_magnetic_species": null, "bulk_modulus": null, "shear_modulus": null, "universal_anisotropy": null, "homogeneous_poisson": null, "e_total": null, "e_ionic": null, "e_electronic": null, "n": null, "e_ij_max": null, "weighted_surface_energy_EV_PER_ANG2": null, "weighted_surface_energy": null, "weighted_work_function": null, "surface_anisotropy": null, "shape_factor": null, "has_reconstructed": null, "possible_species": null, "has_props": null, "theoretical": null, "database_IDs": null, "fields_not_requested": ["builder_meta", "nsites", "elements", "nelements", "composition", "composition_reduced", "chemsys", "symmetry", "property_name", "deprecated", "deprecation_reasons", "last_updated", "origins", "warnings", "task_ids", "uncorrected_energy_per_atom", "equilibrium_reaction_energy_per_atom", "decomposes_to", "xas", "grain_boundaries", "cbm", "vbm", "is_gap_direct", "is_metal", "es_source_calc_id", "bandstructure", "dos", "dos_energy_up", "dos_energy_down", "is_magnetic", "ordering", "total_magnetization_normalized_vol", "total_magnetization_normalized_formula_units", "num_magnetic_sites", "num_unique_magnetic_sites", "types_of_magnetic_species", "bulk_modulus", "shear_modulus", "universal_anisotropy", "homogeneous_poisson", "e_total", "e_ionic", "e_electronic", "n", "e_ij_max", "weighted_surface_energy_EV_PER_ANG2", "weighted_surface_energy", "weighted_work_function", "surface_anisotropy", "shape_factor", "has_reconstructed", "possible_species", "has_props", "theoretical", "database_IDs"]}