{"builder_meta": null, "nsites": null, "elements": null, "nelements": null, "composition": null, "composition_reduced": null, "formula_pretty": "TcBr3", "formula_anonymous": "AB3", "chemsys": null, "volume": 467.51005210251185, "density": 4.798048441847449, "density_atomic": 29.21937825640699, "symmetry": null, "property_name": null, "material_id": "mp-568753", "deprecated": null, "deprecation_reasons": null, "last_updated": null, "origins": null, "warnings": null, "structure": {"@module": "pymatgen.core.structure", "@class": "Structure", "charge": 0, "lattice": {"matrix": [[5.94827097, 0.000224, 0.0], [0.00025688, 6.74256364, 0.0], [0.0, 0.0, 11.65668754]], "pbc": [true, true, true], "a": 5.948270974217697, "b": 6.742563644893342, "c": 11.65668754, "alpha": 90.0, "beta": 90.0, "gamma": 89.99565948543103, "volume": 467.51005210251185}, "properties": {}, "sites": [{"species": [{"element": "Tc", "occu": 1}], "abc": [0.02951763, 0.24516522000000002, 0.25], "properties": {"magmom": 0.871}, "label": "Tc", "xyz": [0.1756418396739147, 1.653048710113721, 2.914171885]}, {"species": [{"element": "Tc", "occu": 1}], "abc": [0.97050206, 0.75533141, 0.75], "properties": {"magmom": 0.882}, "label": "Tc", "xyz": [5.7730032593558, 5.093087493677373, 8.742515655]}, {"species": [{"element": "Tc", "occu": 1}], "abc": [0.52956834, 0.75481836, 0.75], "properties": {"magmom": 0.871}, "label": "Tc", "xyz": [3.1502098811934065, 5.089529452248591, 8.742515655]}, {"species": [{"element": "Tc", "occu": 1}], "abc": [0.470578499999999, 0.24465578000000002, 0.25], "properties": {"magmom": 0.881}, "label": "Tc", "xyz": [2.7991912778329056, 1.6497125761278395, 2.914171885]}, {"species": [{"element": "Br", "occu": 1}], "abc": [0.24768933, 0.40311142, 0.40992821], "properties": {"magmom": 0.01}, "label": "Br", "xyz": [1.47342680247932, 2.718059885770689, 4.778405057801503]}, {"species": [{"element": "Br", "occu": 1}], "abc": [0.74770834, 0.59687078, 0.90995326], "properties": {"magmom": 0.01}, "label": "Br", "xyz": [4.447725137014856, 4.0246067056746, 10.607040827824381]}, {"species": [{"element": "Br", "occu": 1}], "abc": [0.75342975, 0.09985141, 0.10470926], "properties": {"magmom": 0.016}, "label": "Br", "xyz": [4.481629959689559, 0.6734232547327325, 1.2205631263646204]}, {"species": [{"element": "Br", "occu": 1}], "abc": [0.24294134, 0.46469136, 0.75], "properties": {"magmom": 0.019}, "label": "Br", "xyz": [1.4452002900514567, 3.1332654866183103, 8.742515655]}, {"species": [{"element": "Br", "occu": 1}], "abc": [0.25324024, 0.9001733900000001, 0.89530041], "properties": {"magmom": 0.016}, "label": "Br", "xyz": [1.506572804568256, 6.0695330949233, 10.436237133803893]}, {"species": [{"element": "Br", "occu": 1}], "abc": [0.75342975, 0.09985141, 0.39529074000000003], "properties": {"magmom": 0.016}, "label": "Br", "xyz": [4.481629959689559, 0.6734232547327325, 4.60778064363538]}, {"species": [{"element": "Br", "occu": 1}], "abc": [0.74770834, 0.59687078, 0.59004674], "properties": {"magmom": 0.01}, "label": "Br", "xyz": [4.447725137014856, 4.0246067056746, 6.87799048217562]}, {"species": [{"element": "Br", "occu": 1}], "abc": [0.74303599, 0.53529711, 0.25], "properties": {"magmom": 0.019}, "label": "Br", "xyz": [4.419916916103827, 3.6094412705448407, 2.914171885]}, {"species": [{"element": "Br", "occu": 1}], "abc": [0.7548307, 0.07322788, 0.75], "properties": {"magmom": 0.012}, "label": "Br", "xyz": [4.4899563508525935, 0.4939127231990832, 8.742515655]}, {"species": [{"element": "Br", "occu": 1}], "abc": [0.25324024, 0.9001733900000001, 0.6046995900000001], "properties": {"magmom": 0.016}, "label": "Br", "xyz": [1.506572804568256, 6.0695330949233, 7.048794176196109]}, {"species": [{"element": "Br", "occu": 1}], "abc": [0.25489112, 0.92680188, 0.25], "properties": {"magmom": 0.012}, "label": "Br", "xyz": [1.516399526473721, 6.249077753182523, 2.914171885]}, {"species": [{"element": "Br", "occu": 1}], "abc": [0.24768933, 0.40311142, 0.09007179], "properties": {"magmom": 0.01}, "label": "Br", "xyz": [1.47342680247932, 2.718059885770689, 1.0499387121984967]}]}, "task_ids": null, "uncorrected_energy_per_atom": null, "energy_per_atom": -4.606608215625, "formation_energy_per_atom": -0.788738578124999, "energy_above_hull": 0.0, "is_stable": true, "equilibrium_reaction_energy_per_atom": null, "decomposes_to": null, "xas": null, "grain_boundaries": null, "band_gap": 0.134, "cbm": null, "vbm": null, "efermi": 1.03802316, "is_gap_direct": null, "is_metal": null, "es_source_calc_id": null, "bandstructure": null, "dos": null, "dos_energy_up": null, "dos_energy_down": null, "is_magnetic": null, "ordering": null, "total_magnetization": 4.0019368, "total_magnetization_normalized_vol": null, "total_magnetization_normalized_formula_units": null, "num_magnetic_sites": null, "num_unique_magnetic_sites": null, "types_of_magnetic_species": null, "bulk_modulus": null, "shear_modulus": null, "universal_anisotropy": null, "homogeneous_poisson": null, "e_total": null, "e_ionic": null, "e_electronic": null, "n": null, "e_ij_max": null, "weighted_surface_energy_EV_PER_ANG2": null, "weighted_surface_energy": null, "weighted_work_function": null, "surface_anisotropy": null, "shape_factor": null, "has_reconstructed": null, "possible_species": null, "has_props": null, "theoretical": null, "database_IDs": null, "fields_not_requested": ["builder_meta", "nsites", "elements", "nelements", "composition", "composition_reduced", "chemsys", "symmetry", "property_name", "deprecated", "deprecation_reasons", "last_updated", "origins", "warnings", "task_ids", "uncorrected_energy_per_atom", "equilibrium_reaction_energy_per_atom", "decomposes_to", "xas", "grain_boundaries", "cbm", "vbm", "is_gap_direct", "is_metal", "es_source_calc_id", "bandstructure", "dos", "dos_energy_up", "dos_energy_down", "is_magnetic", "ordering", "total_magnetization_normalized_vol", "total_magnetization_normalized_formula_units", "num_magnetic_sites", "num_unique_magnetic_sites", "types_of_magnetic_species", "bulk_modulus", "shear_modulus", "universal_anisotropy", "homogeneous_poisson", "e_total", "e_ionic", "e_electronic", "n", "e_ij_max", "weighted_surface_energy_EV_PER_ANG2", "weighted_surface_energy", "weighted_work_function", "surface_anisotropy", "shape_factor", "has_reconstructed", "possible_species", "has_props", "theoretical", "database_IDs"]}