{"builder_meta": null, "nsites": null, "elements": null, "nelements": null, "composition": null, "composition_reduced": null, "formula_pretty": "TcCl3", "formula_anonymous": "AB3", "chemsys": null, "volume": 648.5192809230168, "density": 3.1395776171372622, "density_atomic": 27.0216367051257, "symmetry": null, "property_name": null, "material_id": "mp-1190915", "deprecated": null, "deprecation_reasons": null, "last_updated": null, "origins": null, "warnings": null, "structure": {"@module": "pymatgen.core.structure", "@class": "Structure", "charge": 0, "lattice": {"matrix": [[5.10185168, 2.945554699999999, 7.19244664], [-5.10185168, 2.945554699999999, 7.19244664], [0.0, -5.89111046, 7.19244766]], "pbc": [true, true, true], "a": 9.297121690322129, "b": 9.297121690322129, "c": 9.297122446959644, "alpha": 66.5634172987387, "beta": 66.5634172987387, "gamma": 66.5634277808736, "volume": 648.5192809230167}, "properties": {}, "sites": [{"species": [{"element": "Tc", "occu": 1}], "abc": [0.14480174, 0.37913897, 0.14480274], "properties": {"magmom": 0.0}, "label": "Tc", "xyz": [-1.1955537905620464, 0.690247084611176, 4.809901727673303]}, {"species": [{"element": "Tc", "occu": 1}], "abc": [0.37913897, 0.14480274, 0.14480174], "properties": {"magmom": 0.0}, "label": "Tc", "xyz": [1.1955486887103666, 0.6902559212763362, 4.809901727672283]}, {"species": [{"element": "Tc", "occu": 1}], "abc": [0.14480274, 0.14480174, 0.37913897], "properties": {"magmom": 0.0}, "label": "Tc", "xyz": [5.101851680011649e-06, -1.3805037147555708, 4.809901966696257]}, {"species": [{"element": "Tc", "occu": 1}], "abc": [0.85519826, 0.62086103, 0.8551972600000001], "properties": {"magmom": 0.0}, "label": "Tc", "xyz": [1.1955537905620464, -0.6902481446111786, 16.767439212326696]}, {"species": [{"element": "Tc", "occu": 1}], "abc": [0.62086103, 0.8551972600000001, 0.85519826], "properties": {"magmom": 0.0}, "label": "Tc", "xyz": [-1.1955486887103666, -0.6902569812763382, 16.76743921232772]}, {"species": [{"element": "Tc", "occu": 1}], "abc": [0.8551972600000001, 0.85519826, 0.62086103], "properties": {"magmom": 0.0}, "label": "Tc", "xyz": [-5.101851679789604e-06, 1.3805026547555683, 16.767438973303744]}, {"species": [{"element": "Cl", "occu": 1}], "abc": [0.9088136800000001, 0.37746007, 0.37746207], "properties": {"magmom": -0.0}, "label": "Cl", "xyz": [2.7108873078525653, 1.5651189409688717, 11.966331493417956]}, {"species": [{"element": "Cl", "occu": 1}], "abc": [0.37746007, 0.37746207, 0.9088136800000001], "properties": {"magmom": -0.0}, "label": "Cl", "xyz": [-1.0203703360023297e-05, -3.1302573188280363, 11.966332035396599]}, {"species": [{"element": "Cl", "occu": 1}], "abc": [0.37746207, 0.9088136800000001, 0.37746007], "properties": {"magmom": -0.0}, "label": "Cl", "xyz": [-2.7108771041492057, 1.5651366142991918, 11.966331493415916]}, {"species": [{"element": "Cl", "occu": 1}], "abc": [0.09118632, 0.62253893, 0.62253793], "properties": {"magmom": -0.0}, "label": "Cl", "xyz": [-2.710882206000885, -1.5651229465235734, 9.611002254135403]}, {"species": [{"element": "Cl", "occu": 1}], "abc": [0.62253893, 0.62253793, 0.09118632], "properties": {"magmom": -0.0}, "label": "Cl", "xyz": [5.101851679789604e-06, 3.1302533132733332, 9.611001712156762]}, {"species": [{"element": "Cl", "occu": 1}], "abc": [0.62253793, 0.09118632, 0.62253893], "properties": {"magmom": -0.0}, "label": "Cl", "xyz": [2.7108771041492052, -1.565131783188734, 9.611002254136425]}, {"species": [{"element": "Cl", "occu": 1}], "abc": [0.00968525, 0.32632515, 0.00968525], "properties": {"magmom": 0.0}, "label": "Cl", "xyz": [-1.6154498057700322, 0.9326801353861647, 2.4863975261840716]}, {"species": [{"element": "Cl", "occu": 1}], "abc": [0.32632515, 0.00968525, 0.00968525], "properties": {"magmom": 0.0}, "label": "Cl", "xyz": [1.6154498057700322, 0.9326801353861647, 2.4863975261840716]}, {"species": [{"element": "Cl", "occu": 1}], "abc": [0.00968525, 0.00968525, 0.32632515], "properties": {"magmom": 0.0}, "label": "Cl", "xyz": [0.0, -1.8653606372097191, 2.486397849156769]}, {"species": [{"element": "Cl", "occu": 1}], "abc": [0.99031475, 0.67367485, 0.99031475], "properties": {"magmom": 0.0}, "label": "Cl", "xyz": [1.615449805770032, -0.9326811953861665, 19.09094341381593]}, {"species": [{"element": "Cl", "occu": 1}], "abc": [0.67367485, 0.99031475, 0.99031475], "properties": {"magmom": 0.0}, "label": "Cl", "xyz": [-1.615449805770032, -0.9326811953861665, 19.09094341381593]}, {"species": [{"element": "Cl", "occu": 1}], "abc": [0.99031475, 0.99031475, 0.67367485], "properties": {"magmom": 0.0}, "label": "Cl", "xyz": [0.0, 1.8653595772097167, 19.090943090843233]}, {"species": [{"element": "Cl", "occu": 1}], "abc": [0.22008068, 0.5328285700000001, 0.22008368], "properties": {"magmom": 0.0}, "label": "Cl", "xyz": [-1.5955933480129554, 0.9211981106876812, 6.998199954607609]}, {"species": [{"element": "Cl", "occu": 1}], "abc": [0.5328285700000001, 0.22008368, 0.22008068], "properties": {"magmom": 0.0}, "label": "Cl", "xyz": [1.5955780424579156, 0.9212246206831611, 6.998199954604549]}, {"species": [{"element": "Cl", "occu": 1}], "abc": [0.22008368, 0.22008068, 0.5328285700000001], "properties": {"magmom": 0.0}, "label": "Cl", "xyz": [1.53055550398129e-05, -1.8424237627433508, 6.998200273607397]}, {"species": [{"element": "Cl", "occu": 1}], "abc": [0.77991932, 0.46717143, 0.77991632], "properties": {"magmom": 0.0}, "label": "Cl", "xyz": [1.5955933480129554, -0.9211991706876836, 14.57914098539239]}, {"species": [{"element": "Cl", "occu": 1}], "abc": [0.46717143, 0.77991632, 0.77991932], "properties": {"magmom": 0.0}, "label": "Cl", "xyz": [-1.5955780424579156, -0.9212256806831638, 14.579140985395451]}, {"species": [{"element": "Cl", "occu": 1}], "abc": [0.77991632, 0.77991932, 0.46717143], "properties": {"magmom": 0.0}, "label": "Cl", "xyz": [-1.53055550398129e-05, 1.842422702743348, 14.579140666392602]}]}, "task_ids": null, "uncorrected_energy_per_atom": null, "energy_per_atom": -11.951940243333333, "formation_energy_per_atom": -0.8464455577083331, "energy_above_hull": 0.0, "is_stable": true, "equilibrium_reaction_energy_per_atom": null, "decomposes_to": null, "xas": null, "grain_boundaries": null, "band_gap": 0.6643, "cbm": null, "vbm": null, "efermi": 0.72941364, "is_gap_direct": null, "is_metal": null, "es_source_calc_id": null, "bandstructure": null, "dos": null, "dos_energy_up": null, "dos_energy_down": null, "is_magnetic": null, "ordering": null, "total_magnetization": 0.0, "total_magnetization_normalized_vol": null, "total_magnetization_normalized_formula_units": null, "num_magnetic_sites": null, "num_unique_magnetic_sites": null, "types_of_magnetic_species": null, "bulk_modulus": null, "shear_modulus": null, "universal_anisotropy": null, "homogeneous_poisson": null, "e_total": null, "e_ionic": null, "e_electronic": null, "n": null, "e_ij_max": null, "weighted_surface_energy_EV_PER_ANG2": null, "weighted_surface_energy": null, "weighted_work_function": null, "surface_anisotropy": null, "shape_factor": null, "has_reconstructed": null, "possible_species": null, "has_props": null, "theoretical": null, "database_IDs": null, "fields_not_requested": ["builder_meta", "nsites", "elements", "nelements", "composition", "composition_reduced", "chemsys", "symmetry", "property_name", "deprecated", "deprecation_reasons", "last_updated", "origins", "warnings", "task_ids", "uncorrected_energy_per_atom", "equilibrium_reaction_energy_per_atom", "decomposes_to", "xas", "grain_boundaries", "cbm", "vbm", "is_gap_direct", "is_metal", "es_source_calc_id", "bandstructure", "dos", "dos_energy_up", "dos_energy_down", "is_magnetic", "ordering", "total_magnetization_normalized_vol", "total_magnetization_normalized_formula_units", "num_magnetic_sites", "num_unique_magnetic_sites", "types_of_magnetic_species", "bulk_modulus", "shear_modulus", "universal_anisotropy", "homogeneous_poisson", "e_total", "e_ionic", "e_electronic", "n", "e_ij_max", "weighted_surface_energy_EV_PER_ANG2", "weighted_surface_energy", "weighted_work_function", "surface_anisotropy", "shape_factor", "has_reconstructed", "possible_species", "has_props", "theoretical", "database_IDs"]}