{"builder_meta": null, "nsites": null, "elements": null, "nelements": null, "composition": null, "composition_reduced": null, "formula_pretty": "TcCl4", "formula_anonymous": "AB4", "chemsys": null, "volume": 1046.3788891517179, "density": 3.04453538784451, "density_atomic": 26.159472228792946, "symmetry": null, "property_name": null, "material_id": "mp-27780", "deprecated": null, "deprecation_reasons": null, "last_updated": null, "origins": null, "warnings": null, "structure": {"@module": "pymatgen.core.structure", "@class": "Structure", "charge": 0, "lattice": {"matrix": [[6.07604426, 0.0, 0.0], [0.0, 11.96648068, 0.0], [0.0, 0.0, 14.39135202]], "pbc": [true, true, true], "a": 6.07604426, "b": 11.96648068, "c": 14.39135202, "alpha": 90.0, "beta": 90.0, "gamma": 90.0, "volume": 1046.3788891517179}, "properties": {}, "sites": [{"species": [{"element": "Tc", "occu": 1}], "abc": [0.89789074, 0.62842119, 0.32026585], "properties": {"magmom": 2.358}, "label": "Tc", "xyz": [5.455623876884152, 7.519990029037609, 4.609058587334517]}, {"species": [{"element": "Tc", "occu": 1}], "abc": [0.39789074, 0.87157881, 0.67973415], "properties": {"magmom": 2.358}, "label": "Tc", "xyz": [2.4176017468841526, 10.42973099096239, 9.782293432665483]}, {"species": [{"element": "Tc", "occu": 1}], "abc": [0.10211635000000001, 0.12841926, 0.179734199999999], "properties": {"magmom": 2.358}, "label": "Tc", "xyz": [0.620463462269651, 1.5367265937298968, 2.58661814223307]}, {"species": [{"element": "Tc", "occu": 1}], "abc": [0.60211635, 0.37158074, 0.820265799999999], "properties": {"magmom": 2.358}, "label": "Tc", "xyz": [3.658485592269651, 4.446513746270104, 11.804733877766902]}, {"species": [{"element": "Tc", "occu": 1}], "abc": [0.10211635000000001, 0.37158074, 0.6797342], "properties": {"magmom": 2.358}, "label": "Tc", "xyz": [0.620463462269651, 4.446513746270104, 9.782294152233083]}, {"species": [{"element": "Tc", "occu": 1}], "abc": [0.60211635, 0.12841926, 0.3202658], "properties": {"magmom": 2.358}, "label": "Tc", "xyz": [3.658485592269651, 1.5367265937298968, 4.609057867766916]}, {"species": [{"element": "Tc", "occu": 1}], "abc": [0.89789074, 0.87157881, 0.82026585], "properties": {"magmom": 2.358}, "label": "Tc", "xyz": [5.455623876884152, 10.42973099096239, 11.804734597334516]}, {"species": [{"element": "Tc", "occu": 1}], "abc": [0.39789074, 0.62842119, 0.17973415], "properties": {"magmom": 2.358}, "label": "Tc", "xyz": [2.4176017468841526, 7.519990029037609, 2.586617422665483]}, {"species": [{"element": "Cl", "occu": 1}], "abc": [0.75189197, 0.51228596, 0.425890999999999], "properties": {"magmom": 0.147}, "label": "Cl", "xyz": [4.568528888458592, 6.130260042975253, 6.129147303149805]}, {"species": [{"element": "Cl", "occu": 1}], "abc": [0.25189197, 0.9877140400000001, 0.574109], "properties": {"magmom": 0.147}, "label": "Cl", "xyz": [1.5305067584585923, 11.819460977024749, 8.26220471685018]}, {"species": [{"element": "Cl", "occu": 1}], "abc": [0.24811088, 0.012282350000000001, 0.07411176], "properties": {"magmom": 0.147}, "label": "Cl", "xyz": [1.5075326882675488, 0.146976503979998, 1.066568426981755]}, {"species": [{"element": "Cl", "occu": 1}], "abc": [0.74811088, 0.48771765, 0.92588824], "properties": {"magmom": 0.147}, "label": "Cl", "xyz": [4.545554818267549, 5.836263836020002, 13.324783593018244]}, {"species": [{"element": "Cl", "occu": 1}], "abc": [0.24811088, 0.48771765, 0.57411176], "properties": {"magmom": 0.147}, "label": "Cl", "xyz": [1.5075326882675488, 5.836263836020002, 8.262244436981755]}, {"species": [{"element": "Cl", "occu": 1}], "abc": [0.74811088, 0.012282350000000001, 0.42588824000000003], "properties": {"magmom": 0.147}, "label": "Cl", "xyz": [4.545554818267549, 0.146976503979998, 6.129107583018245]}, {"species": [{"element": "Cl", "occu": 1}], "abc": [0.75189197, 0.9877140400000001, 0.925890999999999], "properties": {"magmom": 0.147}, "label": "Cl", "xyz": [4.568528888458592, 11.819460977024749, 13.324823313149805]}, {"species": [{"element": "Cl", "occu": 1}], "abc": [0.25189197, 0.51228596, 0.074109], "properties": {"magmom": 0.147}, "label": "Cl", "xyz": [1.5305067584585923, 6.130260042975253, 1.0665287068501799]}, {"species": [{"element": "Cl", "occu": 1}], "abc": [0.57345621, 0.739829, 0.30664381], "properties": {"magmom": 0.039}, "label": "Cl", "xyz": [3.4843453131318545, 8.85314943500372, 4.4130190144639965]}, {"species": [{"element": "Cl", "occu": 1}], "abc": [0.07345621000000001, 0.760170999999999, 0.69335619], "properties": {"magmom": 0.039}, "label": "Cl", "xyz": [0.44632318313185465, 9.09657158499627, 9.978333005536005]}, {"species": [{"element": "Cl", "occu": 1}], "abc": [0.42654099, 0.239827699999999, 0.19336163], "properties": {"magmom": 0.039}, "label": "Cl", "xyz": [2.5916819339442174, 2.869893538578824, 2.7827352844909927]}, {"species": [{"element": "Cl", "occu": 1}], "abc": [0.92654099, 0.260172299999999, 0.80663837], "properties": {"magmom": 0.039}, "label": "Cl", "xyz": [5.629704063944217, 3.1133468014211525, 11.608616735509008]}, {"species": [{"element": "Cl", "occu": 1}], "abc": [0.42654099, 0.260172299999999, 0.6933616300000001], "properties": {"magmom": 0.039}, "label": "Cl", "xyz": [2.5916819339442174, 3.1133468014211525, 9.978411294490993]}, {"species": [{"element": "Cl", "occu": 1}], "abc": [0.92654099, 0.239827699999999, 0.30663837], "properties": {"magmom": 0.039}, "label": "Cl", "xyz": [5.629704063944217, 2.869893538578824, 4.412940725509007]}, {"species": [{"element": "Cl", "occu": 1}], "abc": [0.57345621, 0.760170999999999, 0.8066438100000001], "properties": {"magmom": 0.039}, "label": "Cl", "xyz": [3.4843453131318545, 9.09657158499627, 11.608695024463996]}, {"species": [{"element": "Cl", "occu": 1}], "abc": [0.07345621000000001, 0.739829, 0.19335619], "properties": {"magmom": 0.039}, "label": "Cl", "xyz": [0.44632318313185465, 8.85314943500372, 2.7826569955360037]}, {"species": [{"element": "Cl", "occu": 1}], "abc": [0.22205144000000002, 0.5167162200000001, 0.30660299], "properties": {"magmom": 0.038}, "label": "Cl", "xyz": [1.3491943774367345, 6.183274663672631, 4.41243155947454]}, {"species": [{"element": "Cl", "occu": 1}], "abc": [0.72205144, 0.98328378, 0.69339701], "properties": {"magmom": 0.038}, "label": "Cl", "xyz": [4.387216507436734, 11.766446356327371, 9.97892046052546]}, {"species": [{"element": "Cl", "occu": 1}], "abc": [0.77793735, 0.01671313, 0.19339414], "properties": {"magmom": 0.038}, "label": "Cl", "xyz": [4.72678177010711, 0.1999973472473284, 2.7832031473451626]}, {"species": [{"element": "Cl", "occu": 1}], "abc": [0.27793735, 0.48328687000000004, 0.80660586], "properties": {"magmom": 0.038}, "label": "Cl", "xyz": [1.688759640107111, 5.7832429927526725, 11.608148872654837]}, {"species": [{"element": "Cl", "occu": 1}], "abc": [0.77793735, 0.48328687000000004, 0.69339414], "properties": {"magmom": 0.038}, "label": "Cl", "xyz": [4.72678177010711, 5.7832429927526725, 9.978879157345162]}, {"species": [{"element": "Cl", "occu": 1}], "abc": [0.27793735, 0.01671313, 0.30660586], "properties": {"magmom": 0.038}, "label": "Cl", "xyz": [1.688759640107111, 0.1999973472473284, 4.4124728626548375]}, {"species": [{"element": "Cl", "occu": 1}], "abc": [0.22205144000000002, 0.98328378, 0.80660299], "properties": {"magmom": 0.038}, "label": "Cl", "xyz": [1.3491943774367345, 11.766446356327371, 11.608107569474539]}, {"species": [{"element": "Cl", "occu": 1}], "abc": [0.72205144, 0.5167162200000001, 0.19339701], "properties": {"magmom": 0.038}, "label": "Cl", "xyz": [4.387216507436734, 6.183274663672631, 2.7832444505254603]}, {"species": [{"element": "Cl", "occu": 1}], "abc": [0.54385567, 0.74481734, 0.07435804], "properties": {"magmom": 0.148}, "label": "Cl", "xyz": [3.304491121971954, 8.912842309238991, 1.0701127291572408]}, {"species": [{"element": "Cl", "occu": 1}], "abc": [0.04385567, 0.75518266, 0.92564196], "properties": {"magmom": 0.148}, "label": "Cl", "xyz": [0.26646899197195417, 9.036878710761009, 13.321239290842758]}, {"species": [{"element": "Cl", "occu": 1}], "abc": [0.456150399999999, 0.24481576, 0.42564367000000003], "properties": {"magmom": 0.148}, "label": "Cl", "xyz": [2.771590019616698, 2.9295830621995167, 6.125587890054714]}, {"species": [{"element": "Cl", "occu": 1}], "abc": [0.9561504, 0.25518424, 0.57435633], "properties": {"magmom": 0.148}, "label": "Cl", "xyz": [5.8096121496167035, 3.0536572778004833, 8.265764129945286]}, {"species": [{"element": "Cl", "occu": 1}], "abc": [0.456150399999999, 0.25518424, 0.92564367], "properties": {"magmom": 0.148}, "label": "Cl", "xyz": [2.771590019616698, 3.0536572778004833, 13.321263900054714]}, {"species": [{"element": "Cl", "occu": 1}], "abc": [0.9561504, 0.24481576, 0.07435633], "properties": {"magmom": 0.148}, "label": "Cl", "xyz": [5.8096121496167035, 2.9295830621995167, 1.0700881199452865]}, {"species": [{"element": "Cl", "occu": 1}], "abc": [0.54385567, 0.75518266, 0.57435804], "properties": {"magmom": 0.148}, "label": "Cl", "xyz": [3.304491121971954, 9.036878710761009, 8.26578873915724]}, {"species": [{"element": "Cl", "occu": 1}], "abc": [0.04385567, 0.74481734, 0.42564196], "properties": {"magmom": 0.148}, "label": "Cl", "xyz": [0.26646899197195417, 8.912842309238991, 6.1255632808427585]}]}, "task_ids": null, "uncorrected_energy_per_atom": null, "energy_per_atom": -11.000679877, "formation_energy_per_atom": -0.885796349, "energy_above_hull": 0.0, "is_stable": true, "equilibrium_reaction_energy_per_atom": null, "decomposes_to": null, "xas": null, "grain_boundaries": null, "band_gap": 0.8658, "cbm": null, "vbm": null, "efermi": -0.12666412, "is_gap_direct": null, "is_metal": null, "es_source_calc_id": null, "bandstructure": null, "dos": null, "dos_energy_up": null, "dos_energy_down": null, "is_magnetic": null, "ordering": null, "total_magnetization": 24.0000001, "total_magnetization_normalized_vol": null, "total_magnetization_normalized_formula_units": null, "num_magnetic_sites": null, "num_unique_magnetic_sites": null, "types_of_magnetic_species": null, "bulk_modulus": null, "shear_modulus": null, "universal_anisotropy": null, "homogeneous_poisson": null, "e_total": null, "e_ionic": null, "e_electronic": null, "n": null, "e_ij_max": null, "weighted_surface_energy_EV_PER_ANG2": null, "weighted_surface_energy": null, "weighted_work_function": null, "surface_anisotropy": null, "shape_factor": null, "has_reconstructed": null, "possible_species": null, "has_props": null, "theoretical": null, "database_IDs": null, "fields_not_requested": ["builder_meta", "nsites", "elements", "nelements", "composition", "composition_reduced", "chemsys", "symmetry", "property_name", "deprecated", "deprecation_reasons", "last_updated", "origins", "warnings", "task_ids", "uncorrected_energy_per_atom", "equilibrium_reaction_energy_per_atom", "decomposes_to", "xas", "grain_boundaries", "cbm", "vbm", "is_gap_direct", "is_metal", "es_source_calc_id", "bandstructure", "dos", "dos_energy_up", "dos_energy_down", "is_magnetic", "ordering", "total_magnetization_normalized_vol", "total_magnetization_normalized_formula_units", "num_magnetic_sites", "num_unique_magnetic_sites", "types_of_magnetic_species", "bulk_modulus", "shear_modulus", "universal_anisotropy", "homogeneous_poisson", "e_total", "e_ionic", "e_electronic", "n", "e_ij_max", "weighted_surface_energy_EV_PER_ANG2", "weighted_surface_energy", "weighted_work_function", "surface_anisotropy", "shape_factor", "has_reconstructed", "possible_species", "has_props", "theoretical", "database_IDs"]}