{
  "builder_meta": null,
  "nsites": null,
  "elements": null,
  "nelements": null,
  "composition": null,
  "composition_reduced": null,
  "formula_pretty": "TcF3",
  "formula_anonymous": "AB3",
  "chemsys": null,
  "volume": 119.6869390089904,
  "density": 4.30081348571079,
  "density_atomic": 14.960867376123801,
  "symmetry": null,
  "property_name": null,
  "material_id": "mp-867369",
  "deprecated": null,
  "deprecation_reasons": null,
  "last_updated": null,
  "origins": null,
  "warnings": null,
  "structure": {
    "@module": "pymatgen.core.structure",
    "@class": "Structure",
    "charge": 0,
    "lattice": {
      "matrix": [
        [3.346844, -5.823627, 0.0],
        [3.346844, 5.823627, 0.0],
        [0.0, 0.0, 3.070349]
      ],
      "pbc": [true, true, true],
      "a": 6.7168442140238005,
      "b": 6.7168442140238005,
      "c": 3.070349,
      "alpha": 90.0,
      "beta": 90.0,
      "gamma": 120.2279529640762,
      "volume": 119.6869390089904
    },
    "properties": {},
    "sites": [
      {
        "species": [{ "element": "Tc", "occu": 1 }],
        "abc": [0.333555, 0.666445, 0.5],
        "properties": { "magmom": 1.737 },
        "label": "Tc",
        "xyz": [3.346844, 1.9386271920299998, 1.5351745]
      },
      {
        "species": [{ "element": "Tc", "occu": 1 }],
        "abc": [0.648396, 0.35160399999999903, 0.0],
        "properties": { "magmom": 3.259 },
        "label": "Tc",
        "xyz": [3.3468439999999964, -1.728405904584006, 0.0]
      },
      {
        "species": [{ "element": "F", "occu": 1 }],
        "abc": [0.215891, 0.784109, 0.0],
        "properties": { "magmom": 0.031 },
        "label": "F",
        "xyz": [3.346844, 3.309089686686, 0.0]
      },
      {
        "species": [{ "element": "F", "occu": 1 }],
        "abc": [0.213283, 0.422738, 0.0],
        "properties": { "magmom": 0.032 },
        "label": "F",
        "xyz": [2.128663067724, 1.219787793285, 0.0]
      },
      {
        "species": [{ "element": "F", "occu": 1 }],
        "abc": [0.577261999999999, 0.786717, 0.0],
        "properties": { "magmom": 0.032 },
        "label": "F",
        "xyz": [4.565024932275997, 1.2197877932850054, 0.0]
      },
      {
        "species": [{ "element": "F", "occu": 1 }],
        "abc": [0.789011999999999, 0.210987999999999, 0.5],
        "properties": { "magmom": 0.224 },
        "label": "F",
        "xyz": [3.3468439999999937, -3.3661961730480003, 1.5351745]
      },
      {
        "species": [{ "element": "F", "occu": 1 }],
        "abc": [0.809349, 0.588486, 0.5],
        "properties": { "magmom": 0.075 },
        "label": "F",
        "xyz": [4.678335682739999, -1.2862237301010002, 1.5351745]
      },
      {
        "species": [{ "element": "F", "occu": 1 }],
        "abc": [0.411514, 0.190651, 0.5],
        "properties": { "magmom": 0.075 },
        "label": "F",
        "xyz": [2.0153523172599996, -1.286223730101, 1.5351745]
      }
    ]
  },
  "task_ids": null,
  "uncorrected_energy_per_atom": null,
  "energy_per_atom": -10.510283991484375,
  "formation_energy_per_atom": -1.6745975164843752,
  "energy_above_hull": 0.45278484289062604,
  "is_stable": false,
  "equilibrium_reaction_energy_per_atom": null,
  "decomposes_to": null,
  "xas": null,
  "grain_boundaries": null,
  "band_gap": 0.0,
  "cbm": null,
  "vbm": null,
  "efermi": 1.19820778,
  "is_gap_direct": null,
  "is_metal": null,
  "es_source_calc_id": null,
  "bandstructure": null,
  "dos": null,
  "dos_energy_up": null,
  "dos_energy_down": null,
  "is_magnetic": null,
  "ordering": null,
  "total_magnetization": 6.0022157,
  "total_magnetization_normalized_vol": null,
  "total_magnetization_normalized_formula_units": null,
  "num_magnetic_sites": null,
  "num_unique_magnetic_sites": null,
  "types_of_magnetic_species": null,
  "bulk_modulus": null,
  "shear_modulus": null,
  "universal_anisotropy": null,
  "homogeneous_poisson": null,
  "e_total": null,
  "e_ionic": null,
  "e_electronic": null,
  "n": null,
  "e_ij_max": null,
  "weighted_surface_energy_EV_PER_ANG2": null,
  "weighted_surface_energy": null,
  "weighted_work_function": null,
  "surface_anisotropy": null,
  "shape_factor": null,
  "has_reconstructed": null,
  "possible_species": null,
  "has_props": null,
  "theoretical": null,
  "database_IDs": null,
  "fields_not_requested": [
    "builder_meta",
    "nsites",
    "elements",
    "nelements",
    "composition",
    "composition_reduced",
    "chemsys",
    "symmetry",
    "property_name",
    "deprecated",
    "deprecation_reasons",
    "last_updated",
    "origins",
    "warnings",
    "task_ids",
    "uncorrected_energy_per_atom",
    "equilibrium_reaction_energy_per_atom",
    "decomposes_to",
    "xas",
    "grain_boundaries",
    "cbm",
    "vbm",
    "is_gap_direct",
    "is_metal",
    "es_source_calc_id",
    "bandstructure",
    "dos",
    "dos_energy_up",
    "dos_energy_down",
    "is_magnetic",
    "ordering",
    "total_magnetization_normalized_vol",
    "total_magnetization_normalized_formula_units",
    "num_magnetic_sites",
    "num_unique_magnetic_sites",
    "types_of_magnetic_species",
    "bulk_modulus",
    "shear_modulus",
    "universal_anisotropy",
    "homogeneous_poisson",
    "e_total",
    "e_ionic",
    "e_electronic",
    "n",
    "e_ij_max",
    "weighted_surface_energy_EV_PER_ANG2",
    "weighted_surface_energy",
    "weighted_work_function",
    "surface_anisotropy",
    "shape_factor",
    "has_reconstructed",
    "possible_species",
    "has_props",
    "theoretical",
    "database_IDs"
  ]
}
