{"builder_meta": null, "nsites": null, "elements": null, "nelements": null, "composition": null, "composition_reduced": null, "formula_pretty": "TcF4", "formula_anonymous": "AB4", "chemsys": null, "volume": 563.4330574390455, "density": 4.102325024470623, "density_atomic": 14.085826435976136, "symmetry": null, "property_name": null, "material_id": "mp-1203061", "deprecated": null, "deprecation_reasons": null, "last_updated": null, "origins": null, "warnings": null, "structure": {"@module": "pymatgen.core.structure", "@class": "Structure", "charge": 0, "lattice": {"matrix": [[-0.0, 0.0, 5.3816679], [9.33728238, 0.0, 0.0], [0.0, 11.21256405, 0.0]], "pbc": [true, true, true], "a": 5.3816679, "b": 9.33728238, "c": 11.21256405, "alpha": 90.0, "beta": 90.0, "gamma": 90.0, "volume": 563.4330574390455}, "properties": {}, "sites": [{"species": [{"element": "Tc", "occu": 1}], "abc": [0.59350248, 0.62843366, 0.17258778], "properties": {"magmom": 2.457}, "label": "Tc", "xyz": [5.867862540516911, 1.9351515374973087, 3.194033245186392]}, {"species": [{"element": "Tc", "occu": 1}], "abc": [0.40649752, 0.12843366, 0.32741222000000003], "properties": {"magmom": 2.457}, "label": "Tc", "xyz": [1.1992213505169107, 3.671130487502691, 2.187634654813608]}, {"species": [{"element": "Tc", "occu": 1}], "abc": [0.9064975200000001, 0.37156634, 0.67258778], "properties": {"magmom": 2.457}, "label": "Tc", "xyz": [3.469419839483089, 7.541433562497308, 4.878468604813609]}, {"species": [{"element": "Tc", "occu": 1}], "abc": [0.09350248, 0.87156634, 0.82741222], "properties": {"magmom": 2.457}, "label": "Tc", "xyz": [8.138061029483088, 9.277412512502691, 0.503199295186392]}, {"species": [{"element": "Tc", "occu": 1}], "abc": [0.40649752, 0.37156634, 0.82741222], "properties": {"magmom": 2.457}, "label": "Tc", "xyz": [3.469419839483089, 9.277412512502691, 2.187634654813608]}, {"species": [{"element": "Tc", "occu": 1}], "abc": [0.59350248, 0.87156634, 0.67258778], "properties": {"magmom": 2.457}, "label": "Tc", "xyz": [8.138061029483088, 7.541433562497308, 3.194033245186392]}, {"species": [{"element": "Tc", "occu": 1}], "abc": [0.09350248, 0.62843366, 0.32741222000000003], "properties": {"magmom": 2.457}, "label": "Tc", "xyz": [5.867862540516911, 3.671130487502691, 0.503199295186392]}, {"species": [{"element": "Tc", "occu": 1}], "abc": [0.9064975200000001, 0.12843366, 0.17258778], "properties": {"magmom": 2.457}, "label": "Tc", "xyz": [1.1992213505169107, 1.9351515374973087, 4.878468604813609]}, {"species": [{"element": "F", "occu": 1}], "abc": [0.40799844, 0.73949708, 0.30731058], "properties": {"magmom": 0.063}, "label": "F", "xyz": [6.90489305514545, 3.445739561492649, 2.195712107798076]}, {"species": [{"element": "F", "occu": 1}], "abc": [0.59200156, 0.23949708, 0.19268942], "properties": {"magmom": 0.063}, "label": "F", "xyz": [2.23625186514545, 2.1605424635073507, 3.1859557922019244]}, {"species": [{"element": "F", "occu": 1}], "abc": [0.09200156, 0.26050292, 0.80731058], "properties": {"magmom": 0.063}, "label": "F", "xyz": [2.4323893248545496, 9.052021586492648, 0.495121842201924]}, {"species": [{"element": "F", "occu": 1}], "abc": [0.9079984400000001, 0.76050292, 0.69268942], "properties": {"magmom": 0.063}, "label": "F", "xyz": [7.101030514854549, 7.766824488507351, 4.886546057798077]}, {"species": [{"element": "F", "occu": 1}], "abc": [0.59200156, 0.26050292, 0.69268942], "properties": {"magmom": 0.063}, "label": "F", "xyz": [2.4323893248545496, 7.766824488507351, 3.1859557922019244]}, {"species": [{"element": "F", "occu": 1}], "abc": [0.40799844, 0.76050292, 0.80731058], "properties": {"magmom": 0.063}, "label": "F", "xyz": [7.101030514854549, 9.052021586492648, 2.195712107798076]}, {"species": [{"element": "F", "occu": 1}], "abc": [0.9079984400000001, 0.73949708, 0.19268942], "properties": {"magmom": 0.063}, "label": "F", "xyz": [6.90489305514545, 2.1605424635073507, 4.886546057798077]}, {"species": [{"element": "F", "occu": 1}], "abc": [0.09200156, 0.23949708, 0.30731058], "properties": {"magmom": 0.063}, "label": "F", "xyz": [2.23625186514545, 3.445739561492649, 0.495121842201924]}, {"species": [{"element": "F", "occu": 1}], "abc": [0.28129873, 0.516555299999999, 0.19410274], "properties": {"magmom": 0.062}, "label": "F", "xyz": [4.823222700985605, 2.176389404530497, 1.513856345551767]}, {"species": [{"element": "F", "occu": 1}], "abc": [0.7187012700000001, 0.0165553, 0.30589726], "properties": {"magmom": 0.062}, "label": "F", "xyz": [0.15458151098561398, 3.4298926204695026, 3.867811554448233]}, {"species": [{"element": "F", "occu": 1}], "abc": [0.21870127, 0.4834447, 0.69410274], "properties": {"magmom": 0.062}, "label": "F", "xyz": [4.514059679014386, 7.782671429530497, 1.176977604448233]}, {"species": [{"element": "F", "occu": 1}], "abc": [0.78129873, 0.9834447, 0.8058972600000001], "properties": {"magmom": 0.062}, "label": "F", "xyz": [9.182700869014385, 9.036174645469503, 4.204690295551767]}, {"species": [{"element": "F", "occu": 1}], "abc": [0.7187012700000001, 0.4834447, 0.8058972600000001], "properties": {"magmom": 0.062}, "label": "F", "xyz": [4.514059679014386, 9.036174645469503, 3.867811554448233]}, {"species": [{"element": "F", "occu": 1}], "abc": [0.28129873, 0.9834447, 0.69410274], "properties": {"magmom": 0.062}, "label": "F", "xyz": [9.182700869014385, 7.782671429530497, 1.513856345551767]}, {"species": [{"element": "F", "occu": 1}], "abc": [0.78129873, 0.516555299999999, 0.30589726], "properties": {"magmom": 0.062}, "label": "F", "xyz": [4.823222700985605, 3.4298926204695026, 4.204690295551767]}, {"species": [{"element": "F", "occu": 1}], "abc": [0.21870127, 0.0165553, 0.19410274], "properties": {"magmom": 0.062}, "label": "F", "xyz": [0.15458151098561398, 2.176389404530497, 1.176977604448233]}, {"species": [{"element": "F", "occu": 1}], "abc": [0.44073236, 0.74815762, 0.06508593], "properties": {"magmom": 0.147}, "label": "F", "xyz": [6.985758962688735, 0.7297801588788164, 2.371875194303244]}, {"species": [{"element": "F", "occu": 1}], "abc": [0.5592676400000001, 0.24815762, 0.43491407], "properties": {"magmom": 0.147}, "label": "F", "xyz": [2.3171177726887353, 4.876501866121183, 3.0097927056967566]}, {"species": [{"element": "F", "occu": 1}], "abc": [0.05926764, 0.25184238000000003, 0.56508593], "properties": {"magmom": 0.147}, "label": "F", "xyz": [2.3515234173112645, 6.336062183878815, 0.318958755696756]}, {"species": [{"element": "F", "occu": 1}], "abc": [0.94073236, 0.75184238, 0.93491407], "properties": {"magmom": 0.147}, "label": "F", "xyz": [7.020164607311265, 10.482783891121183, 5.062709144303244]}, {"species": [{"element": "F", "occu": 1}], "abc": [0.5592676400000001, 0.25184238000000003, 0.93491407], "properties": {"magmom": 0.147}, "label": "F", "xyz": [2.3515234173112645, 10.482783891121183, 3.0097927056967566]}, {"species": [{"element": "F", "occu": 1}], "abc": [0.44073236, 0.75184238, 0.56508593], "properties": {"magmom": 0.147}, "label": "F", "xyz": [7.020164607311265, 6.336062183878815, 2.371875194303244]}, {"species": [{"element": "F", "occu": 1}], "abc": [0.94073236, 0.74815762, 0.43491407], "properties": {"magmom": 0.147}, "label": "F", "xyz": [6.985758962688735, 4.876501866121183, 5.062709144303244]}, {"species": [{"element": "F", "occu": 1}], "abc": [0.05926764, 0.24815762, 0.06508593], "properties": {"magmom": 0.147}, "label": "F", "xyz": [2.3171177726887353, 0.7297801588788164, 0.318958755696756]}, {"species": [{"element": "F", "occu": 1}], "abc": [0.74038306, 0.50738658, 0.06414292], "properties": {"magmom": 0.14400000000000002}, "label": "F", "xyz": [4.7376117732824605, 0.719206598854026, 3.984495747705774]}, {"species": [{"element": "F", "occu": 1}], "abc": [0.25961694, 0.00738658, 0.43585708], "properties": {"magmom": 0.14400000000000002}, "label": "F", "xyz": [0.0689705832824604, 4.887075426145974, 1.3971721522942262]}, {"species": [{"element": "F", "occu": 1}], "abc": [0.75961694, 0.49261342, 0.56414292], "properties": {"magmom": 0.14400000000000002}, "label": "F", "xyz": [4.59967060671754, 6.325488623854025, 4.0880061022942265]}, {"species": [{"element": "F", "occu": 1}], "abc": [0.24038306, 0.99261342, 0.93585708], "properties": {"magmom": 0.14400000000000002}, "label": "F", "xyz": [9.268311796717539, 10.493357451145974, 1.293661797705774]}, {"species": [{"element": "F", "occu": 1}], "abc": [0.25961694, 0.49261342, 0.93585708], "properties": {"magmom": 0.14400000000000002}, "label": "F", "xyz": [4.59967060671754, 10.493357451145974, 1.3971721522942262]}, {"species": [{"element": "F", "occu": 1}], "abc": [0.74038306, 0.99261342, 0.56414292], "properties": {"magmom": 0.14400000000000002}, "label": "F", "xyz": [9.268311796717539, 6.325488623854025, 3.984495747705774]}, {"species": [{"element": "F", "occu": 1}], "abc": [0.24038306, 0.50738658, 0.43585708], "properties": {"magmom": 0.14400000000000002}, "label": "F", "xyz": [4.7376117732824605, 4.887075426145974, 1.293661797705774]}, {"species": [{"element": "F", "occu": 1}], "abc": [0.75961694, 0.00738658, 0.06414292], "properties": {"magmom": 0.14400000000000002}, "label": "F", "xyz": [0.0689705832824604, 0.719206598854026, 4.0880061022942265]}]}, "task_ids": null, "uncorrected_energy_per_atom": null, "energy_per_atom": -9.96296262, "formation_energy_per_atom": -2.269207849999999, "energy_above_hull": 0.0, "is_stable": true, "equilibrium_reaction_energy_per_atom": null, "decomposes_to": null, "xas": null, "grain_boundaries": null, "band_gap": 1.3061, "cbm": null, "vbm": null, "efermi": -1.01040966, "is_gap_direct": null, "is_metal": null, "es_source_calc_id": null, "bandstructure": null, "dos": null, "dos_energy_up": null, "dos_energy_down": null, "is_magnetic": null, "ordering": null, "total_magnetization": 24.0000008, "total_magnetization_normalized_vol": null, "total_magnetization_normalized_formula_units": null, "num_magnetic_sites": null, "num_unique_magnetic_sites": null, "types_of_magnetic_species": null, "bulk_modulus": null, "shear_modulus": null, "universal_anisotropy": null, "homogeneous_poisson": null, "e_total": null, "e_ionic": null, "e_electronic": null, "n": null, "e_ij_max": null, "weighted_surface_energy_EV_PER_ANG2": null, "weighted_surface_energy": null, "weighted_work_function": null, "surface_anisotropy": null, "shape_factor": null, "has_reconstructed": null, "possible_species": null, "has_props": null, "theoretical": null, "database_IDs": null, "fields_not_requested": ["builder_meta", "nsites", "elements", "nelements", "composition", "composition_reduced", "chemsys", "symmetry", "property_name", "deprecated", "deprecation_reasons", "last_updated", "origins", "warnings", "task_ids", "uncorrected_energy_per_atom", "equilibrium_reaction_energy_per_atom", "decomposes_to", "xas", "grain_boundaries", "cbm", "vbm", "is_gap_direct", "is_metal", "es_source_calc_id", "bandstructure", "dos", "dos_energy_up", "dos_energy_down", "is_magnetic", "ordering", "total_magnetization_normalized_vol", "total_magnetization_normalized_formula_units", "num_magnetic_sites", "num_unique_magnetic_sites", "types_of_magnetic_species", "bulk_modulus", "shear_modulus", "universal_anisotropy", "homogeneous_poisson", "e_total", "e_ionic", "e_electronic", "n", "e_ij_max", "weighted_surface_energy_EV_PER_ANG2", "weighted_surface_energy", "weighted_work_function", "surface_anisotropy", "shape_factor", "has_reconstructed", "possible_species", "has_props", "theoretical", "database_IDs"]}