{"builder_meta": null, "nsites": null, "elements": null, "nelements": null, "composition": null, "composition_reduced": null, "formula_pretty": "TcI4", "formula_anonymous": "AB4", "chemsys": null, "volume": 1683.6563345533611, "density": 4.778420054176908, "density_atomic": 42.09140836383403, "symmetry": null, "property_name": null, "material_id": "mp-1203591", "deprecated": null, "deprecation_reasons": null, "last_updated": null, "origins": null, "warnings": null, "structure": {"@module": "pymatgen.core.structure", "@class": "Structure", "charge": 0, "lattice": {"matrix": [[7.00406, 0.0, 0.0], [0.0, 14.2535, 0.0], [0.0, 0.09267399999999901, 16.864834]], "pbc": [true, true, true], "a": 7.00406, "b": 14.2535, "c": 16.865088624665805, "alpha": 89.68515695878855, "beta": 90.0, "gamma": 90.0, "volume": 1683.6563345533611}, "properties": {}, "sites": [{"species": [{"element": "Tc", "occu": 1}], "abc": [0.095259, 0.373199, 0.828337], "properties": {"magmom": 0.039}, "label": "Tc", "xyz": [0.66719975154, 5.396157249638, 13.969766001057998]}, {"species": [{"element": "Tc", "occu": 1}], "abc": [0.595259, 0.126801, 0.171662999999999], "properties": {"magmom": 0.043000000000000003}, "label": "Tc", "xyz": [4.16922975154, 1.8232667503619997, 2.895067998941983]}, {"species": [{"element": "Tc", "occu": 1}], "abc": [0.904740999999999, 0.626800999999999, 0.171662999999999], "properties": {"magmom": 0.038}, "label": "Tc", "xyz": [6.336860248459993, 8.950016750361987, 2.895067998941983]}, {"species": [{"element": "Tc", "occu": 1}], "abc": [0.404740999999999, 0.873199, 0.828337], "properties": {"magmom": 0.043000000000000003}, "label": "Tc", "xyz": [2.834830248459993, 12.522907249638, 13.969766001057998]}, {"species": [{"element": "Tc", "occu": 1}], "abc": [0.406663, 0.626012999999999, 0.309714999999999], "properties": {"magmom": -0.0}, "label": "Tc", "xyz": [2.84829205178, 8.951578823409987, 5.223292062309983]}, {"species": [{"element": "Tc", "occu": 1}], "abc": [0.906663, 0.873987, 0.690284999999999], "properties": {"magmom": -0.004}, "label": "Tc", "xyz": [6.35032205178, 12.52134517659, 11.641541937689983]}, {"species": [{"element": "Tc", "occu": 1}], "abc": [0.593337, 0.373986999999999, 0.690284999999999], "properties": {"magmom": -0.0}, "label": "Tc", "xyz": [4.15576794822, 5.394595176589986, 11.641541937689983]}, {"species": [{"element": "Tc", "occu": 1}], "abc": [0.093336999999999, 0.126013, 0.309714999999999], "properties": {"magmom": -0.005}, "label": "Tc", "xyz": [0.653737948219993, 1.8248288234099994, 5.223292062309983]}, {"species": [{"element": "I", "occu": 1}], "abc": [0.917607, 0.267493, 0.706087], "properties": {"magmom": 0.003}, "label": "I", "xyz": [6.42697448442, 3.8781473821379993, 11.908040044558]}, {"species": [{"element": "I", "occu": 1}], "abc": [0.417607, 0.232507, 0.293913], "properties": {"magmom": 0.003}, "label": "I", "xyz": [2.92494448442, 3.3412766178619995, 4.9567939554419995]}, {"species": [{"element": "I", "occu": 1}], "abc": [0.082393, 0.732507, 0.293913], "properties": {"magmom": 0.003}, "label": "I", "xyz": [0.57708551558, 10.468026617862, 4.9567939554419995]}, {"species": [{"element": "I", "occu": 1}], "abc": [0.582392999999999, 0.767493, 0.706087], "properties": {"magmom": 0.003}, "label": "I", "xyz": [4.079115515579994, 11.004897382138, 11.908040044558]}, {"species": [{"element": "I", "occu": 1}], "abc": [0.768002, 0.479271, 0.814925999999999], "properties": {"magmom": 0.004}, "label": "I", "xyz": [5.3791320881199995, 6.906811650623999, 13.743591712283983]}, {"species": [{"element": "I", "occu": 1}], "abc": [0.268001999999999, 0.020728999999999, 0.185074], "properties": {"magmom": 0.004}, "label": "I", "xyz": [1.8771020881199931, 0.3126123493759856, 3.1212422877159995]}, {"species": [{"element": "I", "occu": 1}], "abc": [0.231997999999999, 0.520729, 0.185074], "properties": {"magmom": 0.004}, "label": "I", "xyz": [1.624927911879993, 7.439362349376, 3.1212422877159995]}, {"species": [{"element": "I", "occu": 1}], "abc": [0.731997999999999, 0.979271, 0.814925999999999], "properties": {"magmom": 0.004}, "label": "I", "xyz": [5.126957911879993, 14.033561650624002, 13.743591712283983]}, {"species": [{"element": "I", "occu": 1}], "abc": [0.962517, 0.255131999999999, 0.935723], "properties": {"magmom": 0.003}, "label": "I", "xyz": [6.74152681902, 3.7232411553019853, 15.780813064981999]}, {"species": [{"element": "I", "occu": 1}], "abc": [0.462516999999999, 0.244868, 0.064277], "properties": {"magmom": 0.004}, "label": "I", "xyz": [3.239496819019993, 3.496182844698, 1.084020935018]}, {"species": [{"element": "I", "occu": 1}], "abc": [0.037482999999999, 0.744868, 0.064277], "properties": {"magmom": 0.003}, "label": "I", "xyz": [0.262533180979993, 10.622932844698001, 1.084020935018]}, {"species": [{"element": "I", "occu": 1}], "abc": [0.537482999999999, 0.755131999999999, 0.935723], "properties": {"magmom": 0.004}, "label": "I", "xyz": [3.764563180979993, 10.849991155301986, 15.780813064981999]}, {"species": [{"element": "I", "occu": 1}], "abc": [0.240838, 0.48987, 0.933786999999999], "properties": {"magmom": -0.004}, "label": "I", "xyz": [1.6868438022799999, 7.068899821437999, 15.748162746357982]}, {"species": [{"element": "I", "occu": 1}], "abc": [0.740838, 0.01013, 0.066213], "properties": {"magmom": -0.004}, "label": "I", "xyz": [5.18887380228, 0.15052417856199996, 1.1166712536419998]}, {"species": [{"element": "I", "occu": 1}], "abc": [0.759162, 0.5101300000000001, 0.066213], "properties": {"magmom": -0.004}, "label": "I", "xyz": [5.31721619772, 7.277274178562001, 1.1166712536419998]}, {"species": [{"element": "I", "occu": 1}], "abc": [0.259162, 0.98987, 0.933786999999999], "properties": {"magmom": -0.004}, "label": "I", "xyz": [1.8151861977200001, 14.195649821438, 15.748162746357982]}, {"species": [{"element": "I", "occu": 1}], "abc": [0.582191999999999, 0.734290999999999, 0.188060999999999], "properties": {"magmom": 0.004}, "label": "I", "xyz": [4.077707699519993, 10.483645133613987, 3.171617546873983]}, {"species": [{"element": "I", "occu": 1}], "abc": [0.082192, 0.765709, 0.811939], "properties": {"magmom": 0.004}, "label": "I", "xyz": [0.57567769952, 10.989278866385998, 13.693216453125999]}, {"species": [{"element": "I", "occu": 1}], "abc": [0.417807999999999, 0.265709, 0.811939], "properties": {"magmom": 0.004}, "label": "I", "xyz": [2.926352300479993, 3.862528866385999, 13.693216453125999]}, {"species": [{"element": "I", "occu": 1}], "abc": [0.917808, 0.234291, 0.188060999999999], "properties": {"magmom": 0.004}, "label": "I", "xyz": [6.42838230048, 3.356895133614, 3.171617546873983]}, {"species": [{"element": "I", "occu": 1}], "abc": [0.733023, 0.519735, 0.295519], "properties": {"magmom": 0.004}, "label": "I", "xyz": [5.13413707338, 7.435429750306, 4.983878878845999]}, {"species": [{"element": "I", "occu": 1}], "abc": [0.233022999999999, 0.980264999999999, 0.704480999999999], "properties": {"magmom": 0.004}, "label": "I", "xyz": [1.632107073379993, 14.037494249693987, 11.880955121153983]}, {"species": [{"element": "I", "occu": 1}], "abc": [0.266976999999999, 0.480265, 0.704480999999999], "properties": {"magmom": 0.004}, "label": "I", "xyz": [1.869922926619993, 6.910744249693999, 11.880955121153983]}, {"species": [{"element": "I", "occu": 1}], "abc": [0.766977, 0.019735, 0.295519], "properties": {"magmom": 0.004}, "label": "I", "xyz": [5.37195292662, 0.3086797503059997, 4.983878878845999]}, {"species": [{"element": "I", "occu": 1}], "abc": [0.538729, 0.743773999999999, 0.4173], "properties": {"magmom": 0.0}, "label": "I", "xyz": [3.77329023974, 10.640055569199987, 7.0376952282]}, {"species": [{"element": "I", "occu": 1}], "abc": [0.038729, 0.756226, 0.5827], "properties": {"magmom": -0.0}, "label": "I", "xyz": [0.27126023974, 10.832868430799998, 9.8271387718]}, {"species": [{"element": "I", "occu": 1}], "abc": [0.461271, 0.256226, 0.5827], "properties": {"magmom": 0.0}, "label": "I", "xyz": [3.23076976026, 3.7061184307999997, 9.8271387718]}, {"species": [{"element": "I", "occu": 1}], "abc": [0.961271, 0.243774, 0.4173], "properties": {"magmom": -0.0}, "label": "I", "xyz": [6.73279976026, 3.5133055692, 7.0376952282]}, {"species": [{"element": "I", "occu": 1}], "abc": [0.273433, 0.505556999999999, 0.415597], "properties": {"magmom": -0.006}, "label": "I", "xyz": [1.9151411379799999, 7.244471735877986, 7.008974415897999]}, {"species": [{"element": "I", "occu": 1}], "abc": [0.773432999999999, 0.994443, 0.584403], "properties": {"magmom": -0.006}, "label": "I", "xyz": [5.417171137979993, 14.228452264122, 9.855859584102]}, {"species": [{"element": "I", "occu": 1}], "abc": [0.726567, 0.494442999999999, 0.584403], "properties": {"magmom": -0.006}, "label": "I", "xyz": [5.08891886202, 7.101702264121986, 9.855859584102]}, {"species": [{"element": "I", "occu": 1}], "abc": [0.226567, 0.005556999999999, 0.415597], "properties": {"magmom": -0.006}, "label": "I", "xyz": [1.58688886202, 0.11772173587798535, 7.008974415897999]}]}, "task_ids": null, "uncorrected_energy_per_atom": null, "energy_per_atom": -3.586729334, "formation_energy_per_atom": -0.295391453, "energy_above_hull": 0.0, "is_stable": true, "equilibrium_reaction_energy_per_atom": null, "decomposes_to": null, "xas": null, "grain_boundaries": null, "band_gap": 0.0, "cbm": null, "vbm": null, "efermi": 2.29786728, "is_gap_direct": null, "is_metal": null, "es_source_calc_id": null, "bandstructure": null, "dos": null, "dos_energy_up": null, "dos_energy_down": null, "is_magnetic": null, "ordering": null, "total_magnetization": 0.008555799999999001, "total_magnetization_normalized_vol": null, "total_magnetization_normalized_formula_units": null, "num_magnetic_sites": null, "num_unique_magnetic_sites": null, "types_of_magnetic_species": null, "bulk_modulus": null, "shear_modulus": null, "universal_anisotropy": null, "homogeneous_poisson": null, "e_total": null, "e_ionic": null, "e_electronic": null, "n": null, "e_ij_max": null, "weighted_surface_energy_EV_PER_ANG2": null, "weighted_surface_energy": null, "weighted_work_function": null, "surface_anisotropy": null, "shape_factor": null, "has_reconstructed": null, "possible_species": null, "has_props": null, "theoretical": null, "database_IDs": null, "fields_not_requested": ["builder_meta", "nsites", "elements", "nelements", "composition", "composition_reduced", "chemsys", "symmetry", "property_name", "deprecated", "deprecation_reasons", "last_updated", "origins", "warnings", "task_ids", "uncorrected_energy_per_atom", "equilibrium_reaction_energy_per_atom", "decomposes_to", "xas", "grain_boundaries", "cbm", "vbm", "is_gap_direct", "is_metal", "es_source_calc_id", "bandstructure", "dos", "dos_energy_up", "dos_energy_down", "is_magnetic", "ordering", "total_magnetization_normalized_vol", "total_magnetization_normalized_formula_units", "num_magnetic_sites", "num_unique_magnetic_sites", "types_of_magnetic_species", "bulk_modulus", "shear_modulus", "universal_anisotropy", "homogeneous_poisson", "e_total", "e_ionic", "e_electronic", "n", "e_ij_max", "weighted_surface_energy_EV_PER_ANG2", "weighted_surface_energy", "weighted_work_function", "surface_anisotropy", "shape_factor", "has_reconstructed", "possible_species", "has_props", "theoretical", "database_IDs"]}