{"builder_meta": null, "nsites": null, "elements": null, "nelements": null, "composition": null, "composition_reduced": null, "formula_pretty": "TcIr3", "formula_anonymous": "AB3", "chemsys": null, "volume": 113.6485001416927, "density": 19.714898840266752, "density_atomic": 14.206062517711587, "symmetry": null, "property_name": null, "material_id": "mp-867345", "deprecated": null, "deprecation_reasons": null, "last_updated": null, "origins": null, "warnings": null, "structure": {"@module": "pymatgen.core.structure", "@class": "Structure", "charge": 0, "lattice": {"matrix": [[5.48248726, 5.5e-07, 0.0], [-2.74124366, 4.74797289, 0.0], [0.0, 0.0, 4.36594059]], "pbc": [true, true, true], "a": 5.482487260000028, "b": 5.4824869692198215, "c": 4.36594059, "alpha": 90.0, "beta": 90.0, "gamma": 119.99999636862574, "volume": 113.6485001416927}, "properties": {}, "sites": [{"species": [{"element": "Tc", "occu": 1}], "abc": [0.33333408000000003, 0.6666648900000001, 0.75], "properties": {"magmom": -0.0}, "label": "Tc", "xyz": [8.943866723676308e-06, 3.1653070077685763, 3.2744554425]}, {"species": [{"element": "Tc", "occu": 1}], "abc": [0.66666775, 0.33333376000000003, 0.25], "properties": {"magmom": -0.0}, "label": "Tc", "xyz": [2.7412483897639035, 1.582660022469029, 1.0914851475]}, {"species": [{"element": "Ir", "occu": 1}], "abc": [0.16646858, 0.33294019, 0.25], "properties": {"magmom": 0.0}, "label": "Ir", "xyz": [-8.31595640449212e-06, 1.5807910876691682, 1.0914851475]}, {"species": [{"element": "Ir", "occu": 1}], "abc": [0.66705853, 0.83352809, 0.25], "properties": {"magmom": 0.0}, "label": "Ir", "xyz": [1.3722363002549187, 3.9575691412556715, 1.0914851475]}, {"species": [{"element": "Ir", "occu": 1}], "abc": [0.16646887, 0.83352802, 0.25], "properties": {"magmom": -0.0}, "label": "Ir", "xyz": [-1.3722399412957573, 3.9575685335732564, 1.0914851475]}, {"species": [{"element": "Ir", "occu": 1}], "abc": [0.83352875, 0.66705971, 0.75], "properties": {"magmom": 0.0}, "label": "Ir", "xyz": [2.7412375518397867, 3.167181877532074, 3.2744554425]}, {"species": [{"element": "Ir", "occu": 1}], "abc": [0.33294085, 0.16647227, 0.75], "properties": {"magmom": 0.0}, "label": "Ir", "xyz": [1.3690029137552628, 0.7904060080142278, 3.2744554425]}, {"species": [{"element": "Ir", "occu": 1}], "abc": [0.83352959, 0.16646806, 0.75], "properties": {"magmom": -0.0}, "label": "Ir", "xyz": [4.1134858439405235, 0.7903862943721679, 3.2744554425]}]}, "task_ids": null, "uncorrected_energy_per_atom": null, "energy_per_atom": -45.93962308875, "formation_energy_per_atom": -0.17894248874999602, "energy_above_hull": 0.0, "is_stable": true, "equilibrium_reaction_energy_per_atom": null, "decomposes_to": null, "xas": null, "grain_boundaries": null, "band_gap": 0.0, "cbm": null, "vbm": null, "efermi": 9.88870624, "is_gap_direct": null, "is_metal": null, "es_source_calc_id": null, "bandstructure": null, "dos": null, "dos_energy_up": null, "dos_energy_down": null, "is_magnetic": null, "ordering": null, "total_magnetization": 0.0, "total_magnetization_normalized_vol": null, "total_magnetization_normalized_formula_units": null, "num_magnetic_sites": null, "num_unique_magnetic_sites": null, "types_of_magnetic_species": null, "bulk_modulus": null, "shear_modulus": null, "universal_anisotropy": null, "homogeneous_poisson": null, "e_total": null, "e_ionic": null, "e_electronic": null, "n": null, "e_ij_max": null, "weighted_surface_energy_EV_PER_ANG2": null, "weighted_surface_energy": null, "weighted_work_function": null, "surface_anisotropy": null, "shape_factor": null, "has_reconstructed": null, "possible_species": null, "has_props": null, "theoretical": null, "database_IDs": null, "fields_not_requested": ["builder_meta", "nsites", "elements", "nelements", "composition", "composition_reduced", "chemsys", "symmetry", "property_name", "deprecated", "deprecation_reasons", "last_updated", "origins", "warnings", "task_ids", "uncorrected_energy_per_atom", "equilibrium_reaction_energy_per_atom", "decomposes_to", "xas", "grain_boundaries", "cbm", "vbm", "is_gap_direct", "is_metal", "es_source_calc_id", "bandstructure", "dos", "dos_energy_up", "dos_energy_down", "is_magnetic", "ordering", "total_magnetization_normalized_vol", "total_magnetization_normalized_formula_units", "num_magnetic_sites", "num_unique_magnetic_sites", "types_of_magnetic_species", "bulk_modulus", "shear_modulus", "universal_anisotropy", "homogeneous_poisson", "e_total", "e_ionic", "e_electronic", "n", "e_ij_max", "weighted_surface_energy_EV_PER_ANG2", "weighted_surface_energy", "weighted_work_function", "surface_anisotropy", "shape_factor", "has_reconstructed", "possible_species", "has_props", "theoretical", "database_IDs"]}