{
  "builder_meta": null,
  "nsites": null,
  "elements": null,
  "nelements": null,
  "composition": null,
  "composition_reduced": null,
  "formula_pretty": "TcO2",
  "formula_anonymous": "AB2",
  "chemsys": null,
  "volume": 128.1218504459418,
  "density": 6.739462012444188,
  "density_atomic": 10.676820870495149,
  "symmetry": null,
  "property_name": null,
  "material_id": "mp-33137",
  "deprecated": null,
  "deprecation_reasons": null,
  "last_updated": null,
  "origins": null,
  "warnings": null,
  "structure": {
    "@module": "pymatgen.core.structure",
    "@class": "Structure",
    "charge": 0,
    "lattice": {
      "matrix": [
        [4.78907131, -7.837000000000002e-5, 4.0330000000000015e-5],
        [-8.958e-5, 5.49323192, -0.04950707],
        [8.248e-5, -2.60087511, 4.8936083]
      ],
      "pbc": [true, true, true],
      "a": 4.789071310811051,
      "b": 5.4934550043585,
      "c": 5.541836657503481,
      "alpha": 118.50629213546144,
      "beta": 89.99828115925928,
      "gamma": 90.00187622177127,
      "volume": 128.1218504459418
    },
    "properties": {},
    "sites": [
      {
        "species": [{ "element": "Tc", "occu": 1 }],
        "abc": [0.49465787, 0.73492685, 0.21985387],
        "properties": { "magmom": -1.147 },
        "label": "Tc",
        "xyz": [2.368904112282684, 3.4652724066276046, 1.0395145975631888]
      },
      {
        "species": [{ "element": "Tc", "occu": 1 }],
        "abc": [0.99462573, 0.26503457, 0.28015295],
        "properties": { "magmom": 1.148 },
        "label": "Tc",
        "xyz": [4.763332912949341, 0.7271755763609399, 1.357877829635766]
      },
      {
        "species": [{ "element": "Tc", "occu": 1 }],
        "abc": [0.00536646, 0.73497631, 0.71983379],
        "properties": { "magmom": 1.147 },
        "label": "Tc",
        "xyz": [0.025693892335412, 2.1651971182183782, 3.4861983021662772]
      },
      {
        "species": [{ "element": "Tc", "occu": 1 }],
        "abc": [0.50535282, 0.26504595000000003, 0.7801656],
        "properties": { "magmom": -1.147 },
        "label": "Tc",
        "xyz": [2.4202112969320813, -0.5731940224119949, 3.8047235880138444]
      },
      {
        "species": [{ "element": "O", "occu": 1 }],
        "abc": [0.78870985, 0.60832992, 0.37776109],
        "properties": { "magmom": 0.041 },
        "label": "O",
        "xyz": [3.7771643780898736, 2.359126106736632, 1.8185299821767633]
      },
      {
        "species": [{ "element": "O", "occu": 1 }],
        "abc": [0.28874278000000003, 0.39170783000000003, 0.12223105000000001],
        "properties": { "magmom": -0.041 },
        "label": "O",
        "xyz": [1.3827847560972346, 1.8338116306841001, 0.5787702188346744]
      },
      {
        "species": [{ "element": "O", "occu": 1 }],
        "abc": [0.1911446, 0.89532232, 0.09038633],
        "properties": { "magmom": 0.013000000000000001 },
        "label": "O",
        "xyz": [0.9153323720124987, 4.683114610928906, 0.39799821878745467]
      },
      {
        "species": [{ "element": "O", "occu": 1 }],
        "abc": [0.30887451, 0.89533823, 0.59043978],
        "properties": { "magmom": -0.013000000000000001 },
        "label": "O",
        "xyz": [1.479190549305719, 3.382616209981078, 2.845067892540876]
      },
      {
        "species": [{ "element": "O", "occu": 1 }],
        "abc": [0.6911725200000001, 0.1046831, 0.40957108000000003],
        "properties": { "magmom": -0.012 },
        "label": "O",
        "xyz": [3.3100988897029815, -0.49024884853365935, 1.9991257579561792]
      },
      {
        "species": [{ "element": "O", "occu": 1 }],
        "abc": [0.71121184, 0.60821624, 0.87771295],
        "properties": { "magmom": -0.041 },
        "label": "O",
        "xyz": [3.4060621280296473, 1.058195360778806, 4.265101056342176]
      },
      {
        "species": [{ "element": "O", "occu": 1 }],
        "abc": [0.80888366, 0.10462874, 0.9095568700000001],
        "properties": { "magmom": 0.013000000000000001 },
        "label": "O",
        "xyz": [3.8738671768419026, -1.7909572822075592, 4.445867808276838]
      },
      {
        "species": [{ "element": "O", "occu": 1 }],
        "abc": [0.21125934000000002, 0.39178894000000003, 0.62233463],
        "properties": { "magmom": 0.041 },
        "label": "O",
        "xyz": [1.0117522778705728, 0.53355630545843, 3.0260741083568057]
      }
    ]
  },
  "task_ids": null,
  "uncorrected_energy_per_atom": null,
  "energy_per_atom": -8.635551684166666,
  "formation_energy_per_atom": -1.883364699166667,
  "energy_above_hull": 0.0,
  "is_stable": true,
  "equilibrium_reaction_energy_per_atom": null,
  "decomposes_to": null,
  "xas": null,
  "grain_boundaries": null,
  "band_gap": 0.0,
  "cbm": null,
  "vbm": null,
  "efermi": 5.53346981,
  "is_gap_direct": null,
  "is_metal": null,
  "es_source_calc_id": null,
  "bandstructure": null,
  "dos": null,
  "dos_energy_up": null,
  "dos_energy_down": null,
  "is_magnetic": null,
  "ordering": null,
  "total_magnetization": 0.0010471,
  "total_magnetization_normalized_vol": null,
  "total_magnetization_normalized_formula_units": null,
  "num_magnetic_sites": null,
  "num_unique_magnetic_sites": null,
  "types_of_magnetic_species": null,
  "bulk_modulus": null,
  "shear_modulus": null,
  "universal_anisotropy": null,
  "homogeneous_poisson": null,
  "e_total": null,
  "e_ionic": null,
  "e_electronic": null,
  "n": null,
  "e_ij_max": null,
  "weighted_surface_energy_EV_PER_ANG2": null,
  "weighted_surface_energy": null,
  "weighted_work_function": null,
  "surface_anisotropy": null,
  "shape_factor": null,
  "has_reconstructed": null,
  "possible_species": null,
  "has_props": null,
  "theoretical": null,
  "database_IDs": null,
  "fields_not_requested": [
    "builder_meta",
    "nsites",
    "elements",
    "nelements",
    "composition",
    "composition_reduced",
    "chemsys",
    "symmetry",
    "property_name",
    "deprecated",
    "deprecation_reasons",
    "last_updated",
    "origins",
    "warnings",
    "task_ids",
    "uncorrected_energy_per_atom",
    "equilibrium_reaction_energy_per_atom",
    "decomposes_to",
    "xas",
    "grain_boundaries",
    "cbm",
    "vbm",
    "is_gap_direct",
    "is_metal",
    "es_source_calc_id",
    "bandstructure",
    "dos",
    "dos_energy_up",
    "dos_energy_down",
    "is_magnetic",
    "ordering",
    "total_magnetization_normalized_vol",
    "total_magnetization_normalized_formula_units",
    "num_magnetic_sites",
    "num_unique_magnetic_sites",
    "types_of_magnetic_species",
    "bulk_modulus",
    "shear_modulus",
    "universal_anisotropy",
    "homogeneous_poisson",
    "e_total",
    "e_ionic",
    "e_electronic",
    "n",
    "e_ij_max",
    "weighted_surface_energy_EV_PER_ANG2",
    "weighted_surface_energy",
    "weighted_work_function",
    "surface_anisotropy",
    "shape_factor",
    "has_reconstructed",
    "possible_species",
    "has_props",
    "theoretical",
    "database_IDs"
  ]
}
