{"builder_meta": null, "nsites": null, "elements": null, "nelements": null, "composition": null, "composition_reduced": null, "formula_pretty": "TcOs3", "formula_anonymous": "AB3", "chemsys": null, "volume": 113.03717190308403, "density": 19.646384454784094, "density_atomic": 14.129646487885504, "symmetry": null, "property_name": null, "material_id": "mp-867212", "deprecated": null, "deprecation_reasons": null, "last_updated": null, "origins": null, "warnings": null, "structure": {"@module": "pymatgen.core.structure", "@class": "Structure", "charge": 0, "lattice": {"matrix": [[5.49494077, 0.0, 0.0], [-2.74746938, 4.75875698, 0.0], [-0.0, -0.0, 4.322796]], "pbc": [true, true, true], "a": 5.49494077, "b": 5.49493912511652, "c": 4.322796, "alpha": 90.0, "beta": 90.0, "gamma": 119.99999780198527, "volume": 113.03717190308403}, "properties": {}, "sites": [{"species": [{"element": "Tc", "occu": 1}], "abc": [0.333333, 0.666666, 0.750000999999999], "properties": {"magmom": -0.0}, "label": "Tc", "xyz": [6.699993300163243e-07, 3.17250148082868, 3.242101322795996]}, {"species": [{"element": "Tc", "occu": 1}], "abc": [0.666667999999999, 0.333333999999999, 0.250001], "properties": {"magmom": -0.0}, "label": "Tc", "xyz": [2.747476214941438, 1.5862554991713154, 1.080703322796]}, {"species": [{"element": "Os", "occu": 1}], "abc": [0.16731348000000001, 0.33462696000000003, 0.250001], "properties": {"magmom": 0.0}, "label": "Os", "xyz": [3.3630009477203515e-07, 1.592408381596181, 1.080703322796]}, {"species": [{"element": "Os", "occu": 1}], "abc": [0.66537304, 0.83268852, 0.250001], "properties": {"magmom": 0.0}, "label": "Os", "xyz": [1.368399232977323, 3.96256230671587, 1.080703322796]}, {"species": [{"element": "Os", "occu": 1}], "abc": [0.16731348000000001, 0.83268852, 0.250001], "properties": {"magmom": 0.0}, "label": "Os", "xyz": [-1.368408549154938, 3.96256230671587, 1.080703322796]}, {"species": [{"element": "Os", "occu": 1}], "abc": [0.83268752, 0.66537204, 0.750000999999999], "properties": {"magmom": 0.0}, "label": "Os", "xyz": [2.747479296110055, 3.1663438396468395, 3.242101322795996]}, {"species": [{"element": "Os", "occu": 1}], "abc": [0.33462796, 0.16731348000000001, 0.750000999999999], "properties": {"magmom": 0.0}, "label": "Os", "xyz": [1.3790721570246869, 0.7962041907980905, 3.242101322795996]}, {"species": [{"element": "Os", "occu": 1}], "abc": [0.83268752, 0.16731348000000001, 0.750000999999999], "properties": {"magmom": 0.0}, "label": "Os", "xyz": [4.115879939156948, 0.7962041907980905, 3.242101322795996]}]}, "task_ids": null, "uncorrected_energy_per_atom": null, "energy_per_atom": -46.3212995875, "formation_energy_per_atom": -0.09121243749999701, "energy_above_hull": 0.0, "is_stable": true, "equilibrium_reaction_energy_per_atom": null, "decomposes_to": null, "xas": null, "grain_boundaries": null, "band_gap": 0.0, "cbm": null, "vbm": null, "efermi": 8.64159118, "is_gap_direct": null, "is_metal": null, "es_source_calc_id": null, "bandstructure": null, "dos": null, "dos_energy_up": null, "dos_energy_down": null, "is_magnetic": null, "ordering": null, "total_magnetization": 0.0, "total_magnetization_normalized_vol": null, "total_magnetization_normalized_formula_units": null, "num_magnetic_sites": null, "num_unique_magnetic_sites": null, "types_of_magnetic_species": null, "bulk_modulus": null, "shear_modulus": null, "universal_anisotropy": null, "homogeneous_poisson": null, "e_total": null, "e_ionic": null, "e_electronic": null, "n": null, "e_ij_max": null, "weighted_surface_energy_EV_PER_ANG2": null, "weighted_surface_energy": null, "weighted_work_function": null, "surface_anisotropy": null, "shape_factor": null, "has_reconstructed": null, "possible_species": null, "has_props": null, "theoretical": null, "database_IDs": null, "fields_not_requested": ["builder_meta", "nsites", "elements", "nelements", "composition", "composition_reduced", "chemsys", "symmetry", "property_name", "deprecated", "deprecation_reasons", "last_updated", "origins", "warnings", "task_ids", "uncorrected_energy_per_atom", "equilibrium_reaction_energy_per_atom", "decomposes_to", "xas", "grain_boundaries", "cbm", "vbm", "is_gap_direct", "is_metal", "es_source_calc_id", "bandstructure", "dos", "dos_energy_up", "dos_energy_down", "is_magnetic", "ordering", "total_magnetization_normalized_vol", "total_magnetization_normalized_formula_units", "num_magnetic_sites", "num_unique_magnetic_sites", "types_of_magnetic_species", "bulk_modulus", "shear_modulus", "universal_anisotropy", "homogeneous_poisson", "e_total", "e_ionic", "e_electronic", "n", "e_ij_max", "weighted_surface_energy_EV_PER_ANG2", "weighted_surface_energy", "weighted_work_function", "surface_anisotropy", "shape_factor", "has_reconstructed", "possible_species", "has_props", "theoretical", "database_IDs"]}