{
  "builder_meta": null,
  "nsites": null,
  "elements": null,
  "nelements": null,
  "composition": null,
  "composition_reduced": null,
  "formula_pretty": "TcP3",
  "formula_anonymous": "AB3",
  "chemsys": null,
  "volume": 245.8592485153416,
  "density": 5.157947174457891,
  "density_atomic": 15.36620303220885,
  "symmetry": null,
  "property_name": null,
  "material_id": "mp-28029",
  "deprecated": null,
  "deprecation_reasons": null,
  "last_updated": null,
  "origins": null,
  "warnings": null,
  "structure": {
    "@module": "pymatgen.core.structure",
    "@class": "Structure",
    "charge": 0,
    "lattice": {
      "matrix": [
        [3.117395059999999, 0.0, 0.0],
        [0.0, 5.1331537, 0.0],
        [0.0, 0.0, 15.36421722]
      ],
      "pbc": [true, true, true],
      "a": 3.117395059999999,
      "b": 5.1331537,
      "c": 15.36421722,
      "alpha": 90.0,
      "beta": 90.0,
      "gamma": 90.0,
      "volume": 245.85924851534148
    },
    "properties": {},
    "sites": [
      {
        "species": [{ "element": "Tc", "occu": 1 }],
        "abc": [0.25, 0.351082699999999, 0.6502903800000001],
        "properties": { "magmom": 0.0 },
        "label": "Tc",
        "xyz": [0.7793487649999997, 1.802161460510985, 9.991202654396345]
      },
      {
        "species": [{ "element": "Tc", "occu": 1 }],
        "abc": [0.75, 0.648917299999999, 0.34970962],
        "properties": { "magmom": 0.0 },
        "label": "Tc",
        "xyz": [2.338046294999999, 3.3309922394890052, 5.373014565603657]
      },
      {
        "species": [{ "element": "Tc", "occu": 1 }],
        "abc": [0.75, 0.8510827, 0.84970962],
        "properties": { "magmom": 0.0 },
        "label": "Tc",
        "xyz": [2.338046294999999, 4.36873831051099, 13.055123175603658]
      },
      {
        "species": [{ "element": "Tc", "occu": 1 }],
        "abc": [0.25, 0.1489173, 0.15029038],
        "properties": { "magmom": 0.0 },
        "label": "Tc",
        "xyz": [0.7793487649999997, 0.76441538948901, 2.3090940443963435]
      },
      {
        "species": [{ "element": "P", "occu": 1 }],
        "abc": [0.25, 0.52207349, 0.79333751],
        "properties": { "magmom": -0.0 },
        "label": "P",
        "xyz": [0.7793487649999997, 2.6798834668654132, 12.189009832413921]
      },
      {
        "species": [{ "element": "P", "occu": 1 }],
        "abc": [0.75, 0.47792651, 0.20666249],
        "properties": { "magmom": -0.0 },
        "label": "P",
        "xyz": [2.338046294999999, 2.4532702331345875, 3.175207387586078]
      },
      {
        "species": [{ "element": "P", "occu": 1 }],
        "abc": [0.75, 0.02207349, 0.70666249],
        "properties": { "magmom": -0.0 },
        "label": "P",
        "xyz": [2.338046294999999, 0.11330661686541302, 10.85731599758608]
      },
      {
        "species": [{ "element": "P", "occu": 1 }],
        "abc": [0.25, 0.97792651, 0.29333751],
        "properties": { "magmom": -0.0 },
        "label": "P",
        "xyz": [0.7793487649999997, 5.019847083134587, 4.506901222413923]
      },
      {
        "species": [{ "element": "P", "occu": 1 }],
        "abc": [0.25, 0.35343093000000003, 0.01246535],
        "properties": { "magmom": -0.0 },
        "label": "P",
        "xyz": [0.7793487649999997, 1.8142152860239413, 0.191520345123327]
      },
      {
        "species": [{ "element": "P", "occu": 1 }],
        "abc": [0.75, 0.64656907, 0.9875346500000001],
        "properties": { "magmom": -0.0 },
        "label": "P",
        "xyz": [2.338046294999999, 3.318938413976059, 15.172696874876674]
      },
      {
        "species": [{ "element": "P", "occu": 1 }],
        "abc": [0.75, 0.85343093, 0.48753465],
        "properties": { "magmom": -0.0 },
        "label": "P",
        "xyz": [2.338046294999999, 4.380792136023941, 7.490588264876673]
      },
      {
        "species": [{ "element": "P", "occu": 1 }],
        "abc": [0.25, 0.14656907, 0.51246535],
        "properties": { "magmom": -0.0 },
        "label": "P",
        "xyz": [0.7793487649999997, 0.752361563976059, 7.873628955123328]
      },
      {
        "species": [{ "element": "P", "occu": 1 }],
        "abc": [0.25, 0.32066897, 0.38161268],
        "properties": { "magmom": -0.0 },
        "label": "P",
        "xyz": [0.7793487649999997, 1.6460431098306891, 5.86318010942635]
      },
      {
        "species": [{ "element": "P", "occu": 1 }],
        "abc": [0.75, 0.6793310300000001, 0.61838732],
        "properties": { "magmom": -0.0 },
        "label": "P",
        "xyz": [2.338046294999999, 3.4871105901693116, 9.50103711057365]
      },
      {
        "species": [{ "element": "P", "occu": 1 }],
        "abc": [0.75, 0.82066897, 0.11838732],
        "properties": { "magmom": -0.0 },
        "label": "P",
        "xyz": [2.338046294999999, 4.21261995983069, 1.8189285005736504]
      },
      {
        "species": [{ "element": "P", "occu": 1 }],
        "abc": [0.25, 0.17933103, 0.88161268],
        "properties": { "magmom": -0.0 },
        "label": "P",
        "xyz": [0.7793487649999997, 0.9205337401693111, 13.54528871942635]
      }
    ]
  },
  "task_ids": null,
  "uncorrected_energy_per_atom": null,
  "energy_per_atom": -13.753725229375,
  "formation_energy_per_atom": -0.511002482857142,
  "energy_above_hull": 0.0,
  "is_stable": true,
  "equilibrium_reaction_energy_per_atom": null,
  "decomposes_to": null,
  "xas": null,
  "grain_boundaries": null,
  "band_gap": 0.45060000000000106,
  "cbm": null,
  "vbm": null,
  "efermi": 8.37318886,
  "is_gap_direct": null,
  "is_metal": null,
  "es_source_calc_id": null,
  "bandstructure": null,
  "dos": null,
  "dos_energy_up": null,
  "dos_energy_down": null,
  "is_magnetic": null,
  "ordering": null,
  "total_magnetization": 0.0,
  "total_magnetization_normalized_vol": null,
  "total_magnetization_normalized_formula_units": null,
  "num_magnetic_sites": null,
  "num_unique_magnetic_sites": null,
  "types_of_magnetic_species": null,
  "bulk_modulus": null,
  "shear_modulus": null,
  "universal_anisotropy": null,
  "homogeneous_poisson": null,
  "e_total": null,
  "e_ionic": null,
  "e_electronic": null,
  "n": null,
  "e_ij_max": null,
  "weighted_surface_energy_EV_PER_ANG2": null,
  "weighted_surface_energy": null,
  "weighted_work_function": null,
  "surface_anisotropy": null,
  "shape_factor": null,
  "has_reconstructed": null,
  "possible_species": null,
  "has_props": null,
  "theoretical": null,
  "database_IDs": null,
  "fields_not_requested": [
    "builder_meta",
    "nsites",
    "elements",
    "nelements",
    "composition",
    "composition_reduced",
    "chemsys",
    "symmetry",
    "property_name",
    "deprecated",
    "deprecation_reasons",
    "last_updated",
    "origins",
    "warnings",
    "task_ids",
    "uncorrected_energy_per_atom",
    "equilibrium_reaction_energy_per_atom",
    "decomposes_to",
    "xas",
    "grain_boundaries",
    "cbm",
    "vbm",
    "is_gap_direct",
    "is_metal",
    "es_source_calc_id",
    "bandstructure",
    "dos",
    "dos_energy_up",
    "dos_energy_down",
    "is_magnetic",
    "ordering",
    "total_magnetization_normalized_vol",
    "total_magnetization_normalized_formula_units",
    "num_magnetic_sites",
    "num_unique_magnetic_sites",
    "types_of_magnetic_species",
    "bulk_modulus",
    "shear_modulus",
    "universal_anisotropy",
    "homogeneous_poisson",
    "e_total",
    "e_ionic",
    "e_electronic",
    "n",
    "e_ij_max",
    "weighted_surface_energy_EV_PER_ANG2",
    "weighted_surface_energy",
    "weighted_work_function",
    "surface_anisotropy",
    "shape_factor",
    "has_reconstructed",
    "possible_species",
    "has_props",
    "theoretical",
    "database_IDs"
  ]
}
