{"builder_meta": null, "nsites": null, "elements": null, "nelements": null, "composition": null, "composition_reduced": null, "formula_pretty": "TcP4", "formula_anonymous": "AB4", "chemsys": null, "volume": 626.9163642420667, "density": 4.701940059702244, "density_atomic": 15.672909106051668, "symmetry": null, "property_name": null, "material_id": "mp-28026", "deprecated": null, "deprecation_reasons": null, "last_updated": null, "origins": null, "warnings": null, "structure": {"@module": "pymatgen.core.structure", "@class": "Structure", "charge": 0, "lattice": {"matrix": [[6.25683404, 0.0, 0.0], [-0.0, 9.23803098, 0.0], [0.0, 0.0, 10.84614875]], "pbc": [true, true, true], "a": 6.25683404, "b": 9.23803098, "c": 10.84614875, "alpha": 90.0, "beta": 90.0, "gamma": 90.0, "volume": 626.9163642420667}, "properties": {}, "sites": [{"species": [{"element": "Tc", "occu": 1}], "abc": [0.6213176, 0.10901345, 0.42427044], "properties": {"magmom": 0.0}, "label": "Tc", "xyz": [3.8874811093311044, 1.007069628336681, 4.60170030246795]}, {"species": [{"element": "Tc", "occu": 1}], "abc": [0.1213176, 0.39098655, 0.57572956], "properties": {"magmom": 0.0}, "label": "Tc", "xyz": [0.759064089331104, 3.611945861663319, 6.244448447532049]}, {"species": [{"element": "Tc", "occu": 1}], "abc": [0.3786824, 0.6090134500000001, 0.07572956], "properties": {"magmom": 0.0}, "label": "Tc", "xyz": [2.369352930668896, 5.626085118336682, 0.82137407253205]}, {"species": [{"element": "Tc", "occu": 1}], "abc": [0.8786824, 0.89098655, 0.92427044], "properties": {"magmom": 0.0}, "label": "Tc", "xyz": [5.497769950668896, 8.23096135166332, 10.02477467746795]}, {"species": [{"element": "Tc", "occu": 1}], "abc": [0.3786824, 0.89098655, 0.57572956], "properties": {"magmom": 0.0}, "label": "Tc", "xyz": [2.369352930668896, 8.23096135166332, 6.244448447532049]}, {"species": [{"element": "Tc", "occu": 1}], "abc": [0.8786824, 0.6090134500000001, 0.42427044], "properties": {"magmom": 0.0}, "label": "Tc", "xyz": [5.497769950668896, 5.626085118336682, 4.60170030246795]}, {"species": [{"element": "Tc", "occu": 1}], "abc": [0.6213176, 0.39098655, 0.92427044], "properties": {"magmom": 0.0}, "label": "Tc", "xyz": [3.8874811093311044, 3.611945861663319, 10.02477467746795]}, {"species": [{"element": "Tc", "occu": 1}], "abc": [0.1213176, 0.10901345, 0.07572956], "properties": {"magmom": 0.0}, "label": "Tc", "xyz": [0.759064089331104, 1.007069628336681, 0.82137407253205]}, {"species": [{"element": "P", "occu": 1}], "abc": [0.00261384, 0.20750337, 0.43034807], "properties": {"magmom": -0.0}, "label": "P", "xyz": [0.0163543630871136, 1.9169225605144025, 4.667619181495413]}, {"species": [{"element": "P", "occu": 1}], "abc": [0.50261384, 0.29249663, 0.56965193], "properties": {"magmom": -0.0}, "label": "P", "xyz": [3.1447713830871136, 2.702092929485597, 6.178529568504588]}, {"species": [{"element": "P", "occu": 1}], "abc": [-0.00261384, 0.70750337, 0.06965193], "properties": {"magmom": -0.0}, "label": "P", "xyz": [-0.0163543630871136, 6.535938050514402, 0.7554551935045875]}, {"species": [{"element": "P", "occu": 1}], "abc": [0.49738616, 0.79249663, 0.93034807], "properties": {"magmom": -0.0}, "label": "P", "xyz": [3.1120626569128866, 7.321108419485597, 10.090693556495411]}, {"species": [{"element": "P", "occu": 1}], "abc": [-0.00261384, 0.79249663, 0.56965193], "properties": {"magmom": -0.0}, "label": "P", "xyz": [-0.0163543630871136, 7.321108419485597, 6.178529568504588]}, {"species": [{"element": "P", "occu": 1}], "abc": [0.49738616, 0.70750337, 0.43034807], "properties": {"magmom": -0.0}, "label": "P", "xyz": [3.1120626569128866, 6.535938050514402, 4.667619181495413]}, {"species": [{"element": "P", "occu": 1}], "abc": [0.00261384, 0.29249663, 0.93034807], "properties": {"magmom": -0.0}, "label": "P", "xyz": [0.0163543630871136, 2.702092929485597, 10.090693556495411]}, {"species": [{"element": "P", "occu": 1}], "abc": [0.50261384, 0.20750337, 0.06965193], "properties": {"magmom": -0.0}, "label": "P", "xyz": [3.1447713830871136, 1.9169225605144025, 0.7554551935045875]}, {"species": [{"element": "P", "occu": 1}], "abc": [0.060139660000000005, 0.28237149, 0.23581797000000002], "properties": {"magmom": -0.0}, "label": "P", "xyz": [0.37628387184202644, 2.60855657248876, 2.5577167805430374]}, {"species": [{"element": "P", "occu": 1}], "abc": [0.56013966, 0.21762851, 0.7641820300000001], "properties": {"magmom": -0.0}, "label": "P", "xyz": [3.5047008918420266, 2.0104589175112397, 8.288431969456962]}, {"species": [{"element": "P", "occu": 1}], "abc": [0.9398603400000001, 0.7823714900000001, 0.26418203], "properties": {"magmom": -0.0}, "label": "P", "xyz": [5.880550168157974, 7.22757206248876, 2.8653575944569623]}, {"species": [{"element": "P", "occu": 1}], "abc": [0.43986034, 0.71762851, 0.73581797], "properties": {"magmom": -0.0}, "label": "P", "xyz": [2.7521331481579736, 6.62947440751124, 7.980791155543037]}, {"species": [{"element": "P", "occu": 1}], "abc": [0.9398603400000001, 0.71762851, 0.7641820300000001], "properties": {"magmom": -0.0}, "label": "P", "xyz": [5.880550168157974, 6.62947440751124, 8.288431969456962]}, {"species": [{"element": "P", "occu": 1}], "abc": [0.43986034, 0.7823714900000001, 0.23581797000000002], "properties": {"magmom": -0.0}, "label": "P", "xyz": [2.7521331481579736, 7.22757206248876, 2.5577167805430374]}, {"species": [{"element": "P", "occu": 1}], "abc": [0.060139660000000005, 0.21762851, 0.73581797], "properties": {"magmom": -0.0}, "label": "P", "xyz": [0.37628387184202644, 2.0104589175112397, 7.980791155543037]}, {"species": [{"element": "P", "occu": 1}], "abc": [0.56013966, 0.28237149, 0.26418203], "properties": {"magmom": -0.0}, "label": "P", "xyz": [3.5047008918420266, 2.60855657248876, 2.8653575944569623]}, {"species": [{"element": "P", "occu": 1}], "abc": [0.18994045, 0.9463207100000001, 0.23876815], "properties": {"magmom": -0.0}, "label": "P", "xyz": [1.188425873132918, 8.742140035995597, 2.5897148716623124]}, {"species": [{"element": "P", "occu": 1}], "abc": [0.68994045, 0.55367929, 0.76123185], "properties": {"magmom": -0.0}, "label": "P", "xyz": [4.316842893132918, 5.114906434004404, 8.256433878337688]}, {"species": [{"element": "P", "occu": 1}], "abc": [0.81005955, 0.44632071, 0.26123185], "properties": {"magmom": -0.0}, "label": "P", "xyz": [5.068408166867082, 4.123124545995596, 2.8333595033376873]}, {"species": [{"element": "P", "occu": 1}], "abc": [0.31005955, 0.053679290000000005, 0.7387681500000001], "properties": {"magmom": -0.0}, "label": "P", "xyz": [1.939991146867082, 0.4958909440044042, 8.012789246662313]}, {"species": [{"element": "P", "occu": 1}], "abc": [0.81005955, 0.053679290000000005, 0.76123185], "properties": {"magmom": -0.0}, "label": "P", "xyz": [5.068408166867082, 0.4958909440044042, 8.256433878337688]}, {"species": [{"element": "P", "occu": 1}], "abc": [0.31005955, 0.44632071, 0.23876815], "properties": {"magmom": -0.0}, "label": "P", "xyz": [1.939991146867082, 4.123124545995596, 2.5897148716623124]}, {"species": [{"element": "P", "occu": 1}], "abc": [0.18994045, 0.55367929, 0.7387681500000001], "properties": {"magmom": -0.0}, "label": "P", "xyz": [1.188425873132918, 5.114906434004404, 8.012789246662313]}, {"species": [{"element": "P", "occu": 1}], "abc": [0.68994045, 0.9463207100000001, 0.26123185], "properties": {"magmom": -0.0}, "label": "P", "xyz": [4.316842893132918, 8.742140035995597, 2.8333595033376873]}, {"species": [{"element": "P", "occu": 1}], "abc": [0.75800893, 0.0433067, 0.08127961], "properties": {"magmom": 0.0}, "label": "P", "xyz": [4.7427360758479775, 0.40006863624156597, 0.8815707404019875]}, {"species": [{"element": "P", "occu": 1}], "abc": [0.25800893, 0.456693299999999, 0.91872039], "properties": {"magmom": 0.0}, "label": "P", "xyz": [1.6143190558479774, 4.218946853758425, 9.964578009598013]}, {"species": [{"element": "P", "occu": 1}], "abc": [0.24199107, 0.543306699999999, 0.41872039], "properties": {"magmom": 0.0}, "label": "P", "xyz": [1.514097964152023, 5.019084126241557, 4.541503634598012]}, {"species": [{"element": "P", "occu": 1}], "abc": [0.74199107, 0.9566933, 0.5812796100000001], "properties": {"magmom": 0.0}, "label": "P", "xyz": [4.642514984152023, 8.837962343758432, 6.304645115401987]}, {"species": [{"element": "P", "occu": 1}], "abc": [0.24199107, 0.9566933, 0.91872039], "properties": {"magmom": 0.0}, "label": "P", "xyz": [1.514097964152023, 8.837962343758432, 9.964578009598013]}, {"species": [{"element": "P", "occu": 1}], "abc": [0.74199107, 0.543306699999999, 0.08127961], "properties": {"magmom": 0.0}, "label": "P", "xyz": [4.642514984152023, 5.019084126241557, 0.8815707404019875]}, {"species": [{"element": "P", "occu": 1}], "abc": [0.75800893, 0.456693299999999, 0.5812796100000001], "properties": {"magmom": 0.0}, "label": "P", "xyz": [4.7427360758479775, 4.218946853758425, 6.304645115401987]}, {"species": [{"element": "P", "occu": 1}], "abc": [0.25800893, 0.0433067, 0.41872039], "properties": {"magmom": 0.0}, "label": "P", "xyz": [1.6143190558479774, 0.40006863624156597, 4.541503634598012]}]}, "task_ids": null, "uncorrected_energy_per_atom": null, "energy_per_atom": -12.87087222275, "formation_energy_per_atom": -0.476278763130952, "energy_above_hull": 0.0, "is_stable": true, "equilibrium_reaction_energy_per_atom": null, "decomposes_to": null, "xas": null, "grain_boundaries": null, "band_gap": 0.8481000000000001, "cbm": null, "vbm": null, "efermi": 8.8673474, "is_gap_direct": null, "is_metal": null, "es_source_calc_id": null, "bandstructure": null, "dos": null, "dos_energy_up": null, "dos_energy_down": null, "is_magnetic": null, "ordering": null, "total_magnetization": 0.0, "total_magnetization_normalized_vol": null, "total_magnetization_normalized_formula_units": null, "num_magnetic_sites": null, "num_unique_magnetic_sites": null, "types_of_magnetic_species": null, "bulk_modulus": null, "shear_modulus": null, "universal_anisotropy": null, "homogeneous_poisson": null, "e_total": null, "e_ionic": null, "e_electronic": null, "n": null, "e_ij_max": null, "weighted_surface_energy_EV_PER_ANG2": null, "weighted_surface_energy": null, "weighted_work_function": null, "surface_anisotropy": null, "shape_factor": null, "has_reconstructed": null, "possible_species": null, "has_props": null, "theoretical": null, "database_IDs": null, "fields_not_requested": ["builder_meta", "nsites", "elements", "nelements", "composition", "composition_reduced", "chemsys", "symmetry", "property_name", "deprecated", "deprecation_reasons", "last_updated", "origins", "warnings", "task_ids", "uncorrected_energy_per_atom", "equilibrium_reaction_energy_per_atom", "decomposes_to", "xas", "grain_boundaries", "cbm", "vbm", "is_gap_direct", "is_metal", "es_source_calc_id", "bandstructure", "dos", "dos_energy_up", "dos_energy_down", "is_magnetic", "ordering", "total_magnetization_normalized_vol", "total_magnetization_normalized_formula_units", "num_magnetic_sites", "num_unique_magnetic_sites", "types_of_magnetic_species", "bulk_modulus", "shear_modulus", "universal_anisotropy", "homogeneous_poisson", "e_total", "e_ionic", "e_electronic", "n", "e_ij_max", "weighted_surface_energy_EV_PER_ANG2", "weighted_surface_energy", "weighted_work_function", "surface_anisotropy", "shape_factor", "has_reconstructed", "possible_species", "has_props", "theoretical", "database_IDs"]}