{
  "builder_meta": null,
  "nsites": null,
  "elements": null,
  "nelements": null,
  "composition": null,
  "composition_reduced": null,
  "formula_pretty": "TcRh3",
  "formula_anonymous": "AB3",
  "chemsys": null,
  "volume": 110.51534961203149,
  "density": 12.222168950317348,
  "density_atomic": 13.814418701503936,
  "symmetry": null,
  "property_name": null,
  "material_id": "mp-867352",
  "deprecated": null,
  "deprecation_reasons": null,
  "last_updated": null,
  "origins": null,
  "warnings": null,
  "structure": {
    "@module": "pymatgen.core.structure",
    "@class": "Structure",
    "charge": 0,
    "lattice": {
      "matrix": [
        [5.43463039, 0.0, 0.0],
        [-2.7173146900000003, 4.70652661, 0.0],
        [0.0, -0.0, 4.32067968]
      ],
      "pbc": [true, true, true],
      "a": 5.43463039,
      "b": 5.434628952847461,
      "c": 4.32067968,
      "alpha": 90.0,
      "beta": 90.0,
      "gamma": 120.00000260001052,
      "volume": 110.51534961203149
    },
    "properties": {},
    "sites": [
      {
        "species": [{ "element": "Tc", "occu": 1 }],
        "abc": [0.333333, 0.666666, 0.75],
        "properties": { "magmom": 0.0 },
        "label": "Tc",
        "xyz": [3.366663297033057e-7, 3.1376812689822597, 3.2405097599999997]
      },
      {
        "species": [{ "element": "Tc", "occu": 1 }],
        "abc": [0.666666, 0.333333, 0.250001],
        "properties": { "magmom": 0.0 },
        "label": "Tc",
        "xyz": [2.7173126460179695, 1.5688406344911299, 1.0801742406796797]
      },
      {
        "species": [{ "element": "Rh", "occu": 1 }],
        "abc": [0.16838757000000001, 0.33677814, 0.250001],
        "properties": { "magmom": 0.0 },
        "label": "Rh",
        "xyz": [-7.981872624407416e-6, 1.5850552775763054, 1.0801742406796797]
      },
      {
        "species": [{ "element": "Rh", "occu": 1 }],
        "abc": [0.66322386, 0.8316124300000001, 0.250001],
        "properties": { "magmom": 0.0 },
        "label": "Rh",
        "xyz": [1.344623872503508, 3.9140060310017626, 1.0801742406796797]
      },
      {
        "species": [{ "element": "Rh", "occu": 1 }],
        "abc": [0.16838657, 0.8316124300000001, 0.250001],
        "properties": { "magmom": 0.0 },
        "label": "Rh",
        "xyz": [-1.344633901835735, 3.9140060310017626, 1.0801742406796797]
      },
      {
        "species": [{ "element": "Rh", "occu": 1 }],
        "abc": [0.83161043, 0.66322186, 0.75],
        "properties": { "magmom": 0.0 },
        "label": "Rh",
        "xyz": [2.7173128126118438, 3.121471332423695, 3.2405097599999997]
      },
      {
        "species": [{ "element": "Rh", "occu": 1 }],
        "abc": [0.33677814, 0.16838857000000002, 0.75],
        "properties": { "magmom": 0.0 },
        "label": "Rh",
        "xyz": [1.3726999794425812, 0.7925252855248478, 3.2405097599999997]
      },
      {
        "species": [{ "element": "Rh", "occu": 1 }],
        "abc": [0.8316124300000001, 0.16838857000000002, 0.75],
        "properties": { "magmom": 0.0 },
        "label": "Rh",
        "xyz": [4.0619414498906545, 0.7925252855248478, 3.2405097599999997]
      }
    ]
  },
  "task_ids": null,
  "uncorrected_energy_per_atom": null,
  "energy_per_atom": -24.6839740375,
  "formation_energy_per_atom": -0.09063705249999901,
  "energy_above_hull": 0.0,
  "is_stable": true,
  "equilibrium_reaction_energy_per_atom": null,
  "decomposes_to": null,
  "xas": null,
  "grain_boundaries": null,
  "band_gap": 0.0,
  "cbm": null,
  "vbm": null,
  "efermi": 7.70225635,
  "is_gap_direct": null,
  "is_metal": null,
  "es_source_calc_id": null,
  "bandstructure": null,
  "dos": null,
  "dos_energy_up": null,
  "dos_energy_down": null,
  "is_magnetic": null,
  "ordering": null,
  "total_magnetization": 6e-7,
  "total_magnetization_normalized_vol": null,
  "total_magnetization_normalized_formula_units": null,
  "num_magnetic_sites": null,
  "num_unique_magnetic_sites": null,
  "types_of_magnetic_species": null,
  "bulk_modulus": null,
  "shear_modulus": null,
  "universal_anisotropy": null,
  "homogeneous_poisson": null,
  "e_total": null,
  "e_ionic": null,
  "e_electronic": null,
  "n": null,
  "e_ij_max": null,
  "weighted_surface_energy_EV_PER_ANG2": null,
  "weighted_surface_energy": null,
  "weighted_work_function": null,
  "surface_anisotropy": null,
  "shape_factor": null,
  "has_reconstructed": null,
  "possible_species": null,
  "has_props": null,
  "theoretical": null,
  "database_IDs": null,
  "fields_not_requested": [
    "builder_meta",
    "nsites",
    "elements",
    "nelements",
    "composition",
    "composition_reduced",
    "chemsys",
    "symmetry",
    "property_name",
    "deprecated",
    "deprecation_reasons",
    "last_updated",
    "origins",
    "warnings",
    "task_ids",
    "uncorrected_energy_per_atom",
    "equilibrium_reaction_energy_per_atom",
    "decomposes_to",
    "xas",
    "grain_boundaries",
    "cbm",
    "vbm",
    "is_gap_direct",
    "is_metal",
    "es_source_calc_id",
    "bandstructure",
    "dos",
    "dos_energy_up",
    "dos_energy_down",
    "is_magnetic",
    "ordering",
    "total_magnetization_normalized_vol",
    "total_magnetization_normalized_formula_units",
    "num_magnetic_sites",
    "num_unique_magnetic_sites",
    "types_of_magnetic_species",
    "bulk_modulus",
    "shear_modulus",
    "universal_anisotropy",
    "homogeneous_poisson",
    "e_total",
    "e_ionic",
    "e_electronic",
    "n",
    "e_ij_max",
    "weighted_surface_energy_EV_PER_ANG2",
    "weighted_surface_energy",
    "weighted_work_function",
    "surface_anisotropy",
    "shape_factor",
    "has_reconstructed",
    "possible_species",
    "has_props",
    "theoretical",
    "database_IDs"
  ]
}
