{"builder_meta": null, "nsites": null, "elements": null, "nelements": null, "composition": null, "composition_reduced": null, "formula_pretty": "TcRu3", "formula_anonymous": "AB3", "chemsys": null, "volume": 109.59235919813698, "density": 12.158235916905262, "density_atomic": 13.699044899767122, "symmetry": null, "property_name": null, "material_id": "mp-867356", "deprecated": null, "deprecation_reasons": null, "last_updated": null, "origins": null, "warnings": null, "structure": {"@module": "pymatgen.core.structure", "@class": "Structure", "charge": 0, "lattice": {"matrix": [[5.43944418, 1e-08, -0.0], [-2.7197210800000002, 4.7106948, 0.0], [0.0, 0.0, 4.2770151]], "pbc": [true, true, true], "a": 5.43944418, "b": 5.439441906275258, "c": 4.2770151, "alpha": 90.0, "beta": 90.0, "gamma": 120.00000143768234, "volume": 109.59235919813698}, "properties": {}, "sites": [{"species": [{"element": "Tc", "occu": 1}], "abc": [0.333333, 0.666666, 0.749999], "properties": {"magmom": 0.0}, "label": "Tc", "xyz": [6.733326598507006e-07, 3.1404600628701296, 3.2077570479848996]}, {"species": [{"element": "Tc", "occu": 1}], "abc": [0.666667, 0.333331999999999, 0.25], "properties": {"magmom": 0.0}, "label": "Tc", "xyz": [2.7197278661095026, 1.5702253257402654, 1.069253775]}, {"species": [{"element": "Ru", "occu": 1}], "abc": [0.16752093, 0.33504086, 0.249999], "properties": {"magmom": -0.0}, "label": "Ru", "xyz": [3.0581133585450004e-06, 1.5782752386647372, 1.0692494979848999]}, {"species": [{"element": "Ru", "occu": 1}], "abc": [0.66495814, 0.83247707, 0.249999], "properties": {"magmom": -0.0}, "label": "Ru", "xyz": [1.3528972486709891, 3.921545411417817, 1.0692494979848999]}, {"species": [{"element": "Ru", "occu": 1}], "abc": [0.16751993, 0.83247707, 0.249999], "properties": {"magmom": -0.0}, "label": "Ru", "xyz": [-1.3528901276231284, 3.921545406443435, 1.0692494979848999]}, {"species": [{"element": "Ru", "occu": 1}], "abc": [0.83248007, 0.66495914, 0.75], "properties": {"magmom": -0.0}, "label": "Ru", "xyz": [2.719725481330821, 3.1324195713352725, 3.207761325]}, {"species": [{"element": "Ru", "occu": 1}], "abc": [0.33504286, 0.16752293000000001, 0.75], "properties": {"magmom": -0.0}, "label": "Ru", "xyz": [1.3668312907731903, 0.7891493985821926, 3.207761325]}, {"species": [{"element": "Ru", "occu": 1}], "abc": [0.83248007, 0.16752293000000001, 0.75], "properties": {"magmom": -0.0}, "label": "Ru", "xyz": [4.072613227623128, 0.7891494035565647, 3.207761325]}]}, "task_ids": null, "uncorrected_energy_per_atom": null, "energy_per_atom": -25.63097099875, "formation_energy_per_atom": -0.071404015000002, "energy_above_hull": 0.0, "is_stable": true, "equilibrium_reaction_energy_per_atom": null, "decomposes_to": null, "xas": null, "grain_boundaries": null, "band_gap": 0.0, "cbm": null, "vbm": null, "efermi": 8.4116523, "is_gap_direct": null, "is_metal": null, "es_source_calc_id": null, "bandstructure": null, "dos": null, "dos_energy_up": null, "dos_energy_down": null, "is_magnetic": null, "ordering": null, "total_magnetization": 0.0, "total_magnetization_normalized_vol": null, "total_magnetization_normalized_formula_units": null, "num_magnetic_sites": null, "num_unique_magnetic_sites": null, "types_of_magnetic_species": null, "bulk_modulus": null, "shear_modulus": null, "universal_anisotropy": null, "homogeneous_poisson": null, "e_total": null, "e_ionic": null, "e_electronic": null, "n": null, "e_ij_max": null, "weighted_surface_energy_EV_PER_ANG2": null, "weighted_surface_energy": null, "weighted_work_function": null, "surface_anisotropy": null, "shape_factor": null, "has_reconstructed": null, "possible_species": null, "has_props": null, "theoretical": null, "database_IDs": null, "fields_not_requested": ["builder_meta", "nsites", "elements", "nelements", "composition", "composition_reduced", "chemsys", "symmetry", "property_name", "deprecated", "deprecation_reasons", "last_updated", "origins", "warnings", "task_ids", "uncorrected_energy_per_atom", "equilibrium_reaction_energy_per_atom", "decomposes_to", "xas", "grain_boundaries", "cbm", "vbm", "is_gap_direct", "is_metal", "es_source_calc_id", "bandstructure", "dos", "dos_energy_up", "dos_energy_down", "is_magnetic", "ordering", "total_magnetization_normalized_vol", "total_magnetization_normalized_formula_units", "num_magnetic_sites", "num_unique_magnetic_sites", "types_of_magnetic_species", "bulk_modulus", "shear_modulus", "universal_anisotropy", "homogeneous_poisson", "e_total", "e_ionic", "e_electronic", "n", "e_ij_max", "weighted_surface_energy_EV_PER_ANG2", "weighted_surface_energy", "weighted_work_function", "surface_anisotropy", "shape_factor", "has_reconstructed", "possible_species", "has_props", "theoretical", "database_IDs"]}