{
  "builder_meta": null,
  "nsites": null,
  "elements": null,
  "nelements": null,
  "composition": null,
  "composition_reduced": null,
  "formula_pretty": "TcS2",
  "formula_anonymous": "AB2",
  "chemsys": null,
  "volume": 229.4155268124772,
  "density": 4.694071105098641,
  "density_atomic": 19.117960567706433,
  "symmetry": null,
  "property_name": null,
  "material_id": "mp-9481",
  "deprecated": null,
  "deprecation_reasons": null,
  "last_updated": null,
  "origins": null,
  "warnings": null,
  "structure": {
    "@module": "pymatgen.core.structure",
    "@class": "Structure",
    "charge": 0,
    "lattice": {
      "matrix": [
        [6.20177254, -0.00102372, 1.50318787],
        [2.53204728, 5.23231876, 2.87916874],
        [-0.06697064, -0.23433504, 6.95163762]
      ],
      "pbc": [true, true, true],
      "a": 6.381344486737558,
      "b": 6.48675848693294,
      "c": 6.955908537164148,
      "alpha": 65.62866346060841,
      "beta": 76.93457244130572,
      "gamma": 61.067347581527414,
      "volume": 229.4155268124772
    },
    "properties": {},
    "sites": [
      {
        "species": [{ "element": "Tc", "occu": 1 }],
        "abc": [0.51125267, 0.28636185000000003, 0.50191587],
        "properties": { "magmom": 0.0 },
        "label": "Tc",
        "xyz": [3.8621408861558932, 1.3801966248468889, 5.082130142864711]
      },
      {
        "species": [{ "element": "Tc", "occu": 1 }],
        "abc": [0.48874733000000004, 0.71363815, 0.49808413],
        "properties": { "magmom": 0.0 },
        "label": "Tc",
        "xyz": [4.804708293844108, 3.6167633751531114, 6.251864087135289]
      },
      {
        "species": [{ "element": "Tc", "occu": 1 }],
        "abc": [0.93757199, 0.30945129, 0.5074544],
        "properties": { "magmom": -0.0 },
        "label": "Tc",
        "xyz": [6.564168973053331, 1.4992736316534214, 5.827948420814964]
      },
      {
        "species": [{ "element": "Tc", "occu": 1 }],
        "abc": [0.06242801, 0.6905487100000001, 0.4925456],
        "properties": { "magmom": -0.0 },
        "label": "Tc",
        "xyz": [2.102680206946671, 3.497686368346579, 5.506045809185036]
      },
      {
        "species": [{ "element": "S", "occu": 1 }],
        "abc": [0.32441261, 0.17400454, 0.31369612],
        "properties": { "magmom": 0.0 },
        "label": "S",
        "xyz": [2.4315125086204636, 0.8366051184620165, 3.1693432814531546]
      },
      {
        "species": [{ "element": "S", "occu": 1 }],
        "abc": [0.67558739, 0.82599546, 0.68630388],
        "properties": { "magmom": 0.0 },
        "label": "S",
        "xyz": [6.235336671379537, 4.160354881537984, 8.164650948546845]
      },
      {
        "species": [{ "element": "S", "occu": 1 }],
        "abc": [0.85964818, 0.15778227, 0.28926556000000003],
        "properties": { "magmom": -0.0 },
        "label": "S",
        "xyz": [5.7114823446875445, 0.7569020357083333, 3.757363845220184]
      },
      {
        "species": [{ "element": "S", "occu": 1 }],
        "abc": [0.14035182000000002, 0.84221773, 0.71073444],
        "properties": { "magmom": -0.0 },
        "label": "S",
        "xyz": [2.955366835312456, 4.240057964291668, 7.576630384779816]
      },
      {
        "species": [{ "element": "S", "occu": 1 }],
        "abc": [0.36385853, 0.67545402, 0.23010803],
        "properties": { "magmom": 0.0 },
        "label": "S",
        "xyz": [3.951438871866593, 3.4798958766947123, 4.0913214663954545]
      },
      {
        "species": [{ "element": "S", "occu": 1 }],
        "abc": [0.63614147, 0.32454598, 0.76989197],
        "properties": { "magmom": 0.0 },
        "label": "S",
        "xyz": [4.715410308133408, 1.5170641233052877, 7.242672763604546]
      },
      {
        "species": [{ "element": "S", "occu": 1 }],
        "abc": [0.8281006, 0.70400584, 0.25636751],
        "properties": { "magmom": 0.0 },
        "label": "S",
        "xyz": [6.901098537493733, 3.622659329924776, 5.05391641142689]
      },
      {
        "species": [{ "element": "S", "occu": 1 }],
        "abc": [0.171899399999999, 0.29599416, 0.74363249],
        "properties": { "magmom": 0.0 },
        "label": "S",
        "xyz": [1.765750642506261, 1.374300670075224, 6.280077818573108]
      }
    ]
  },
  "task_ids": null,
  "uncorrected_energy_per_atom": null,
  "energy_per_atom": -14.736922925833333,
  "formation_energy_per_atom": -0.7253695210416661,
  "energy_above_hull": 0.0,
  "is_stable": true,
  "equilibrium_reaction_energy_per_atom": null,
  "decomposes_to": null,
  "xas": null,
  "grain_boundaries": null,
  "band_gap": 1.1885,
  "cbm": null,
  "vbm": null,
  "efermi": 3.776186189999999,
  "is_gap_direct": null,
  "is_metal": null,
  "es_source_calc_id": null,
  "bandstructure": null,
  "dos": null,
  "dos_energy_up": null,
  "dos_energy_down": null,
  "is_magnetic": null,
  "ordering": null,
  "total_magnetization": 0.0,
  "total_magnetization_normalized_vol": null,
  "total_magnetization_normalized_formula_units": null,
  "num_magnetic_sites": null,
  "num_unique_magnetic_sites": null,
  "types_of_magnetic_species": null,
  "bulk_modulus": null,
  "shear_modulus": null,
  "universal_anisotropy": null,
  "homogeneous_poisson": null,
  "e_total": null,
  "e_ionic": null,
  "e_electronic": null,
  "n": null,
  "e_ij_max": null,
  "weighted_surface_energy_EV_PER_ANG2": null,
  "weighted_surface_energy": null,
  "weighted_work_function": null,
  "surface_anisotropy": null,
  "shape_factor": null,
  "has_reconstructed": null,
  "possible_species": null,
  "has_props": null,
  "theoretical": null,
  "database_IDs": null,
  "fields_not_requested": [
    "builder_meta",
    "nsites",
    "elements",
    "nelements",
    "composition",
    "composition_reduced",
    "chemsys",
    "symmetry",
    "property_name",
    "deprecated",
    "deprecation_reasons",
    "last_updated",
    "origins",
    "warnings",
    "task_ids",
    "uncorrected_energy_per_atom",
    "equilibrium_reaction_energy_per_atom",
    "decomposes_to",
    "xas",
    "grain_boundaries",
    "cbm",
    "vbm",
    "is_gap_direct",
    "is_metal",
    "es_source_calc_id",
    "bandstructure",
    "dos",
    "dos_energy_up",
    "dos_energy_down",
    "is_magnetic",
    "ordering",
    "total_magnetization_normalized_vol",
    "total_magnetization_normalized_formula_units",
    "num_magnetic_sites",
    "num_unique_magnetic_sites",
    "types_of_magnetic_species",
    "bulk_modulus",
    "shear_modulus",
    "universal_anisotropy",
    "homogeneous_poisson",
    "e_total",
    "e_ionic",
    "e_electronic",
    "n",
    "e_ij_max",
    "weighted_surface_energy_EV_PER_ANG2",
    "weighted_surface_energy",
    "weighted_work_function",
    "surface_anisotropy",
    "shape_factor",
    "has_reconstructed",
    "possible_species",
    "has_props",
    "theoretical",
    "database_IDs"
  ]
}
