{
  "builder_meta": null,
  "nsites": null,
  "elements": null,
  "nelements": null,
  "composition": null,
  "composition_reduced": null,
  "formula_pretty": "Te2Au",
  "formula_anonymous": "AB2",
  "chemsys": null,
  "volume": 677.9404176504787,
  "density": 8.860250640162779,
  "density_atomic": 28.24751740210328,
  "symmetry": null,
  "property_name": null,
  "material_id": "mp-20123",
  "deprecated": null,
  "deprecation_reasons": null,
  "last_updated": null,
  "origins": null,
  "warnings": null,
  "structure": {
    "@module": "pymatgen.core.structure",
    "@class": "Structure",
    "charge": 0,
    "lattice": {
      "matrix": [
        [4.53912196, 0.0, 0.0],
        [0.0, 8.87196605, 0.0],
        [0.0, 0.0, 16.83448378]
      ],
      "pbc": [true, true, true],
      "a": 4.53912196,
      "b": 8.87196605,
      "c": 16.83448378,
      "alpha": 90.0,
      "beta": 90.0,
      "gamma": 90.0,
      "volume": 677.9404176504787
    },
    "properties": {},
    "sites": [
      {
        "species": [{ "element": "Te", "occu": 1 }],
        "abc": [0.44161913, 0.03058271, 0.620219499999999],
        "properties": { "magmom": -0.0 },
        "label": "Te",
        "xyz": [2.004563090939095, 0.2713287648369955, 10.441075112789694]
      },
      {
        "species": [{ "element": "Te", "occu": 1 }],
        "abc": [0.44161913, 0.96941729, 0.379780499999999],
        "properties": { "magmom": -0.0 },
        "label": "Te",
        "xyz": [2.004563090939095, 8.600637285163003, 6.393408667210274]
      },
      {
        "species": [{ "element": "Te", "occu": 1 }],
        "abc": [0.44161913, 0.96941729, 0.12021949999999901],
        "properties": { "magmom": -0.0 },
        "label": "Te",
        "xyz": [2.004563090939095, 8.600637285163003, 2.023833222789693]
      },
      {
        "species": [{ "element": "Te", "occu": 1 }],
        "abc": [0.44161913, 0.03058271, 0.8797805],
        "properties": { "magmom": -0.0 },
        "label": "Te",
        "xyz": [2.004563090939095, 0.2713287648369955, 14.81065055721029]
      },
      {
        "species": [{ "element": "Te", "occu": 1 }],
        "abc": [0.52496024, 0.63729398, 0.62857058],
        "properties": { "magmom": 0.0 },
        "label": "Te",
        "xyz": [2.38285855351087, 5.654050554429379, 10.581661233595192]
      },
      {
        "species": [{ "element": "Te", "occu": 1 }],
        "abc": [0.52496024, 0.36270602, 0.37142942],
        "properties": { "magmom": 0.0 },
        "label": "Te",
        "xyz": [2.38285855351087, 3.217915495570621, 6.252822546404808]
      },
      {
        "species": [{ "element": "Te", "occu": 1 }],
        "abc": [0.52496024, 0.36270602, 0.12857058],
        "properties": { "magmom": 0.0 },
        "label": "Te",
        "xyz": [2.38285855351087, 3.217915495570621, 2.164419343595192]
      },
      {
        "species": [{ "element": "Te", "occu": 1 }],
        "abc": [0.52496024, 0.63729398, 0.87142942],
        "properties": { "magmom": 0.0 },
        "label": "Te",
        "xyz": [2.38285855351087, 5.654050554429379, 14.670064436404807]
      },
      {
        "species": [{ "element": "Te", "occu": 1 }],
        "abc": [0.03016814, 0.97707312, 0.75],
        "properties": { "magmom": -0.0 },
        "label": "Te",
        "xyz": [0.13693686676635441, 8.668559549007576, 12.625862835]
      },
      {
        "species": [{ "element": "Te", "occu": 1 }],
        "abc": [0.03016814, 0.02292688, 0.25],
        "properties": { "magmom": -0.0 },
        "label": "Te",
        "xyz": [0.13693686676635441, 0.203406500992424, 4.208620945]
      },
      {
        "species": [{ "element": "Te", "occu": 1 }],
        "abc": [0.11747228, 0.37673851, 0.75],
        "properties": { "magmom": -0.0 },
        "label": "Te",
        "xyz": [0.5332210058392688, 3.3424112704475855, 12.625862835]
      },
      {
        "species": [{ "element": "Te", "occu": 1 }],
        "abc": [0.11747228, 0.62326149, 0.25],
        "properties": { "magmom": -0.0 },
        "label": "Te",
        "xyz": [0.5332210058392688, 5.529554779552414, 4.208620945]
      },
      {
        "species": [{ "element": "Te", "occu": 1 }],
        "abc": [0.89541269, 0.69971508, 0.00725163],
        "properties": { "magmom": 0.0 },
        "label": "Te",
        "xyz": [4.064387404441672, 6.207848434433034, 0.1220774476135614]
      },
      {
        "species": [{ "element": "Te", "occu": 1 }],
        "abc": [0.89541269, 0.30028492, 0.99274837],
        "properties": { "magmom": 0.0 },
        "label": "Te",
        "xyz": [4.064387404441672, 2.664117615566966, 16.71240633238644]
      },
      {
        "species": [{ "element": "Te", "occu": 1 }],
        "abc": [0.89541269, 0.30028492, 0.5072516300000001],
        "properties": { "magmom": 0.0 },
        "label": "Te",
        "xyz": [4.064387404441672, 2.664117615566966, 8.539319337613563]
      },
      {
        "species": [{ "element": "Te", "occu": 1 }],
        "abc": [0.89541269, 0.69971508, 0.49274837],
        "properties": { "magmom": 0.0 },
        "label": "Te",
        "xyz": [4.064387404441672, 6.207848434433034, 8.295164442386438]
      },
      {
        "species": [{ "element": "Au", "occu": 1 }],
        "abc": [0.49240555, 0.33282259000000003, 0.62598259],
        "properties": { "magmom": -0.0 },
        "label": "Au",
        "xyz": [2.2350888452308784, 2.9527907191530693, 10.53809375791739]
      },
      {
        "species": [{ "element": "Au", "occu": 1 }],
        "abc": [0.49240555, 0.66717741, 0.37401741],
        "properties": { "magmom": -0.0 },
        "label": "Au",
        "xyz": [2.2350888452308784, 5.9191753308469295, 6.296390022082609]
      },
      {
        "species": [{ "element": "Au", "occu": 1 }],
        "abc": [0.49240555, 0.66717741, 0.12598259],
        "properties": { "magmom": -0.0 },
        "label": "Au",
        "xyz": [2.2350888452308784, 5.9191753308469295, 2.12085186791739]
      },
      {
        "species": [{ "element": "Au", "occu": 1 }],
        "abc": [0.49240555, 0.33282259000000003, 0.87401741],
        "properties": { "magmom": -0.0 },
        "label": "Au",
        "xyz": [2.2350888452308784, 2.9527907191530693, 14.71363191208261]
      },
      {
        "species": [{ "element": "Au", "occu": 1 }],
        "abc": [0.02280179, 0.32501939, 0.25],
        "properties": { "magmom": 0.0 },
        "label": "Au",
        "xyz": [0.1035001057163084, 2.8835609936717095, 4.208620945]
      },
      {
        "species": [{ "element": "Au", "occu": 1 }],
        "abc": [0.02280179, 0.67498061, 0.75],
        "properties": { "magmom": 0.0 },
        "label": "Au",
        "xyz": [0.1035001057163084, 5.98840505632829, 12.625862835]
      },
      {
        "species": [{ "element": "Au", "occu": 1 }],
        "abc": [0.95075657, 0.0, 0.5],
        "properties": { "magmom": 0.0 },
        "label": "Au",
        "xyz": [4.315600025501277, 0.0, 8.41724189]
      },
      {
        "species": [{ "element": "Au", "occu": 1 }],
        "abc": [0.95075657, 0.0, 0.0],
        "properties": { "magmom": 0.0 },
        "label": "Au",
        "xyz": [4.315600025501277, 0.0, 0.0]
      }
    ]
  },
  "task_ids": null,
  "uncorrected_energy_per_atom": null,
  "energy_per_atom": -33.89737373333333,
  "formation_energy_per_atom": -0.090904143333337,
  "energy_above_hull": 0.0,
  "is_stable": true,
  "equilibrium_reaction_energy_per_atom": null,
  "decomposes_to": null,
  "xas": null,
  "grain_boundaries": null,
  "band_gap": 0.0,
  "cbm": null,
  "vbm": null,
  "efermi": 5.74426377,
  "is_gap_direct": null,
  "is_metal": null,
  "es_source_calc_id": null,
  "bandstructure": null,
  "dos": null,
  "dos_energy_up": null,
  "dos_energy_down": null,
  "is_magnetic": null,
  "ordering": null,
  "total_magnetization": 1e-7,
  "total_magnetization_normalized_vol": null,
  "total_magnetization_normalized_formula_units": null,
  "num_magnetic_sites": null,
  "num_unique_magnetic_sites": null,
  "types_of_magnetic_species": null,
  "bulk_modulus": null,
  "shear_modulus": null,
  "universal_anisotropy": null,
  "homogeneous_poisson": null,
  "e_total": null,
  "e_ionic": null,
  "e_electronic": null,
  "n": null,
  "e_ij_max": null,
  "weighted_surface_energy_EV_PER_ANG2": null,
  "weighted_surface_energy": null,
  "weighted_work_function": null,
  "surface_anisotropy": null,
  "shape_factor": null,
  "has_reconstructed": null,
  "possible_species": null,
  "has_props": null,
  "theoretical": null,
  "database_IDs": null,
  "fields_not_requested": [
    "builder_meta",
    "nsites",
    "elements",
    "nelements",
    "composition",
    "composition_reduced",
    "chemsys",
    "symmetry",
    "property_name",
    "deprecated",
    "deprecation_reasons",
    "last_updated",
    "origins",
    "warnings",
    "task_ids",
    "uncorrected_energy_per_atom",
    "equilibrium_reaction_energy_per_atom",
    "decomposes_to",
    "xas",
    "grain_boundaries",
    "cbm",
    "vbm",
    "is_gap_direct",
    "is_metal",
    "es_source_calc_id",
    "bandstructure",
    "dos",
    "dos_energy_up",
    "dos_energy_down",
    "is_magnetic",
    "ordering",
    "total_magnetization_normalized_vol",
    "total_magnetization_normalized_formula_units",
    "num_magnetic_sites",
    "num_unique_magnetic_sites",
    "types_of_magnetic_species",
    "bulk_modulus",
    "shear_modulus",
    "universal_anisotropy",
    "homogeneous_poisson",
    "e_total",
    "e_ionic",
    "e_electronic",
    "n",
    "e_ij_max",
    "weighted_surface_energy_EV_PER_ANG2",
    "weighted_surface_energy",
    "weighted_work_function",
    "surface_anisotropy",
    "shape_factor",
    "has_reconstructed",
    "possible_species",
    "has_props",
    "theoretical",
    "database_IDs"
  ]
}
