{"builder_meta": null, "nsites": null, "elements": null, "nelements": null, "composition": null, "composition_reduced": null, "formula_pretty": "Te2Br", "formula_anonymous": "AB2", "chemsys": null, "volume": 843.7857616637069, "density": 5.275777892025651, "density_atomic": 35.15774006932112, "symmetry": null, "property_name": null, "material_id": "mp-27648", "deprecated": null, "deprecation_reasons": null, "last_updated": null, "origins": null, "warnings": null, "structure": {"@module": "pymatgen.core.structure", "@class": "Structure", "charge": 0, "lattice": {"matrix": [[4.03908753, -0.0, 0.0], [0.0, 13.23115883, 0.0], [0.0, 0.0, 15.78886986]], "pbc": [true, true, true], "a": 4.03908753, "b": 13.23115883, "c": 15.78886986, "alpha": 90.0, "beta": 90.0, "gamma": 90.0, "volume": 843.7857616637069}, "properties": {}, "sites": [{"species": [{"element": "Te", "occu": 1}], "abc": [0.75, 0.05279679, 0.7209551], "properties": {"magmom": 0.0}, "label": "Te", "xyz": [3.0293156475, 0.6985627142041557, 11.383066248803285]}, {"species": [{"element": "Te", "occu": 1}], "abc": [0.25, 0.9472032100000001, 0.2790449], "properties": {"magmom": 0.0}, "label": "Te", "xyz": [1.0097718825, 12.532596115795846, 4.405803611196713]}, {"species": [{"element": "Te", "occu": 1}], "abc": [0.25, 0.55279679, 0.779044899999999], "properties": {"magmom": 0.0}, "label": "Te", "xyz": [1.0097718825, 7.314142129204156, 12.300238541196698]}, {"species": [{"element": "Te", "occu": 1}], "abc": [0.75, 0.44720321, 0.2209551], "properties": {"magmom": 0.0}, "label": "Te", "xyz": [3.0293156475, 5.917016700795845, 3.488631318803286]}, {"species": [{"element": "Te", "occu": 1}], "abc": [0.25, 0.19749801, 0.6831606], "properties": {"magmom": 0.0}, "label": "Te", "xyz": [1.0097718825, 2.613127538918928, 10.786333806879517]}, {"species": [{"element": "Te", "occu": 1}], "abc": [0.75, 0.80250199, 0.3168394], "properties": {"magmom": 0.0}, "label": "Te", "xyz": [3.0293156475, 10.618031291081072, 5.002536053120484]}, {"species": [{"element": "Te", "occu": 1}], "abc": [0.75, 0.69749801, 0.8168394], "properties": {"magmom": 0.0}, "label": "Te", "xyz": [3.0293156475, 9.228706953918929, 12.896970983120484]}, {"species": [{"element": "Te", "occu": 1}], "abc": [0.25, 0.30250199, 0.183160599999999], "properties": {"magmom": 0.0}, "label": "Te", "xyz": [1.0097718825, 4.0024518760810714, 2.8918988768795004]}, {"species": [{"element": "Te", "occu": 1}], "abc": [0.75, 0.41572458, 0.40820346], "properties": {"magmom": 0.0}, "label": "Te", "xyz": [3.0293156475, 5.500517947515042, 6.445071306341716]}, {"species": [{"element": "Te", "occu": 1}], "abc": [0.25, 0.58427542, 0.59179654], "properties": {"magmom": 0.0}, "label": "Te", "xyz": [1.0097718825, 7.730640882484958, 9.343798553658285]}, {"species": [{"element": "Te", "occu": 1}], "abc": [0.25, 0.91572458, 0.09179654], "properties": {"magmom": 0.0}, "label": "Te", "xyz": [1.0097718825, 12.116097362515042, 1.4493636236582843]}, {"species": [{"element": "Te", "occu": 1}], "abc": [0.75, 0.08427542, 0.9082034600000001], "properties": {"magmom": 0.0}, "label": "Te", "xyz": [3.0293156475, 1.1150614674849586, 14.339506236341716]}, {"species": [{"element": "Te", "occu": 1}], "abc": [0.25, 0.26296476, 0.42305768], "properties": {"magmom": -0.0}, "label": "Te", "xyz": [1.0097718825, 3.479328506252831, 6.679602652793525]}, {"species": [{"element": "Te", "occu": 1}], "abc": [0.75, 0.73703524, 0.57694232], "properties": {"magmom": -0.0}, "label": "Te", "xyz": [3.0293156475, 9.75183032374717, 9.109267207206475]}, {"species": [{"element": "Te", "occu": 1}], "abc": [0.75, 0.76296476, 0.07694232000000001], "properties": {"magmom": -0.0}, "label": "Te", "xyz": [3.0293156475, 10.094907921252831, 1.2148322772064752]}, {"species": [{"element": "Te", "occu": 1}], "abc": [0.25, 0.23703524, 0.92305768], "properties": {"magmom": -0.0}, "label": "Te", "xyz": [1.0097718825, 3.1362509087471695, 14.574037582793524]}, {"species": [{"element": "Br", "occu": 1}], "abc": [0.75, 0.139138899999999, 0.15273554], "properties": {"magmom": -0.0}, "label": "Br", "xyz": [3.0293156475, 1.8409688853314738, 2.4115215640568244]}, {"species": [{"element": "Br", "occu": 1}], "abc": [0.25, 0.860861099999999, 0.84726446], "properties": {"magmom": -0.0}, "label": "Br", "xyz": [1.0097718825, 11.390189944668501, 13.377348295943175]}, {"species": [{"element": "Br", "occu": 1}], "abc": [0.25, 0.6391389, 0.34726546], "properties": {"magmom": -0.0}, "label": "Br", "xyz": [1.0097718825, 8.456548300331486, 5.482929154813036]}, {"species": [{"element": "Br", "occu": 1}], "abc": [0.75, 0.3608611, 0.65273554], "properties": {"magmom": -0.0}, "label": "Br", "xyz": [3.0293156475, 4.774610529668513, 10.305956494056824]}, {"species": [{"element": "Br", "occu": 1}], "abc": [0.75, 0.10533425, 0.4431385], "properties": {"magmom": 0.0}, "label": "Br", "xyz": [3.0293156475, 1.3936941919889276, 6.99665610645561]}, {"species": [{"element": "Br", "occu": 1}], "abc": [0.25, 0.89466575, 0.5568615], "properties": {"magmom": 0.0}, "label": "Br", "xyz": [1.0097718825, 11.837464638011072, 8.79221375354439]}, {"species": [{"element": "Br", "occu": 1}], "abc": [0.25, 0.60533425, 0.056861499999999], "properties": {"magmom": 0.0}, "label": "Br", "xyz": [1.0097718825, 8.009273606988927, 0.8977788235443742]}, {"species": [{"element": "Br", "occu": 1}], "abc": [0.75, 0.39466575, 0.9431385], "properties": {"magmom": 0.0}, "label": "Br", "xyz": [3.0293156475, 5.221885223011072, 14.89109103645561]}]}, "task_ids": null, "uncorrected_energy_per_atom": null, "energy_per_atom": -2.987118317083334, "formation_energy_per_atom": -0.345932209861111, "energy_above_hull": 0.0, "is_stable": true, "equilibrium_reaction_energy_per_atom": null, "decomposes_to": null, "xas": null, "grain_boundaries": null, "band_gap": 0.6562999999999991, "cbm": null, "vbm": null, "efermi": 2.875582419999999, "is_gap_direct": null, "is_metal": null, "es_source_calc_id": null, "bandstructure": null, "dos": null, "dos_energy_up": null, "dos_energy_down": null, "is_magnetic": null, "ordering": null, "total_magnetization": 0.0, "total_magnetization_normalized_vol": null, "total_magnetization_normalized_formula_units": null, "num_magnetic_sites": null, "num_unique_magnetic_sites": null, "types_of_magnetic_species": null, "bulk_modulus": null, "shear_modulus": null, "universal_anisotropy": null, "homogeneous_poisson": null, "e_total": null, "e_ionic": null, "e_electronic": null, "n": null, "e_ij_max": null, "weighted_surface_energy_EV_PER_ANG2": null, "weighted_surface_energy": null, "weighted_work_function": null, "surface_anisotropy": null, "shape_factor": null, "has_reconstructed": null, "possible_species": null, "has_props": null, "theoretical": null, "database_IDs": null, "fields_not_requested": ["builder_meta", "nsites", "elements", "nelements", "composition", "composition_reduced", "chemsys", "symmetry", "property_name", "deprecated", "deprecation_reasons", "last_updated", "origins", "warnings", "task_ids", "uncorrected_energy_per_atom", "equilibrium_reaction_energy_per_atom", "decomposes_to", "xas", "grain_boundaries", "cbm", "vbm", "is_gap_direct", "is_metal", "es_source_calc_id", "bandstructure", "dos", "dos_energy_up", "dos_energy_down", "is_magnetic", "ordering", "total_magnetization_normalized_vol", "total_magnetization_normalized_formula_units", "num_magnetic_sites", "num_unique_magnetic_sites", "types_of_magnetic_species", "bulk_modulus", "shear_modulus", "universal_anisotropy", "homogeneous_poisson", "e_total", "e_ionic", "e_electronic", "n", "e_ij_max", "weighted_surface_energy_EV_PER_ANG2", "weighted_surface_energy", "weighted_work_function", "surface_anisotropy", "shape_factor", "has_reconstructed", "possible_species", "has_props", "theoretical", "database_IDs"]}