{"builder_meta": null, "nsites": null, "elements": null, "nelements": null, "composition": null, "composition_reduced": null, "formula_pretty": "Te2Cl", "formula_anonymous": "AB2", "chemsys": null, "volume": 790.2763952780438, "density": 4.885790988654615, "density_atomic": 32.928183136585155, "symmetry": null, "property_name": null, "material_id": "mp-1208308", "deprecated": null, "deprecation_reasons": null, "last_updated": null, "origins": null, "warnings": null, "structure": {"@module": "pymatgen.core.structure", "@class": "Structure", "charge": 0, "lattice": {"matrix": [[3.98353036, 0.0, 0.0], [0.0, 12.70098381, 0.0], [0.0, 0.0, 15.61972978]], "pbc": [true, true, true], "a": 3.98353036, "b": 12.70098381, "c": 15.61972978, "alpha": 90.0, "beta": 90.0, "gamma": 90.0, "volume": 790.2763952780438}, "properties": {}, "sites": [{"species": [{"element": "Te", "occu": 1}], "abc": [0.25, 0.07936788, 0.09387993], "properties": {"magmom": -0.0}, "label": "Te", "xyz": [0.99588259, 1.008050158914023, 1.4663791383653155]}, {"species": [{"element": "Te", "occu": 1}], "abc": [0.75, 0.92063212, 0.90612007], "properties": {"magmom": -0.0}, "label": "Te", "xyz": [2.98764777, 11.692933651085978, 14.153350641634686]}, {"species": [{"element": "Te", "occu": 1}], "abc": [0.75, 0.5793678800000001, 0.40612007], "properties": {"magmom": -0.0}, "label": "Te", "xyz": [2.98764777, 7.358542063914023, 6.3434857516346845]}, {"species": [{"element": "Te", "occu": 1}], "abc": [0.25, 0.42063212, 0.5938799300000001], "properties": {"magmom": -0.0}, "label": "Te", "xyz": [0.99588259, 5.342441746085977, 9.276244028365316]}, {"species": [{"element": "Te", "occu": 1}], "abc": [0.25, 0.69942444, 0.17971538], "properties": {"magmom": 0.0}, "label": "Te", "xyz": [0.99588259, 8.883378488758318, 2.8071056729100166]}, {"species": [{"element": "Te", "occu": 1}], "abc": [0.75, 0.30057556, 0.82028462], "properties": {"magmom": 0.0}, "label": "Te", "xyz": [2.98764777, 3.817605321241684, 12.812624107089984]}, {"species": [{"element": "Te", "occu": 1}], "abc": [0.75, 0.19942444, 0.32028462], "properties": {"magmom": 0.0}, "label": "Te", "xyz": [2.98764777, 2.5328865837583168, 5.002759217089984]}, {"species": [{"element": "Te", "occu": 1}], "abc": [0.25, 0.80057556, 0.67971538], "properties": {"magmom": 0.0}, "label": "Te", "xyz": [0.99588259, 10.168097226241683, 10.616970562910016]}, {"species": [{"element": "Te", "occu": 1}], "abc": [0.25, 0.73859622, 0.42199483], "properties": {"magmom": -0.0}, "label": "Te", "xyz": [0.99588259, 9.380898632347199, 6.591445213157037]}, {"species": [{"element": "Te", "occu": 1}], "abc": [0.75, 0.26140378000000003, 0.57800517], "properties": {"magmom": -0.0}, "label": "Te", "xyz": [2.98764777, 3.3200851776528024, 9.028284566842961]}, {"species": [{"element": "Te", "occu": 1}], "abc": [0.75, 0.23859622, 0.07800517], "properties": {"magmom": -0.0}, "label": "Te", "xyz": [2.98764777, 3.030406727347198, 1.2184196768429625]}, {"species": [{"element": "Te", "occu": 1}], "abc": [0.25, 0.76140378, 0.92199483], "properties": {"magmom": -0.0}, "label": "Te", "xyz": [0.99588259, 9.670577082652802, 14.401310103157039]}, {"species": [{"element": "Te", "occu": 1}], "abc": [0.25, 0.04775668, 0.28397087], "properties": {"magmom": 0.0}, "label": "Te", "xyz": [0.99588259, 0.6065568194993508, 4.435548254791509]}, {"species": [{"element": "Te", "occu": 1}], "abc": [0.75, 0.95224332, 0.71602913], "properties": {"magmom": 0.0}, "label": "Te", "xyz": [2.98764777, 12.094426990500649, 11.184181525208492]}, {"species": [{"element": "Te", "occu": 1}], "abc": [0.75, 0.54775668, 0.21602913], "properties": {"magmom": 0.0}, "label": "Te", "xyz": [2.98764777, 6.957048724499351, 3.3743166352084915]}, {"species": [{"element": "Te", "occu": 1}], "abc": [0.25, 0.45224332, 0.78397087], "properties": {"magmom": 0.0}, "label": "Te", "xyz": [0.99588259, 5.74393508550065, 12.245413144791508]}, {"species": [{"element": "Cl", "occu": 1}], "abc": [0.25, 0.39095086, 0.057707640000000004], "properties": {"magmom": -0.0}, "label": "Cl", "xyz": [0.99588259, 4.965460543365577, 0.9013777430415193]}, {"species": [{"element": "Cl", "occu": 1}], "abc": [0.75, 0.60904914, 0.94229236], "properties": {"magmom": -0.0}, "label": "Cl", "xyz": [2.98764777, 7.735523266634424, 14.718352036958482]}, {"species": [{"element": "Cl", "occu": 1}], "abc": [0.75, 0.89095086, 0.44229236], "properties": {"magmom": -0.0}, "label": "Cl", "xyz": [2.98764777, 11.315952448365577, 6.908487146958481]}, {"species": [{"element": "Cl", "occu": 1}], "abc": [0.25, 0.10904914, 0.5577076400000001], "properties": {"magmom": -0.0}, "label": "Cl", "xyz": [0.99588259, 1.3850313616344234, 8.71124263304152]}, {"species": [{"element": "Cl", "occu": 1}], "abc": [0.25, 0.35918111, 0.34762989], "properties": {"magmom": -0.0}, "label": "Cl", "xyz": [0.99588259, 4.561953462967829, 5.429884945251124]}, {"species": [{"element": "Cl", "occu": 1}], "abc": [0.75, 0.64081889, 0.65237011], "properties": {"magmom": -0.0}, "label": "Cl", "xyz": [2.98764777, 8.139030347032172, 10.189844834748875]}, {"species": [{"element": "Cl", "occu": 1}], "abc": [0.75, 0.85918111, 0.15237011], "properties": {"magmom": -0.0}, "label": "Cl", "xyz": [2.98764777, 10.912445367967829, 2.379979944748876]}, {"species": [{"element": "Cl", "occu": 1}], "abc": [0.25, 0.14081889, 0.84762989], "properties": {"magmom": -0.0}, "label": "Cl", "xyz": [0.99588259, 1.788538442032171, 13.239749835251125]}]}, "task_ids": null, "uncorrected_energy_per_atom": null, "energy_per_atom": -19.25677545375, "formation_energy_per_atom": -0.261146281250001, "energy_above_hull": 0.016318006666669, "is_stable": false, "equilibrium_reaction_energy_per_atom": null, "decomposes_to": null, "xas": null, "grain_boundaries": null, "band_gap": 0.707399999999999, "cbm": null, "vbm": null, "efermi": 4.0898362, "is_gap_direct": null, "is_metal": null, "es_source_calc_id": null, "bandstructure": null, "dos": null, "dos_energy_up": null, "dos_energy_down": null, "is_magnetic": null, "ordering": null, "total_magnetization": 0.0, "total_magnetization_normalized_vol": null, "total_magnetization_normalized_formula_units": null, "num_magnetic_sites": null, "num_unique_magnetic_sites": null, "types_of_magnetic_species": null, "bulk_modulus": null, "shear_modulus": null, "universal_anisotropy": null, "homogeneous_poisson": null, "e_total": null, "e_ionic": null, "e_electronic": null, "n": null, "e_ij_max": null, "weighted_surface_energy_EV_PER_ANG2": null, "weighted_surface_energy": null, "weighted_work_function": null, "surface_anisotropy": null, "shape_factor": null, "has_reconstructed": null, "possible_species": null, "has_props": null, "theoretical": null, "database_IDs": null, "fields_not_requested": ["builder_meta", "nsites", "elements", "nelements", "composition", "composition_reduced", "chemsys", "symmetry", "property_name", "deprecated", "deprecation_reasons", "last_updated", "origins", "warnings", "task_ids", "uncorrected_energy_per_atom", "equilibrium_reaction_energy_per_atom", "decomposes_to", "xas", "grain_boundaries", "cbm", "vbm", "is_gap_direct", "is_metal", "es_source_calc_id", "bandstructure", "dos", "dos_energy_up", "dos_energy_down", "is_magnetic", "ordering", "total_magnetization_normalized_vol", "total_magnetization_normalized_formula_units", "num_magnetic_sites", "num_unique_magnetic_sites", "types_of_magnetic_species", "bulk_modulus", "shear_modulus", "universal_anisotropy", "homogeneous_poisson", "e_total", "e_ionic", "e_electronic", "n", "e_ij_max", "weighted_surface_energy_EV_PER_ANG2", "weighted_surface_energy", "weighted_work_function", "surface_anisotropy", "shape_factor", "has_reconstructed", "possible_species", "has_props", "theoretical", "database_IDs"]}