{"builder_meta": null, "nsites": null, "elements": null, "nelements": null, "composition": null, "composition_reduced": null, "formula_pretty": "Te2Ir", "formula_anonymous": "AB2", "chemsys": null, "volume": 593.9126308248906, "density": 10.00757847536029, "density_atomic": 24.746359617703774, "symmetry": null, "property_name": null, "material_id": "mp-569388", "deprecated": null, "deprecation_reasons": null, "last_updated": null, "origins": null, "warnings": null, "structure": {"@module": "pymatgen.core.structure", "@class": "Structure", "charge": 0, "lattice": {"matrix": [[4.03816051, 0.0, 0.0], [0.0, 6.44207318, 0.0], [0.0, 0.0, 22.83038999]], "pbc": [true, true, true], "a": 4.03816051, "b": 6.44207318, "c": 22.83038999, "alpha": 90.0, "beta": 90.0, "gamma": 90.0, "volume": 593.9126308248906}, "properties": {}, "sites": [{"species": [{"element": "Te", "occu": 1}], "abc": [0.75, 0.68885518, 0.24039721], "properties": {"magmom": 0.0}, "label": "Te", "xyz": [3.0286203824999998, 4.437655479982073, 5.488362056807928]}, {"species": [{"element": "Te", "occu": 1}], "abc": [0.25, 0.22038347, 0.49077813000000003], "properties": {"magmom": -0.0}, "label": "Te", "xyz": [1.0095401275, 1.4197264414023347, 11.20465610646292]}, {"species": [{"element": "Te", "occu": 1}], "abc": [0.75, 0.42172021, 0.13695893], "properties": {"magmom": -0.0}, "label": "Te", "xyz": [3.0286203824999998, 2.716752454304968, 3.126825784513111]}, {"species": [{"element": "Te", "occu": 1}], "abc": [0.25, 0.31114482, 0.75960279], "properties": {"magmom": 0.0}, "label": "Te", "xyz": [1.0095401275, 2.0044177000179277, 17.34202793319207]}, {"species": [{"element": "Te", "occu": 1}], "abc": [0.75, 0.07827979, 0.63695893], "properties": {"magmom": -0.0}, "label": "Te", "xyz": [3.0286203824999998, 0.5042841356950323, 14.542020779513111]}, {"species": [{"element": "Te", "occu": 1}], "abc": [0.25, 0.18885518, 0.25960279], "properties": {"magmom": 0.0}, "label": "Te", "xyz": [1.0095401275, 1.2166188899820725, 5.926832938192073]}, {"species": [{"element": "Te", "occu": 1}], "abc": [0.25, 0.92172021, 0.36304107], "properties": {"magmom": -0.0}, "label": "Te", "xyz": [1.0095401275, 5.937789044304968, 8.28836921048689]}, {"species": [{"element": "Te", "occu": 1}], "abc": [0.25, 0.9470006200000001, 0.12229077000000001], "properties": {"magmom": -0.0}, "label": "Te", "xyz": [1.0095401275, 6.1006472955453726, 2.7919459712773924]}, {"species": [{"element": "Te", "occu": 1}], "abc": [0.25, 0.55299938, 0.62229077], "properties": {"magmom": -0.0}, "label": "Te", "xyz": [1.0095401275, 3.562462474454629, 14.207140966277393]}, {"species": [{"element": "Te", "occu": 1}], "abc": [0.75, 0.81114482, 0.74039721], "properties": {"magmom": 0.0}, "label": "Te", "xyz": [3.0286203824999998, 5.225454290017928, 16.90355705180793]}, {"species": [{"element": "Te", "occu": 1}], "abc": [0.75, 0.72038347, 0.00922187], "properties": {"magmom": -0.0}, "label": "Te", "xyz": [3.0286203824999998, 4.640763031402335, 0.2105388885370813]}, {"species": [{"element": "Te", "occu": 1}], "abc": [0.25, 0.27961653000000003, 0.99077813], "properties": {"magmom": -0.0}, "label": "Te", "xyz": [1.0095401275, 1.8013101485976657, 22.61985110146292]}, {"species": [{"element": "Te", "occu": 1}], "abc": [0.75, 0.77961653, 0.50922187], "properties": {"magmom": -0.0}, "label": "Te", "xyz": [3.0286203824999998, 5.0223467385976654, 11.62573388353708]}, {"species": [{"element": "Te", "occu": 1}], "abc": [0.25, 0.57827979, 0.86304107], "properties": {"magmom": -0.0}, "label": "Te", "xyz": [1.0095401275, 3.725320725695032, 19.703564205486888]}, {"species": [{"element": "Te", "occu": 1}], "abc": [0.75, 0.05299938, 0.87770923], "properties": {"magmom": -0.0}, "label": "Te", "xyz": [3.0286203824999998, 0.3414258844546284, 20.038444018722608]}, {"species": [{"element": "Te", "occu": 1}], "abc": [0.75, 0.44700062, 0.37770923], "properties": {"magmom": -0.0}, "label": "Te", "xyz": [3.0286203824999998, 2.879610705545372, 8.623249023722607]}, {"species": [{"element": "Ir", "occu": 1}], "abc": [0.25, 0.93384381, 0.57620015], "properties": {"magmom": -0.0}, "label": "Ir", "xyz": [1.0095401275, 6.015890162710017, 13.154874136796499]}, {"species": [{"element": "Ir", "occu": 1}], "abc": [0.25, 0.5661561900000001, 0.07620015000000001], "properties": {"magmom": -0.0}, "label": "Ir", "xyz": [1.0095401275, 3.6472196072899847, 1.7396791417964987]}, {"species": [{"element": "Ir", "occu": 1}], "abc": [0.25, 0.5600377400000001, 0.30509606], "properties": {"magmom": 0.0}, "label": "Ir", "xyz": [1.0095401275, 3.6078041046418137, 6.96546203421244]}, {"species": [{"element": "Ir", "occu": 1}], "abc": [0.75, 0.43996226, 0.69490394], "properties": {"magmom": 0.0}, "label": "Ir", "xyz": [3.0286203824999998, 2.8342690753581867, 15.86492795578756]}, {"species": [{"element": "Ir", "occu": 1}], "abc": [0.25, 0.93996226, 0.80509606], "properties": {"magmom": 0.0}, "label": "Ir", "xyz": [1.0095401275, 6.055305665358188, 18.38065702921244]}, {"species": [{"element": "Ir", "occu": 1}], "abc": [0.75, 0.43384381, 0.92379985], "properties": {"magmom": -0.0}, "label": "Ir", "xyz": [3.0286203824999998, 2.794853572710016, 21.0907108482035]}, {"species": [{"element": "Ir", "occu": 1}], "abc": [0.75, 0.06615619, 0.42379985000000003], "properties": {"magmom": -0.0}, "label": "Ir", "xyz": [3.0286203824999998, 0.42618301728998426, 9.675515853203503]}, {"species": [{"element": "Ir", "occu": 1}], "abc": [0.75, 0.06003774, 0.19490394], "properties": {"magmom": 0.0}, "label": "Ir", "xyz": [3.0286203824999998, 0.3867675146418132, 4.449732960787561]}]}, "task_ids": null, "uncorrected_energy_per_atom": null, "energy_per_atom": -34.76445370291667, "formation_energy_per_atom": -0.36651967958333304, "energy_above_hull": 0.0, "is_stable": true, "equilibrium_reaction_energy_per_atom": null, "decomposes_to": null, "xas": null, "grain_boundaries": null, "band_gap": 0.0, "cbm": null, "vbm": null, "efermi": 7.7563324399999996, "is_gap_direct": null, "is_metal": null, "es_source_calc_id": null, "bandstructure": null, "dos": null, "dos_energy_up": null, "dos_energy_down": null, "is_magnetic": null, "ordering": null, "total_magnetization": 0.0, "total_magnetization_normalized_vol": null, "total_magnetization_normalized_formula_units": null, "num_magnetic_sites": null, "num_unique_magnetic_sites": null, "types_of_magnetic_species": null, "bulk_modulus": null, "shear_modulus": null, "universal_anisotropy": null, "homogeneous_poisson": null, "e_total": null, "e_ionic": null, "e_electronic": null, "n": null, "e_ij_max": null, "weighted_surface_energy_EV_PER_ANG2": null, "weighted_surface_energy": null, "weighted_work_function": null, "surface_anisotropy": null, "shape_factor": null, "has_reconstructed": null, "possible_species": null, "has_props": null, "theoretical": null, "database_IDs": null, "fields_not_requested": ["builder_meta", "nsites", "elements", "nelements", "composition", "composition_reduced", "chemsys", "symmetry", "property_name", "deprecated", "deprecation_reasons", "last_updated", "origins", "warnings", "task_ids", "uncorrected_energy_per_atom", "equilibrium_reaction_energy_per_atom", "decomposes_to", "xas", "grain_boundaries", "cbm", "vbm", "is_gap_direct", "is_metal", "es_source_calc_id", "bandstructure", "dos", "dos_energy_up", "dos_energy_down", "is_magnetic", "ordering", "total_magnetization_normalized_vol", "total_magnetization_normalized_formula_units", "num_magnetic_sites", "num_unique_magnetic_sites", "types_of_magnetic_species", "bulk_modulus", "shear_modulus", "universal_anisotropy", "homogeneous_poisson", "e_total", "e_ionic", "e_electronic", "n", "e_ij_max", "weighted_surface_energy_EV_PER_ANG2", "weighted_surface_energy", "weighted_work_function", "surface_anisotropy", "shape_factor", "has_reconstructed", "possible_species", "has_props", "theoretical", "database_IDs"]}