{
  "builder_meta": null,
  "nsites": null,
  "elements": null,
  "nelements": null,
  "composition": null,
  "composition_reduced": null,
  "formula_pretty": "Te2I",
  "formula_anonymous": "AB2",
  "chemsys": null,
  "volume": 947.9843576867668,
  "density": 5.354513667341664,
  "density_atomic": 39.49934823694861,
  "symmetry": null,
  "property_name": null,
  "material_id": "mp-27655",
  "deprecated": null,
  "deprecation_reasons": null,
  "last_updated": null,
  "origins": null,
  "warnings": null,
  "structure": {
    "@module": "pymatgen.core.structure",
    "@class": "Structure",
    "charge": 0,
    "lattice": {
      "matrix": [
        [4.15418712, 0.0, 0.0],
        [0.0, 14.05073951, 0.0],
        [0.0, 0.0, 16.24111846]
      ],
      "pbc": [true, true, true],
      "a": 4.15418712,
      "b": 14.05073951,
      "c": 16.24111846,
      "alpha": 90.0,
      "beta": 90.0,
      "gamma": 90.0,
      "volume": 947.9843576867668
    },
    "properties": {},
    "sites": [
      {
        "species": [{ "element": "Te", "occu": 1 }],
        "abc": [0.25, 0.23403136, 0.92195845],
        "properties": { "magmom": 0.0 },
        "label": "Te",
        "xyz": [1.03854678, 3.2883136765310335, 14.973636401647987]
      },
      {
        "species": [{ "element": "Te", "occu": 1 }],
        "abc": [0.75, 0.76596864, 0.07804155],
        "properties": { "magmom": 0.0 },
        "label": "Te",
        "xyz": [3.1156403399999997, 10.762425833468965, 1.267482058352013]
      },
      {
        "species": [{ "element": "Te", "occu": 1 }],
        "abc": [0.75, 0.73403136, 0.57804155],
        "properties": { "magmom": 0.0 },
        "label": "Te",
        "xyz": [3.1156403399999997, 10.313683431531034, 9.388041288352012]
      },
      {
        "species": [{ "element": "Te", "occu": 1 }],
        "abc": [0.25, 0.26596864, 0.42195845],
        "properties": { "magmom": 0.0 },
        "label": "Te",
        "xyz": [1.03854678, 3.737056078468966, 6.853077171647986]
      },
      {
        "species": [{ "element": "Te", "occu": 1 }],
        "abc": [0.75, 0.09094671, 0.90683572],
        "properties": { "magmom": -0.0 },
        "label": "Te",
        "xyz": [3.1156403399999997, 1.2778685315015121, 14.728026352279391]
      },
      {
        "species": [{ "element": "Te", "occu": 1 }],
        "abc": [0.25, 0.90905329, 0.09316428],
        "properties": { "magmom": -0.0 },
        "label": "Te",
        "xyz": [1.03854678, 12.772870978498489, 1.5130921077206088]
      },
      {
        "species": [{ "element": "Te", "occu": 1 }],
        "abc": [0.25, 0.59094671, 0.59316428],
        "properties": { "magmom": -0.0 },
        "label": "Te",
        "xyz": [1.03854678, 8.30323828650151, 9.633651337720607]
      },
      {
        "species": [{ "element": "Te", "occu": 1 }],
        "abc": [0.75, 0.40905329, 0.40683572],
        "properties": { "magmom": -0.0 },
        "label": "Te",
        "xyz": [3.1156403399999997, 5.747501223498488, 6.607467122279391]
      },
      {
        "species": [{ "element": "Te", "occu": 1 }],
        "abc": [0.75, 0.06303064, 0.7267593],
        "properties": { "magmom": 0.0 },
        "label": "Te",
        "xyz": [3.1156403399999997, 0.8856271037885863, 11.803383883206678]
      },
      {
        "species": [{ "element": "Te", "occu": 1 }],
        "abc": [0.25, 0.93696936, 0.2732407],
        "properties": { "magmom": 0.0 },
        "label": "Te",
        "xyz": [1.03854678, 13.165112406211414, 4.437734576793321]
      },
      {
        "species": [{ "element": "Te", "occu": 1 }],
        "abc": [0.25, 0.56303064, 0.7732407],
        "properties": { "magmom": 0.0 },
        "label": "Te",
        "xyz": [1.03854678, 7.910996858788587, 12.558293806793321]
      },
      {
        "species": [{ "element": "Te", "occu": 1 }],
        "abc": [0.75, 0.43696936000000003, 0.2267593],
        "properties": { "magmom": 0.0 },
        "label": "Te",
        "xyz": [3.1156403399999997, 6.139742651211414, 3.6828246532066777]
      },
      {
        "species": [{ "element": "Te", "occu": 1 }],
        "abc": [0.25, 0.19775516, 0.68708085],
        "properties": { "magmom": -0.0 },
        "label": "Te",
        "xyz": [1.03854678, 2.7786062399183717, 11.15896147644749]
      },
      {
        "species": [{ "element": "Te", "occu": 1 }],
        "abc": [0.75, 0.8022448400000001, 0.31291915],
        "properties": { "magmom": -0.0 },
        "label": "Te",
        "xyz": [3.1156403399999997, 11.272133270081628, 5.082156983552508]
      },
      {
        "species": [{ "element": "Te", "occu": 1 }],
        "abc": [0.75, 0.69775516, 0.81291915],
        "properties": { "magmom": -0.0 },
        "label": "Te",
        "xyz": [3.1156403399999997, 9.803975994918371, 13.20271621355251]
      },
      {
        "species": [{ "element": "Te", "occu": 1 }],
        "abc": [0.25, 0.30224484, 0.18708085],
        "properties": { "magmom": -0.0 },
        "label": "Te",
        "xyz": [1.03854678, 4.2467635150816285, 3.038402246447491]
      },
      {
        "species": [{ "element": "I", "occu": 1 }],
        "abc": [0.75, 0.39449778, 0.94406968],
        "properties": { "magmom": -0.0 },
        "label": "I",
        "xyz": [3.1156403399999997, 5.542985544053288, 15.332747507374293]
      },
      {
        "species": [{ "element": "I", "occu": 1 }],
        "abc": [0.25, 0.60550222, 0.05593032],
        "properties": { "magmom": -0.0 },
        "label": "I",
        "xyz": [1.03854678, 8.507753965946712, 0.9083709526257071]
      },
      {
        "species": [{ "element": "I", "occu": 1 }],
        "abc": [0.25, 0.89449778, 0.55593032],
        "properties": { "magmom": -0.0 },
        "label": "I",
        "xyz": [1.03854678, 12.568355299053287, 9.028930182625706]
      },
      {
        "species": [{ "element": "I", "occu": 1 }],
        "abc": [0.75, 0.10550222000000001, 0.44406968],
        "properties": { "magmom": -0.0 },
        "label": "I",
        "xyz": [3.1156403399999997, 1.4823842109467122, 7.212188277374293]
      },
      {
        "species": [{ "element": "I", "occu": 1 }],
        "abc": [0.75, 0.36086139, 0.6514549900000001],
        "properties": { "magmom": -0.0 },
        "label": "I",
        "xyz": [3.1156403399999997, 5.070369390106519, 10.580357663948115]
      },
      {
        "species": [{ "element": "I", "occu": 1 }],
        "abc": [0.25, 0.63913861, 0.34854501],
        "properties": { "magmom": -0.0 },
        "label": "I",
        "xyz": [1.03854678, 8.980370119893482, 5.660760796051884]
      },
      {
        "species": [{ "element": "I", "occu": 1 }],
        "abc": [0.25, 0.8608613900000001, 0.84854501],
        "properties": { "magmom": -0.0 },
        "label": "I",
        "xyz": [1.03854678, 12.095739145106519, 13.781320026051885]
      },
      {
        "species": [{ "element": "I", "occu": 1 }],
        "abc": [0.75, 0.13913861, 0.15145499],
        "properties": { "magmom": -0.0 },
        "label": "I",
        "xyz": [3.1156403399999997, 1.955000364893481, 2.4597984339481154]
      }
    ]
  },
  "task_ids": null,
  "uncorrected_energy_per_atom": null,
  "energy_per_atom": -2.7884342824999973,
  "formation_energy_per_atom": -0.18489281527777301,
  "energy_above_hull": 0.0,
  "is_stable": true,
  "equilibrium_reaction_energy_per_atom": null,
  "decomposes_to": null,
  "xas": null,
  "grain_boundaries": null,
  "band_gap": 0.6558,
  "cbm": null,
  "vbm": null,
  "efermi": 3.2545321400000002,
  "is_gap_direct": null,
  "is_metal": null,
  "es_source_calc_id": null,
  "bandstructure": null,
  "dos": null,
  "dos_energy_up": null,
  "dos_energy_down": null,
  "is_magnetic": null,
  "ordering": null,
  "total_magnetization": 0.0,
  "total_magnetization_normalized_vol": null,
  "total_magnetization_normalized_formula_units": null,
  "num_magnetic_sites": null,
  "num_unique_magnetic_sites": null,
  "types_of_magnetic_species": null,
  "bulk_modulus": null,
  "shear_modulus": null,
  "universal_anisotropy": null,
  "homogeneous_poisson": null,
  "e_total": null,
  "e_ionic": null,
  "e_electronic": null,
  "n": null,
  "e_ij_max": null,
  "weighted_surface_energy_EV_PER_ANG2": null,
  "weighted_surface_energy": null,
  "weighted_work_function": null,
  "surface_anisotropy": null,
  "shape_factor": null,
  "has_reconstructed": null,
  "possible_species": null,
  "has_props": null,
  "theoretical": null,
  "database_IDs": null,
  "fields_not_requested": [
    "builder_meta",
    "nsites",
    "elements",
    "nelements",
    "composition",
    "composition_reduced",
    "chemsys",
    "symmetry",
    "property_name",
    "deprecated",
    "deprecation_reasons",
    "last_updated",
    "origins",
    "warnings",
    "task_ids",
    "uncorrected_energy_per_atom",
    "equilibrium_reaction_energy_per_atom",
    "decomposes_to",
    "xas",
    "grain_boundaries",
    "cbm",
    "vbm",
    "is_gap_direct",
    "is_metal",
    "es_source_calc_id",
    "bandstructure",
    "dos",
    "dos_energy_up",
    "dos_energy_down",
    "is_magnetic",
    "ordering",
    "total_magnetization_normalized_vol",
    "total_magnetization_normalized_formula_units",
    "num_magnetic_sites",
    "num_unique_magnetic_sites",
    "types_of_magnetic_species",
    "bulk_modulus",
    "shear_modulus",
    "universal_anisotropy",
    "homogeneous_poisson",
    "e_total",
    "e_ionic",
    "e_electronic",
    "n",
    "e_ij_max",
    "weighted_surface_energy_EV_PER_ANG2",
    "weighted_surface_energy",
    "weighted_work_function",
    "surface_anisotropy",
    "shape_factor",
    "has_reconstructed",
    "possible_species",
    "has_props",
    "theoretical",
    "database_IDs"
  ]
}
