{"builder_meta": null, "nsites": null, "elements": null, "nelements": null, "composition": null, "composition_reduced": null, "formula_pretty": "Te2O5", "formula_anonymous": "A2B5", "chemsys": null, "volume": 196.85389011371586, "density": 5.655033925776998, "density_atomic": 14.060992150979704, "symmetry": null, "property_name": null, "material_id": "mp-12177", "deprecated": null, "deprecation_reasons": null, "last_updated": null, "origins": null, "warnings": null, "structure": {"@module": "pymatgen.core.structure", "@class": "Structure", "charge": 0, "lattice": {"matrix": [[4.71663094, 0.0, 0.0], [0.0, 5.22630755, -1.34851691], [0.0, 0.04060059, 7.97530039]], "pbc": [true, true, true], "a": 4.71663094, "b": 5.397479825227968, "c": 7.975403733896015, "alpha": 104.17648174254485, "beta": 90.0, "gamma": 90.0, "volume": 196.85389011371586}, "properties": {}, "sites": [{"species": [{"element": "Te", "occu": 1}], "abc": [0.88504362, 0.14025698, 0.37981008], "properties": {"magmom": 0.0}, "label": "Te", "xyz": [4.174424121341603, 0.7484466268501462, 2.8399605698743993]}, {"species": [{"element": "Te", "occu": 1}], "abc": [0.38504362000000003, 0.85974302, 0.6201899200000001], "properties": {"magmom": 0.0}, "label": "Te", "xyz": [1.816108651341603, 4.518461513149854, 3.786822910125601]}, {"species": [{"element": "Te", "occu": 1}], "abc": [0.49295799, 0.25672659000000003, 0.01123471], "properties": {"magmom": 0.0}, "label": "Te", "xyz": [2.3251009077542104, 1.3421882514572334, -0.2565999608171]}, {"species": [{"element": "Te", "occu": 1}], "abc": [0.9929579900000001, 0.74327341, 0.98876529], "properties": {"magmom": 0.0}, "label": "Te", "xyz": [4.683416377754211, 3.924719888542766, 6.8833834408170995]}, {"species": [{"element": "O", "occu": 1}], "abc": [0.03920029, 0.87460737, 0.50762267], "properties": {"magmom": -0.0}, "label": "O", "xyz": [0.1848933006709726, 4.591576881016019, 2.8690204499682155]}, {"species": [{"element": "O", "occu": 1}], "abc": [0.53920029, 0.12539263, 0.49237733], "properties": {"magmom": -0.0}, "label": "O", "xyz": [2.5432087706709727, 0.6753312589839813, 3.7577630300317852]}, {"species": [{"element": "O", "occu": 1}], "abc": [0.17286417, 0.66462709, 0.7743171], "properties": {"magmom": 0.0}, "label": "O", "xyz": [0.8153364926394199, 3.504983309508618, 5.279150599904577]}, {"species": [{"element": "O", "occu": 1}], "abc": [0.67286417, 0.33537291, 0.2256829], "properties": {"magmom": 0.0}, "label": "O", "xyz": [3.1736519626394197, 1.7619248304913815, 1.3476328800954227]}, {"species": [{"element": "O", "occu": 1}], "abc": [0.79730135, 0.83494152, 0.20648506], "properties": {"magmom": 0.0}, "label": "O", "xyz": [3.760576215913769, 4.372044585046662, 0.5208476209660702]}, {"species": [{"element": "O", "occu": 1}], "abc": [0.29730135, 0.16505848, 0.79351494], "properties": {"magmom": 0.0}, "label": "O", "xyz": [1.402260745913769, 0.8948635549533386, 6.10593585903393]}, {"species": [{"element": "O", "occu": 1}], "abc": [0.7312415600000001, 0.96532694, 0.9021306800000001], "properties": {"magmom": -0.0}, "label": "O", "xyz": [3.4489965665098667, 5.081722512605498, 5.89300346176641]}, {"species": [{"element": "O", "occu": 1}], "abc": [0.23124156, 0.03467306, 0.09786932], "properties": {"magmom": -0.0}, "label": "O", "xyz": [1.0906810965098666, 0.18518562739450178, 0.7337800182335902]}, {"species": [{"element": "O", "occu": 1}], "abc": [0.7328990200000001, 0.46790188, 0.90741797], "properties": {"magmom": 0.0}, "label": "O", "xyz": [3.4568141936276793, 2.4822408330617964, 6.605957292633217]}, {"species": [{"element": "O", "occu": 1}], "abc": [0.23289902, 0.53209812, 0.09258203], "properties": {"magmom": 0.0}, "label": "O", "xyz": [1.0984987236276789, 2.7846673069382035, 0.020826187366782434]}]}, "task_ids": null, "uncorrected_energy_per_atom": null, "energy_per_atom": -5.850213361428561, "formation_energy_per_atom": -1.417868102619037, "energy_above_hull": 0.0, "is_stable": true, "equilibrium_reaction_energy_per_atom": null, "decomposes_to": null, "xas": null, "grain_boundaries": null, "band_gap": 1.6822, "cbm": null, "vbm": null, "efermi": 3.24807347, "is_gap_direct": null, "is_metal": null, "es_source_calc_id": null, "bandstructure": null, "dos": null, "dos_energy_up": null, "dos_energy_down": null, "is_magnetic": null, "ordering": null, "total_magnetization": 0.0, "total_magnetization_normalized_vol": null, "total_magnetization_normalized_formula_units": null, "num_magnetic_sites": null, "num_unique_magnetic_sites": null, "types_of_magnetic_species": null, "bulk_modulus": null, "shear_modulus": null, "universal_anisotropy": null, "homogeneous_poisson": null, "e_total": null, "e_ionic": null, "e_electronic": null, "n": null, "e_ij_max": null, "weighted_surface_energy_EV_PER_ANG2": null, "weighted_surface_energy": null, "weighted_work_function": null, "surface_anisotropy": null, "shape_factor": null, "has_reconstructed": null, "possible_species": null, "has_props": null, "theoretical": null, "database_IDs": null, "fields_not_requested": ["builder_meta", "nsites", "elements", "nelements", "composition", "composition_reduced", "chemsys", "symmetry", "property_name", "deprecated", "deprecation_reasons", "last_updated", "origins", "warnings", "task_ids", "uncorrected_energy_per_atom", "equilibrium_reaction_energy_per_atom", "decomposes_to", "xas", "grain_boundaries", "cbm", "vbm", "is_gap_direct", "is_metal", "es_source_calc_id", "bandstructure", "dos", "dos_energy_up", "dos_energy_down", "is_magnetic", "ordering", "total_magnetization_normalized_vol", "total_magnetization_normalized_formula_units", "num_magnetic_sites", "num_unique_magnetic_sites", "types_of_magnetic_species", "bulk_modulus", "shear_modulus", "universal_anisotropy", "homogeneous_poisson", "e_total", "e_ionic", "e_electronic", "n", "e_ij_max", "weighted_surface_energy_EV_PER_ANG2", "weighted_surface_energy", "weighted_work_function", "surface_anisotropy", "shape_factor", "has_reconstructed", "possible_species", "has_props", "theoretical", "database_IDs"]}