{
  "builder_meta": null,
  "nsites": null,
  "elements": null,
  "nelements": null,
  "composition": null,
  "composition_reduced": null,
  "formula_pretty": "Te2Pd3",
  "formula_anonymous": "A2B3",
  "chemsys": null,
  "volume": 198.60777019598018,
  "density": 9.606001530128886,
  "density_atomic": 19.860777019598018,
  "symmetry": null,
  "property_name": null,
  "material_id": "mp-613",
  "deprecated": null,
  "deprecation_reasons": null,
  "last_updated": null,
  "origins": null,
  "warnings": null,
  "structure": {
    "@module": "pymatgen.core.structure",
    "@class": "Structure",
    "charge": 0,
    "lattice": {
      "matrix": [
        [3.89741014, -1e-8, 0.0],
        [-1.94870558, 6.38197556, -0.0],
        [-0.0, -0.0, 7.98481739]
      ],
      "pbc": [true, true, true],
      "a": 3.89741014,
      "b": 6.67286036763549,
      "c": 7.98481739,
      "alpha": 90.0,
      "beta": 90.0,
      "gamma": 106.97979929229086,
      "volume": 198.60777019598018
    },
    "properties": {},
    "sites": [
      {
        "species": [{ "element": "Te", "occu": 1 }],
        "abc": [-0.0, -0.0, -0.0],
        "properties": { "magmom": -0.0 },
        "label": "Te",
        "xyz": [0.0, 0.0, 0.0]
      },
      {
        "species": [{ "element": "Te", "occu": 1 }],
        "abc": [-0.0, -0.0, 0.5],
        "properties": { "magmom": -0.0 },
        "label": "Te",
        "xyz": [0.0, 0.0, 3.992408695]
      },
      {
        "species": [{ "element": "Te", "occu": 1 }],
        "abc": [0.25895407, 0.51790714, 0.75],
        "properties": { "magmom": 0.0 },
        "label": "Te",
        "xyz": [1.684572428439779e-6, 3.305270707239958, 5.9886130425]
      },
      {
        "species": [{ "element": "Te", "occu": 1 }],
        "abc": [0.74104593, 0.48209286, 0.25],
        "properties": { "magmom": 0.0 },
        "label": "Te",
        "xyz": [1.9487028754275713, 3.076704842760042, 1.9962043475]
      },
      {
        "species": [{ "element": "Pd", "occu": 1 }],
        "abc": [0.46668293, 0.93336786, 0.75],
        "properties": { "magmom": -0.0 },
        "label": "Pd",
        "xyz": [-4.373427748616265e-6, 5.956730866342673, 5.9886130425]
      },
      {
        "species": [{ "element": "Pd", "occu": 1 }],
        "abc": [0.5333170700000001, 0.06663214, 0.25],
        "properties": { "magmom": -0.0 },
        "label": "Pd",
        "xyz": [1.9487089334277488, 0.42524468365732776, 1.9962043475]
      },
      {
        "species": [{ "element": "Pd", "occu": 1 }],
        "abc": [0.33675602, 0.6735110400000001, 0.06835368],
        "properties": { "magmom": -0.0 },
        "label": "Pd",
        "xyz": [1.6052144393707835e-6, 4.298330993302622, 0.5457916527344951]
      },
      {
        "species": [{ "element": "Pd", "occu": 1 }],
        "abc": [0.6632439800000001, 0.32648896, 0.93164632],
        "properties": { "magmom": -0.0 },
        "label": "Pd",
        "xyz": [1.9487029547855603, 2.0836445566973776, 7.439025737265505]
      },
      {
        "species": [{ "element": "Pd", "occu": 1 }],
        "abc": [0.6632439800000001, 0.32648896, 0.56835368],
        "properties": { "magmom": -0.0 },
        "label": "Pd",
        "xyz": [1.9487029547855603, 2.0836445566973776, 4.538200347734495]
      },
      {
        "species": [{ "element": "Pd", "occu": 1 }],
        "abc": [0.33675602, 0.6735110400000001, 0.43164632000000003],
        "properties": { "magmom": -0.0 },
        "label": "Pd",
        "xyz": [1.6052144393707835e-6, 4.298330993302622, 3.446617042265505]
      }
    ]
  },
  "task_ids": null,
  "uncorrected_energy_per_atom": null,
  "energy_per_atom": -24.28081579,
  "formation_energy_per_atom": -0.3376539,
  "energy_above_hull": 0.0,
  "is_stable": true,
  "equilibrium_reaction_energy_per_atom": null,
  "decomposes_to": null,
  "xas": null,
  "grain_boundaries": null,
  "band_gap": 0.0,
  "cbm": null,
  "vbm": null,
  "efermi": 6.70061415,
  "is_gap_direct": null,
  "is_metal": null,
  "es_source_calc_id": null,
  "bandstructure": null,
  "dos": null,
  "dos_energy_up": null,
  "dos_energy_down": null,
  "is_magnetic": null,
  "ordering": null,
  "total_magnetization": 1e-7,
  "total_magnetization_normalized_vol": null,
  "total_magnetization_normalized_formula_units": null,
  "num_magnetic_sites": null,
  "num_unique_magnetic_sites": null,
  "types_of_magnetic_species": null,
  "bulk_modulus": null,
  "shear_modulus": null,
  "universal_anisotropy": null,
  "homogeneous_poisson": null,
  "e_total": null,
  "e_ionic": null,
  "e_electronic": null,
  "n": null,
  "e_ij_max": null,
  "weighted_surface_energy_EV_PER_ANG2": null,
  "weighted_surface_energy": null,
  "weighted_work_function": null,
  "surface_anisotropy": null,
  "shape_factor": null,
  "has_reconstructed": null,
  "possible_species": null,
  "has_props": null,
  "theoretical": null,
  "database_IDs": null,
  "fields_not_requested": [
    "builder_meta",
    "nsites",
    "elements",
    "nelements",
    "composition",
    "composition_reduced",
    "chemsys",
    "symmetry",
    "property_name",
    "deprecated",
    "deprecation_reasons",
    "last_updated",
    "origins",
    "warnings",
    "task_ids",
    "uncorrected_energy_per_atom",
    "equilibrium_reaction_energy_per_atom",
    "decomposes_to",
    "xas",
    "grain_boundaries",
    "cbm",
    "vbm",
    "is_gap_direct",
    "is_metal",
    "es_source_calc_id",
    "bandstructure",
    "dos",
    "dos_energy_up",
    "dos_energy_down",
    "is_magnetic",
    "ordering",
    "total_magnetization_normalized_vol",
    "total_magnetization_normalized_formula_units",
    "num_magnetic_sites",
    "num_unique_magnetic_sites",
    "types_of_magnetic_species",
    "bulk_modulus",
    "shear_modulus",
    "universal_anisotropy",
    "homogeneous_poisson",
    "e_total",
    "e_ionic",
    "e_electronic",
    "n",
    "e_ij_max",
    "weighted_surface_energy_EV_PER_ANG2",
    "weighted_surface_energy",
    "weighted_work_function",
    "surface_anisotropy",
    "shape_factor",
    "has_reconstructed",
    "possible_species",
    "has_props",
    "theoretical",
    "database_IDs"
  ]
}
