{
  "builder_meta": null,
  "nsites": null,
  "elements": null,
  "nelements": null,
  "composition": null,
  "composition_reduced": null,
  "formula_pretty": "Te2Rh3",
  "formula_anonymous": "A2B3",
  "chemsys": null,
  "volume": 180.69419477688842,
  "density": 10.364531961932284,
  "density_atomic": 18.069419477688843,
  "symmetry": null,
  "property_name": null,
  "material_id": "mp-1341",
  "deprecated": null,
  "deprecation_reasons": null,
  "last_updated": null,
  "origins": null,
  "warnings": null,
  "structure": {
    "@module": "pymatgen.core.structure",
    "@class": "Structure",
    "charge": 0,
    "lattice": {
      "matrix": [
        [3.71834305, -0.0, -0.0],
        [-1.859172029999999, 6.26308146, 0.0],
        [-0.0, 0.0, 7.75901667]
      ],
      "pbc": [true, true, true],
      "a": 3.71834305,
      "b": 6.53320059478737,
      "c": 7.75901667,
      "alpha": 90.0,
      "beta": 90.0,
      "gamma": 106.53332220679394,
      "volume": 180.69419477688842
    },
    "properties": {},
    "sites": [
      {
        "species": [{ "element": "Te", "occu": 1 }],
        "abc": [0.0, 0.0, 0.0],
        "properties": { "magmom": -0.0 },
        "label": "Te",
        "xyz": [0.0, 0.0, 0.0]
      },
      {
        "species": [{ "element": "Te", "occu": 1 }],
        "abc": [0.0, 0.0, 0.5],
        "properties": { "magmom": -0.0 },
        "label": "Te",
        "xyz": [0.0, 0.0, 3.879508335]
      },
      {
        "species": [{ "element": "Te", "occu": 1 }],
        "abc": [0.25323559, 0.50647218, 0.75],
        "properties": { "magmom": 0.0 },
        "label": "Te",
        "xyz": [-2.1149399753728204e-6, 3.1720765205637833, 5.8192625025]
      },
      {
        "species": [{ "element": "Te", "occu": 1 }],
        "abc": [0.74676441, 0.49352782, 0.25],
        "properties": { "magmom": 0.0 },
        "label": "Te",
        "xyz": [1.8591731349399765, 3.0910049394362176, 1.9397541675]
      },
      {
        "species": [{ "element": "Rh", "occu": 1 }],
        "abc": [0.46373949000000003, 0.9274789800000001, 0.75],
        "properties": { "magmom": -0.0 },
        "label": "Rh",
        "xyz": [-4.683768839441882e-7, 5.8088764041777114, 5.8192625025]
      },
      {
        "species": [{ "element": "Rh", "occu": 1 }],
        "abc": [0.53626051, 0.07252102, 0.25],
        "properties": { "magmom": -0.0 },
        "label": "Rh",
        "xyz": [1.859171488376885, 0.45420505582228926, 1.9397541675]
      },
      {
        "species": [{ "element": "Rh", "occu": 1 }],
        "abc": [0.33913613, 0.67827226, 0.06028427],
        "properties": { "magmom": -0.0 },
        "label": "Rh",
        "xyz": [-3.425274905932696e-7, 4.2480744164383, 0.46774665586878095]
      },
      {
        "species": [{ "element": "Rh", "occu": 1 }],
        "abc": [0.66086387, 0.32172774, 0.93971573],
        "properties": { "magmom": -0.0 },
        "label": "Rh",
        "xyz": [1.859171362527492, 2.0150070435617002, 7.291270014131219]
      },
      {
        "species": [{ "element": "Rh", "occu": 1 }],
        "abc": [0.66086387, 0.32172774, 0.56028427],
        "properties": { "magmom": -0.0 },
        "label": "Rh",
        "xyz": [1.859171362527492, 2.0150070435617002, 4.347254990868781]
      },
      {
        "species": [{ "element": "Rh", "occu": 1 }],
        "abc": [0.33913613, 0.67827226, 0.43971573],
        "properties": { "magmom": -0.0 },
        "label": "Rh",
        "xyz": [-3.425274905932696e-7, 4.2480744164383, 3.4117616791312195]
      }
    ]
  },
  "task_ids": null,
  "uncorrected_energy_per_atom": null,
  "energy_per_atom": -24.934598071,
  "formation_energy_per_atom": -0.285971168999998,
  "energy_above_hull": 0.018870936999999,
  "is_stable": false,
  "equilibrium_reaction_energy_per_atom": null,
  "decomposes_to": null,
  "xas": null,
  "grain_boundaries": null,
  "band_gap": 0.0,
  "cbm": null,
  "vbm": null,
  "efermi": 8.46412552,
  "is_gap_direct": null,
  "is_metal": null,
  "es_source_calc_id": null,
  "bandstructure": null,
  "dos": null,
  "dos_energy_up": null,
  "dos_energy_down": null,
  "is_magnetic": null,
  "ordering": null,
  "total_magnetization": 3.7e-6,
  "total_magnetization_normalized_vol": null,
  "total_magnetization_normalized_formula_units": null,
  "num_magnetic_sites": null,
  "num_unique_magnetic_sites": null,
  "types_of_magnetic_species": null,
  "bulk_modulus": null,
  "shear_modulus": null,
  "universal_anisotropy": null,
  "homogeneous_poisson": null,
  "e_total": null,
  "e_ionic": null,
  "e_electronic": null,
  "n": null,
  "e_ij_max": null,
  "weighted_surface_energy_EV_PER_ANG2": null,
  "weighted_surface_energy": null,
  "weighted_work_function": null,
  "surface_anisotropy": null,
  "shape_factor": null,
  "has_reconstructed": null,
  "possible_species": null,
  "has_props": null,
  "theoretical": null,
  "database_IDs": null,
  "fields_not_requested": [
    "builder_meta",
    "nsites",
    "elements",
    "nelements",
    "composition",
    "composition_reduced",
    "chemsys",
    "symmetry",
    "property_name",
    "deprecated",
    "deprecation_reasons",
    "last_updated",
    "origins",
    "warnings",
    "task_ids",
    "uncorrected_energy_per_atom",
    "equilibrium_reaction_energy_per_atom",
    "decomposes_to",
    "xas",
    "grain_boundaries",
    "cbm",
    "vbm",
    "is_gap_direct",
    "is_metal",
    "es_source_calc_id",
    "bandstructure",
    "dos",
    "dos_energy_up",
    "dos_energy_down",
    "is_magnetic",
    "ordering",
    "total_magnetization_normalized_vol",
    "total_magnetization_normalized_formula_units",
    "num_magnetic_sites",
    "num_unique_magnetic_sites",
    "types_of_magnetic_species",
    "bulk_modulus",
    "shear_modulus",
    "universal_anisotropy",
    "homogeneous_poisson",
    "e_total",
    "e_ionic",
    "e_electronic",
    "n",
    "e_ij_max",
    "weighted_surface_energy_EV_PER_ANG2",
    "weighted_surface_energy",
    "weighted_work_function",
    "surface_anisotropy",
    "shape_factor",
    "has_reconstructed",
    "possible_species",
    "has_props",
    "theoretical",
    "database_IDs"
  ]
}
