{
  "builder_meta": null,
  "nsites": null,
  "elements": null,
  "nelements": null,
  "composition": null,
  "composition_reduced": null,
  "formula_pretty": "Te2W",
  "formula_anonymous": "AB2",
  "chemsys": null,
  "volume": 332.7590647462631,
  "density": 8.763614867784016,
  "density_atomic": 27.729922062188592,
  "symmetry": null,
  "property_name": null,
  "material_id": "mp-22693",
  "deprecated": null,
  "deprecation_reasons": null,
  "last_updated": null,
  "origins": null,
  "warnings": null,
  "structure": {
    "@module": "pymatgen.core.structure",
    "@class": "Structure",
    "charge": 0,
    "lattice": {
      "matrix": [
        [3.5185996, 0.0, 0.0],
        [0.0, 6.30233621, 0.0],
        [0.0, 0.0, 15.00577666]
      ],
      "pbc": [true, true, true],
      "a": 3.5185996,
      "b": 6.30233621,
      "c": 15.00577666,
      "alpha": 90.0,
      "beta": 90.0,
      "gamma": 90.0,
      "volume": 332.7590647462631
    },
    "properties": {},
    "sites": [
      {
        "species": [{ "element": "Te", "occu": 1 }],
        "abc": [0.5, 0.7957999, 0.91024026],
        "properties": { "magmom": -0.0 },
        "label": "Te",
        "xyz": [1.7592998, 5.015398525684379, 13.658862048500332]
      },
      {
        "species": [{ "element": "Te", "occu": 1 }],
        "abc": [-0.0, 0.2042001, 0.41024026],
        "properties": { "magmom": -0.0 },
        "label": "Te",
        "xyz": [0.0, 1.286937684315621, 6.1559737185003325]
      },
      {
        "species": [{ "element": "Te", "occu": 1 }],
        "abc": [0.5, 0.69726959, 0.36924759],
        "properties": { "magmom": -0.0 },
        "label": "Te",
        "xyz": [1.7592998, 4.394427385188854, 5.54084686778325]
      },
      {
        "species": [{ "element": "Te", "occu": 1 }],
        "abc": [-0.0, 0.30273041, 0.8692475900000001],
        "properties": { "magmom": -0.0 },
        "label": "Te",
        "xyz": [0.0, 1.9079088248111462, 13.043735197783251]
      },
      {
        "species": [{ "element": "Te", "occu": 1 }],
        "abc": [-0.0, 0.85774023, 0.64589266],
        "properties": { "magmom": -0.0 },
        "label": "Te",
        "xyz": [0.0, 5.405767310302728, 9.692121002293316]
      },
      {
        "species": [{ "element": "Te", "occu": 1 }],
        "abc": [0.5, 0.14225977, 0.14589266],
        "properties": { "magmom": -0.0 },
        "label": "Te",
        "xyz": [1.7592998, 0.8965688996972717, 2.1892326722933158]
      },
      {
        "species": [{ "element": "Te", "occu": 1 }],
        "abc": [-0.0, 0.64797225, 0.10482813],
        "properties": { "magmom": 0.0 },
        "label": "Te",
        "xyz": [0.0, 4.083738974250172, 1.573027506465446]
      },
      {
        "species": [{ "element": "Te", "occu": 1 }],
        "abc": [0.5, 0.35202775000000003, 0.60482813],
        "properties": { "magmom": 0.0 },
        "label": "Te",
        "xyz": [1.7592998, 2.2185972357498276, 9.075915836465446]
      },
      {
        "species": [{ "element": "W", "occu": 1 }],
        "abc": [0.5, 0.95599593, 0.5147330800000001],
        "properties": { "magmom": 0.0 },
        "label": "W",
        "xyz": [1.7592998, 6.025007766251625, 7.723969637993914]
      },
      {
        "species": [{ "element": "W", "occu": 1 }],
        "abc": [0.0, 0.04400407, 0.01473308],
        "properties": { "magmom": 0.0 },
        "label": "W",
        "xyz": [0.0, 0.2773284437483747, 0.22108130799391282]
      },
      {
        "species": [{ "element": "W", "occu": 1 }],
        "abc": [0.5, 0.39962476, 0.00034828],
        "properties": { "magmom": 0.0 },
        "label": "W",
        "xyz": [1.7592998, 2.51856959536056, 0.005226211895144801]
      },
      {
        "species": [{ "element": "W", "occu": 1 }],
        "abc": [0.0, 0.60037624, 0.50034828],
        "properties": { "magmom": 0.0 },
        "label": "W",
        "xyz": [0.0, 3.7837729169756504, 7.508114541895145]
      }
    ]
  },
  "task_ids": null,
  "uncorrected_energy_per_atom": null,
  "energy_per_atom": -34.183965801666666,
  "formation_energy_per_atom": -0.116551468333336,
  "energy_above_hull": 0.0,
  "is_stable": true,
  "equilibrium_reaction_energy_per_atom": null,
  "decomposes_to": null,
  "xas": null,
  "grain_boundaries": null,
  "band_gap": 0.0,
  "cbm": null,
  "vbm": null,
  "efermi": 5.92169717,
  "is_gap_direct": null,
  "is_metal": null,
  "es_source_calc_id": null,
  "bandstructure": null,
  "dos": null,
  "dos_energy_up": null,
  "dos_energy_down": null,
  "is_magnetic": null,
  "ordering": null,
  "total_magnetization": 0.0,
  "total_magnetization_normalized_vol": null,
  "total_magnetization_normalized_formula_units": null,
  "num_magnetic_sites": null,
  "num_unique_magnetic_sites": null,
  "types_of_magnetic_species": null,
  "bulk_modulus": null,
  "shear_modulus": null,
  "universal_anisotropy": null,
  "homogeneous_poisson": null,
  "e_total": null,
  "e_ionic": null,
  "e_electronic": null,
  "n": null,
  "e_ij_max": null,
  "weighted_surface_energy_EV_PER_ANG2": null,
  "weighted_surface_energy": null,
  "weighted_work_function": null,
  "surface_anisotropy": null,
  "shape_factor": null,
  "has_reconstructed": null,
  "possible_species": null,
  "has_props": null,
  "theoretical": null,
  "database_IDs": null,
  "fields_not_requested": [
    "builder_meta",
    "nsites",
    "elements",
    "nelements",
    "composition",
    "composition_reduced",
    "chemsys",
    "symmetry",
    "property_name",
    "deprecated",
    "deprecation_reasons",
    "last_updated",
    "origins",
    "warnings",
    "task_ids",
    "uncorrected_energy_per_atom",
    "equilibrium_reaction_energy_per_atom",
    "decomposes_to",
    "xas",
    "grain_boundaries",
    "cbm",
    "vbm",
    "is_gap_direct",
    "is_metal",
    "es_source_calc_id",
    "bandstructure",
    "dos",
    "dos_energy_up",
    "dos_energy_down",
    "is_magnetic",
    "ordering",
    "total_magnetization_normalized_vol",
    "total_magnetization_normalized_formula_units",
    "num_magnetic_sites",
    "num_unique_magnetic_sites",
    "types_of_magnetic_species",
    "bulk_modulus",
    "shear_modulus",
    "universal_anisotropy",
    "homogeneous_poisson",
    "e_total",
    "e_ionic",
    "e_electronic",
    "n",
    "e_ij_max",
    "weighted_surface_energy_EV_PER_ANG2",
    "weighted_surface_energy",
    "weighted_work_function",
    "surface_anisotropy",
    "shape_factor",
    "has_reconstructed",
    "possible_species",
    "has_props",
    "theoretical",
    "database_IDs"
  ]
}
