{
  "builder_meta": null,
  "nsites": null,
  "elements": null,
  "nelements": null,
  "composition": null,
  "composition_reduced": null,
  "formula_pretty": "Te3Au2",
  "formula_anonymous": "A2B3",
  "chemsys": null,
  "volume": 1604.0766001166326,
  "density": 9.648883749402199,
  "density_atomic": 26.734610001943874,
  "symmetry": null,
  "property_name": null,
  "material_id": "mp-645449",
  "deprecated": null,
  "deprecation_reasons": null,
  "last_updated": null,
  "origins": null,
  "warnings": null,
  "structure": {
    "@module": "pymatgen.core.structure",
    "@class": "Structure",
    "charge": 0,
    "lattice": {
      "matrix": [
        [10.783713, 0.0, 0.0],
        [-1.411974, 12.182108, 0.0],
        [-3.346589, -4.949802, 12.210525]
      ],
      "pbc": [true, true, true],
      "a": 10.783713,
      "b": 12.263662825613725,
      "c": 13.594010392439387,
      "alpha": 109.4722920783076,
      "beta": 104.25164627709567,
      "gamma": 96.61139843991064,
      "volume": 1604.0766001166326
    },
    "properties": {},
    "sites": [
      {
        "species": [{ "element": "Te", "occu": 1 }],
        "abc": [0.243831, 0.185943, 0.114688],
        "properties": { "magmom": 0.0 },
        "label": "Te",
        "xyz": [1.983043243789, 1.697494816068, 1.4004006912]
      },
      {
        "species": [{ "element": "Te", "occu": 1 }],
        "abc": [0.116, 0.226437, 0.403721999999999],
        "properties": { "magmom": -0.0 },
        "label": "Te",
        "xyz": [-0.4199040528959964, 0.7601360261520045, 4.929657574049989]
      },
      {
        "species": [{ "element": "Te", "occu": 1 }],
        "abc": [0.08112000000000001, 0.080905999999999, 0.5798449999999991],
        "properties": { "magmom": -0.0 },
        "label": "Te",
        "xyz": [-1.1799652685889952, -1.8845123108420074, 7.080211868624989]
      },
      {
        "species": [{ "element": "Te", "occu": 1 }],
        "abc": [0.472947, 0.404916, 0.284931999999999],
        "properties": { "magmom": -0.0 },
        "label": "Te",
        "xyz": [3.574843551079004, 3.5223734594640046, 3.479169309299988]
      },
      {
        "species": [{ "element": "Te", "occu": 1 }],
        "abc": [0.495701, 0.24614000000000003, 0.452837999999999],
        "properties": { "magmom": -0.0 },
        "label": "Te",
        "xyz": [3.4824913678710034, 0.7570456250440052, 5.529389719949989]
      },
      {
        "species": [{ "element": "Te", "occu": 1 }],
        "abc": [0.271651, 0.636577, 0.235345],
        "properties": { "magmom": -0.0 },
        "label": "Te",
        "xyz": [1.2429732589599995, 6.589938612625999, 2.8736860061250002]
      },
      {
        "species": [{ "element": "Te", "occu": 1 }],
        "abc": [0.243193, 0.512489, 0.392544],
        "properties": { "magmom": -0.0 },
        "label": "Te",
        "xyz": [0.5852189399070002, 4.300181270524, 4.7931683256]
      },
      {
        "species": [{ "element": "Te", "occu": 1 }],
        "abc": [0.370875, 0.311541, 0.733449],
        "properties": { "magmom": 0.0 },
        "label": "Te",
        "xyz": [1.1049694114800008, 0.1647987813299996, 8.955797350725]
      },
      {
        "species": [{ "element": "Te", "occu": 1 }],
        "abc": [0.031564999999999004, 0.757555, 0.322862],
        "properties": { "magmom": 0.0 },
        "label": "Te",
        "xyz": [-1.8097464804430106, 7.630513852616, 3.94231452255]
      },
      {
        "species": [{ "element": "Te", "occu": 1 }],
        "abc": [0.131322, 0.569145, 0.667401999999999],
        "properties": { "magmom": 0.0 },
        "label": "Te",
        "xyz": [-1.6209993754219967, 3.629878103256005, 8.149328806049988]
      },
      {
        "species": [{ "element": "Te", "occu": 1 }],
        "abc": [0.158692, 0.407601999999999, 0.833666999999999],
        "properties": { "magmom": -0.0 },
        "label": "Te",
        "xyz": [-1.654175254814995, 0.8389650010819922, 10.179511745174988]
      },
      {
        "species": [{ "element": "Te", "occu": 1 }],
        "abc": [0.41005, 0.945055, 0.221706],
        "properties": { "magmom": 0.0 },
        "label": "Te",
        "xyz": [2.345509566246001, 10.415361273728, 2.70714665565]
      },
      {
        "species": [{ "element": "Te", "occu": 1 }],
        "abc": [0.315664, 0.970970999999999, 0.483500999999999],
        "properties": { "magmom": -0.0 },
        "label": "Te",
        "xyz": [0.4149650455890046, 9.435239370065993, 5.903801048024988]
      },
      {
        "species": [{ "element": "Te", "occu": 1 }],
        "abc": [0.295796, 0.852814, 0.6348],
        "properties": { "magmom": -0.0 },
        "label": "Te",
        "xyz": [-0.13878672148799986, 7.246937942311999, 7.75124127]
      },
      {
        "species": [{ "element": "Te", "occu": 1 }],
        "abc": [0.401783, 0.644533, 0.001421],
        "properties": { "magmom": 0.0 },
        "label": "Te",
        "xyz": [3.4178932191679996, 7.844736946922, 0.017351156025]
      },
      {
        "species": [{ "element": "Te", "occu": 1 }],
        "abc": [0.207472, 0.8887200000000001, 0.898799],
        "properties": { "magmom": -0.0 },
        "label": "Te",
        "xyz": [-2.025441876355, 6.377605933961999, 10.974807659475001]
      },
      {
        "species": [{ "element": "Te", "occu": 1 }],
        "abc": [0.001976, 0.589886999999999, 0.927794],
        "properties": { "magmom": -0.0 },
        "label": "Te",
        "xyz": [-3.9165416847159986, 2.5936705450079875, 11.32885183185]
      },
      {
        "species": [{ "element": "Te", "occu": 1 }],
        "abc": [0.56272, 0.916648999999999, 0.954081],
        "properties": { "magmom": 0.0 },
        "label": "Te",
        "xyz": [1.5810094445250016, 6.444205074129988, 11.649829902525]
      },
      {
        "species": [{ "element": "Te", "occu": 1 }],
        "abc": [0.805971, 0.816022999999999, 0.852204],
        "properties": { "magmom": 0.0 },
        "label": "Te",
        "xyz": [4.687180158765003, 5.722639252875988, 10.4058582471]
      },
      {
        "species": [{ "element": "Te", "occu": 1 }],
        "abc": [0.909158999999999, 0.76309, 0.589137],
        "properties": { "magmom": -0.0 },
        "label": "Te",
        "xyz": [6.75504708401399, 6.379933292846, 7.193672066925001]
      },
      {
        "species": [{ "element": "Te", "occu": 1 }],
        "abc": [0.5018, 0.593008, 0.708544],
        "properties": { "magmom": 0.0 },
        "label": "Te",
        "xyz": [2.202749749192001, 3.7169349925759994, 8.6516942256]
      },
      {
        "species": [{ "element": "Te", "occu": 1 }],
        "abc": [0.537665, 0.729659, 0.537513],
        "properties": { "magmom": -0.0 },
        "label": "Te",
        "xyz": [2.9689304201220006, 6.228201818745999, 6.563315924325001]
      },
      {
        "species": [{ "element": "Te", "occu": 1 }],
        "abc": [0.742545, 0.325864, 0.763089],
        "properties": { "magmom": 0.0 },
        "label": "Te",
        "xyz": [4.993535420628, 0.19257098293399944, 9.317717311725001]
      },
      {
        "species": [{ "element": "Te", "occu": 1 }],
        "abc": [0.718194, 0.465806999999999, 0.598245],
        "properties": { "magmom": -0.0 },
        "label": "Te",
        "xyz": [5.085010464999002, 2.7133168836659878, 7.304885528625]
      },
      {
        "species": [{ "element": "Te", "occu": 1 }],
        "abc": [0.6679, 0.72655, 0.286786],
        "properties": { "magmom": -0.0 },
        "label": "Te",
        "xyz": [5.216817330046001, 7.431376651028, 3.50180762265]
      },
      {
        "species": [{ "element": "Te", "occu": 1 }],
        "abc": [0.954938, 0.093804, 0.807137999999999],
        "properties": { "magmom": -0.0 },
        "label": "Te",
        "xyz": [7.464169363416004, -2.852442827843995, 9.855578727449988]
      },
      {
        "species": [{ "element": "Te", "occu": 1 }],
        "abc": [0.889811999999999, 0.326314, 0.516845],
        "properties": { "magmom": -0.0 },
        "label": "Te",
        "xyz": [7.40506255641499, 1.4169119752219999, 6.310948793625]
      },
      {
        "species": [{ "element": "Te", "occu": 1 }],
        "abc": [0.859348, 0.482280999999999, 0.344424],
        "properties": { "magmom": -0.0 },
        "label": "Te",
        "xyz": [7.433348396694001, 4.170368624299988, 4.2055978626]
      },
      {
        "species": [{ "element": "Te", "occu": 1 }],
        "abc": [0.784685, 0.677265, 0.013541],
        "properties": { "magmom": 0.0 },
        "label": "Te",
        "xyz": [7.460221102646001, 8.183490105737999, 0.165342719025]
      },
      {
        "species": [{ "element": "Te", "occu": 1 }],
        "abc": [0.568454, 0.071055, 0.795449],
        "properties": { "magmom": 0.0 },
        "label": "Te",
        "xyz": [3.367676103671001, -3.071715367158, 9.712849900725]
      },
      {
        "species": [{ "element": "Te", "occu": 1 }],
        "abc": [0.696462999999999, 0.010164999999999001, 0.510882],
        "properties": { "magmom": -0.0 },
        "label": "Te",
        "xyz": [5.786392309910991, -2.4049336175440117, 6.2381374330499995]
      },
      {
        "species": [{ "element": "Te", "occu": 1 }],
        "abc": [0.633683, 0.242452, 0.190127],
        "properties": { "magmom": 0.0 },
        "label": "Te",
        "xyz": [5.854842757928, 2.012485443962, 2.321550486675]
      },
      {
        "species": [{ "element": "Te", "occu": 1 }],
        "abc": [0.601673999999999, 0.403317999999999, 0.035683],
        "properties": { "magmom": 0.0 },
        "label": "Te",
        "xyz": [5.799388870542992, 4.736639649577988, 0.43570816357500003]
      },
      {
        "species": [{ "element": "Te", "occu": 1 }],
        "abc": [0.831642, 0.9996029999999991, 0.252289],
        "properties": { "magmom": 0.0 },
        "label": "Te",
        "xyz": [6.712467608203001, 10.928491106345989, 3.0805811417249997]
      },
      {
        "species": [{ "element": "Te", "occu": 1 }],
        "abc": [0.848908, 0.139069, 0.097432999999999],
        "properties": { "magmom": 0.0 },
        "label": "Te",
        "xyz": [8.631950217161004, 1.211879519186005, 1.189708082324988]
      },
      {
        "species": [{ "element": "Te", "occu": 1 }],
        "abc": [0.994097, 0.412209, 0.079244],
        "properties": { "magmom": -0.0 },
        "label": "Te",
        "xyz": [9.872831252879001, 4.629332446884, 0.9676108431]
      },
      {
        "species": [{ "element": "Au", "occu": 1 }],
        "abc": [0.418551, 0.068089, 0.038373],
        "properties": { "magmom": -0.0 },
        "label": "Au",
        "xyz": [4.28897530248, 0.6395287994659999, 0.468554475825]
      },
      {
        "species": [{ "element": "Au", "occu": 1 }],
        "abc": [0.254814, 0.077036, 0.307599],
        "properties": { "magmom": -0.0 },
        "label": "Au",
        "xyz": [1.6096607855069998, -0.5840932735100002, 3.755945279475]
      },
      {
        "species": [{ "element": "Au", "occu": 1 }],
        "abc": [0.044326, 0.323679, 0.246517],
        "properties": { "magmom": -0.0 },
        "label": "Au",
        "xyz": [-0.8040185504209998, 2.722882195698, 3.010101991425]
      },
      {
        "species": [{ "element": "Au", "occu": 1 }],
        "abc": [0.426384999999999, 0.5088600000000001, 0.132077],
        "properties": { "magmom": -0.0 },
        "label": "Au",
        "xyz": [3.437508942511989, 5.545232478126001, 1.6127295104250001]
      },
      {
        "species": [{ "element": "Au", "occu": 1 }],
        "abc": [0.20758000000000001, 0.7642, 0.076399],
        "properties": { "magmom": -0.0 },
        "label": "Au",
        "xyz": [0.9037765607290003, 8.931407010602, 0.9328718994749999]
      },
      {
        "species": [{ "element": "Au", "occu": 1 }],
        "abc": [0.308243999999999, 0.40766, 0.559412],
        "properties": { "magmom": -0.0 },
        "label": "Au",
        "xyz": [0.8762874634639897, 2.1971795108559995, 6.8307142113]
      },
      {
        "species": [{ "element": "Au", "occu": 1 }],
        "abc": [0.377928999999999, 0.185756, 0.881263999999999],
        "properties": { "magmom": 0.0 },
        "label": "Au",
        "xyz": [0.8639668195369925, -2.099182656079995, 10.760696103599988]
      },
      {
        "species": [{ "element": "Au", "occu": 1 }],
        "abc": [0.038598, 0.882332999999999, 0.179878999999999],
        "properties": { "magmom": 0.0 },
        "label": "Au",
        "xyz": [-1.4315825836989955, 9.858310464005992, 2.196417026474988]
      },
      {
        "species": [{ "element": "Au", "occu": 1 }],
        "abc": [0.089373, 0.652512, 0.491402],
        "properties": { "magmom": 0.0 },
        "label": "Au",
        "xyz": [-1.6020777245170001, 5.516629052891998, 6.00027640605]
      },
      {
        "species": [{ "element": "Au", "occu": 1 }],
        "abc": [0.197811, 0.301728999999999, 0.978198999999999],
        "properties": { "magmom": 0.0 },
        "label": "Au",
        "xyz": [-1.5665264640139953, -1.166196101866007, 11.94432334447499]
      },
      {
        "species": [{ "element": "Au", "occu": 1 }],
        "abc": [0.47232, 0.831334, 0.37697],
        "properties": { "magmom": -0.0 },
        "label": "Au",
        "xyz": [2.657977675514, 8.261473712132, 4.603001609250001]
      },
      {
        "species": [{ "element": "Au", "occu": 1 }],
        "abc": [0.35341, 0.740171999999999, 0.804634],
        "properties": { "magmom": 0.0 },
        "label": "Au",
        "xyz": [0.07318909837600174, 5.034076260107987, 9.82500357285]
      },
      {
        "species": [{ "element": "Au", "occu": 1 }],
        "abc": [0.146653, 0.98677, 0.739111],
        "properties": { "magmom": 0.0 },
        "label": "Au",
        "xyz": [-2.2853304637699994, 8.362485605138, 9.024933343275]
      },
      {
        "species": [{ "element": "Au", "occu": 1 }],
        "abc": [0.735513, 0.913407, 0.687209],
        "properties": { "magmom": 0.0 },
        "label": "Au",
        "xyz": [4.342048084250001, 7.725674239337999, 8.391182674725]
      },
      {
        "species": [{ "element": "Au", "occu": 1 }],
        "abc": [0.950352, 0.6714800000000001, 0.755606],
        "properties": { "magmom": -0.0 },
        "label": "Au",
        "xyz": [6.7715081875220005, 4.439941789828001, 9.22634595315]
      },
      {
        "species": [{ "element": "Au", "occu": 1 }],
        "abc": [0.8836, 0.899088999999999, 0.428432],
        "properties": { "magmom": 0.0 },
        "label": "Au",
        "xyz": [6.825212696666002, 8.832145729147987, 5.2313796468]
      },
      {
        "species": [{ "element": "Au", "occu": 1 }],
        "abc": [0.572496999999999, 0.498357999999999, 0.870647],
        "properties": { "magmom": 0.0 },
        "label": "Au",
        "xyz": [2.556277129585991, 1.7615207167699882, 10.631056959675]
      },
      {
        "species": [{ "element": "Au", "occu": 1 }],
        "abc": [0.783036, 0.240323999999999, 0.936203],
        "properties": { "magmom": -0.0 },
        "label": "Au",
        "xyz": [4.9716175915250025, -1.706366558814012, 11.431530136575]
      },
      {
        "species": [{ "element": "Au", "occu": 1 }],
        "abc": [0.684871999999999, 0.58559, 0.439654999999999],
        "properties": { "magmom": -0.0 },
        "label": "Au",
        "xyz": [5.087280648280993, 4.957515425410005, 5.3684183688749885]
      },
      {
        "species": [{ "element": "Au", "occu": 1 }],
        "abc": [0.621051999999999, 0.821438999999999, 0.119434],
        "properties": { "magmom": -0.0 },
        "label": "Au",
        "xyz": [5.137699504863991, 9.415683961343987, 1.45835184285]
      },
      {
        "species": [{ "element": "Au", "occu": 1 }],
        "abc": [0.9286800000000001, 0.226012, 0.675929],
        "properties": { "magmom": 0.0 },
        "label": "Au",
        "xyz": [7.4334389649710015, -0.5924121227620005, 8.253447952725]
      },
      {
        "species": [{ "element": "Au", "occu": 1 }],
        "abc": [0.829746, 0.572016, 0.176463999999999],
        "properties": { "magmom": -0.0 },
        "label": "Au",
        "xyz": [7.549518526018002, 6.094898829600004, 2.154718083599988]
      },
      {
        "species": [{ "element": "Au", "occu": 1 }],
        "abc": [0.522923, 0.157494, 0.622277],
        "properties": { "magmom": 0.0 },
        "label": "Au",
        "xyz": [3.334168756790001, -1.1615390218019999, 7.598328865425]
      },
      {
        "species": [{ "element": "Au", "occu": 1 }],
        "abc": [0.67544, 0.13925099999999901, 0.356338999999999],
        "properties": { "magmom": -0.0 },
        "label": "Au",
        "xyz": [5.894612139575006, -0.06743677377000723, 4.351086267974988]
      }
    ]
  },
  "task_ids": null,
  "uncorrected_energy_per_atom": null,
  "energy_per_atom": -35.531039063041675,
  "formation_energy_per_atom": -0.046720417041675004,
  "energy_above_hull": 0.035093311958327,
  "is_stable": false,
  "equilibrium_reaction_energy_per_atom": null,
  "decomposes_to": null,
  "xas": null,
  "grain_boundaries": null,
  "band_gap": 0.0,
  "cbm": null,
  "vbm": null,
  "efermi": 6.0374006,
  "is_gap_direct": null,
  "is_metal": null,
  "es_source_calc_id": null,
  "bandstructure": null,
  "dos": null,
  "dos_energy_up": null,
  "dos_energy_down": null,
  "is_magnetic": null,
  "ordering": null,
  "total_magnetization": 0.001024999999999,
  "total_magnetization_normalized_vol": null,
  "total_magnetization_normalized_formula_units": null,
  "num_magnetic_sites": null,
  "num_unique_magnetic_sites": null,
  "types_of_magnetic_species": null,
  "bulk_modulus": null,
  "shear_modulus": null,
  "universal_anisotropy": null,
  "homogeneous_poisson": null,
  "e_total": null,
  "e_ionic": null,
  "e_electronic": null,
  "n": null,
  "e_ij_max": null,
  "weighted_surface_energy_EV_PER_ANG2": null,
  "weighted_surface_energy": null,
  "weighted_work_function": null,
  "surface_anisotropy": null,
  "shape_factor": null,
  "has_reconstructed": null,
  "possible_species": null,
  "has_props": null,
  "theoretical": null,
  "database_IDs": null,
  "fields_not_requested": [
    "builder_meta",
    "nsites",
    "elements",
    "nelements",
    "composition",
    "composition_reduced",
    "chemsys",
    "symmetry",
    "property_name",
    "deprecated",
    "deprecation_reasons",
    "last_updated",
    "origins",
    "warnings",
    "task_ids",
    "uncorrected_energy_per_atom",
    "equilibrium_reaction_energy_per_atom",
    "decomposes_to",
    "xas",
    "grain_boundaries",
    "cbm",
    "vbm",
    "is_gap_direct",
    "is_metal",
    "es_source_calc_id",
    "bandstructure",
    "dos",
    "dos_energy_up",
    "dos_energy_down",
    "is_magnetic",
    "ordering",
    "total_magnetization_normalized_vol",
    "total_magnetization_normalized_formula_units",
    "num_magnetic_sites",
    "num_unique_magnetic_sites",
    "types_of_magnetic_species",
    "bulk_modulus",
    "shear_modulus",
    "universal_anisotropy",
    "homogeneous_poisson",
    "e_total",
    "e_ionic",
    "e_electronic",
    "n",
    "e_ij_max",
    "weighted_surface_energy_EV_PER_ANG2",
    "weighted_surface_energy",
    "weighted_work_function",
    "surface_anisotropy",
    "shape_factor",
    "has_reconstructed",
    "possible_species",
    "has_props",
    "theoretical",
    "database_IDs"
  ]
}
