{
  "builder_meta": null,
  "nsites": null,
  "elements": null,
  "nelements": null,
  "composition": null,
  "composition_reduced": null,
  "formula_pretty": "Te3Au",
  "formula_anonymous": "AB3",
  "chemsys": null,
  "volume": 124.55705207274272,
  "density": 7.729189325795074,
  "density_atomic": 31.13926301818568,
  "symmetry": null,
  "property_name": null,
  "material_id": "mp-1217358",
  "deprecated": null,
  "deprecation_reasons": null,
  "last_updated": null,
  "origins": null,
  "warnings": null,
  "structure": {
    "@module": "pymatgen.core.structure",
    "@class": "Structure",
    "charge": 0,
    "lattice": {
      "matrix": [
        [3.10260094, -0.0, 0.0],
        [0.0, 3.10260094, 0.0],
        [-0.0, -0.0, 12.93946981]
      ],
      "pbc": [true, true, true],
      "a": 3.10260094,
      "b": 3.10260094,
      "c": 12.93946981,
      "alpha": 90.0,
      "beta": 90.0,
      "gamma": 90.0,
      "volume": 124.55705207274272
    },
    "properties": {},
    "sites": [
      {
        "species": [{ "element": "Te", "occu": 1 }],
        "abc": [-0.0, -0.0, 0.20249476],
        "properties": { "magmom": -0.0 },
        "label": "Te",
        "xyz": [0.0, 0.0, 2.620174833703196]
      },
      {
        "species": [{ "element": "Te", "occu": 1 }],
        "abc": [0.0, 0.0, 0.5],
        "properties": { "magmom": 0.0 },
        "label": "Te",
        "xyz": [0.0, 0.0, 6.469734905]
      },
      {
        "species": [{ "element": "Te", "occu": 1 }],
        "abc": [0.0, 0.0, 0.79750524],
        "properties": { "magmom": -0.0 },
        "label": "Te",
        "xyz": [0.0, 0.0, 10.319294976296804]
      },
      {
        "species": [{ "element": "Au", "occu": 1 }],
        "abc": [0.0, 0.0, -0.0],
        "properties": { "magmom": -0.0 },
        "label": "Au",
        "xyz": [0.0, 0.0, 0.0]
      }
    ]
  },
  "task_ids": null,
  "uncorrected_energy_per_atom": null,
  "energy_per_atom": -31.6961928475,
  "formation_energy_per_atom": 0.012965422499998,
  "energy_above_hull": 0.08114352999999801,
  "is_stable": false,
  "equilibrium_reaction_energy_per_atom": null,
  "decomposes_to": null,
  "xas": null,
  "grain_boundaries": null,
  "band_gap": 0.0,
  "cbm": null,
  "vbm": null,
  "efermi": 5.81495344,
  "is_gap_direct": null,
  "is_metal": null,
  "es_source_calc_id": null,
  "bandstructure": null,
  "dos": null,
  "dos_energy_up": null,
  "dos_energy_down": null,
  "is_magnetic": null,
  "ordering": null,
  "total_magnetization": 0.0,
  "total_magnetization_normalized_vol": null,
  "total_magnetization_normalized_formula_units": null,
  "num_magnetic_sites": null,
  "num_unique_magnetic_sites": null,
  "types_of_magnetic_species": null,
  "bulk_modulus": null,
  "shear_modulus": null,
  "universal_anisotropy": null,
  "homogeneous_poisson": null,
  "e_total": null,
  "e_ionic": null,
  "e_electronic": null,
  "n": null,
  "e_ij_max": null,
  "weighted_surface_energy_EV_PER_ANG2": null,
  "weighted_surface_energy": null,
  "weighted_work_function": null,
  "surface_anisotropy": null,
  "shape_factor": null,
  "has_reconstructed": null,
  "possible_species": null,
  "has_props": null,
  "theoretical": null,
  "database_IDs": null,
  "fields_not_requested": [
    "builder_meta",
    "nsites",
    "elements",
    "nelements",
    "composition",
    "composition_reduced",
    "chemsys",
    "symmetry",
    "property_name",
    "deprecated",
    "deprecation_reasons",
    "last_updated",
    "origins",
    "warnings",
    "task_ids",
    "uncorrected_energy_per_atom",
    "equilibrium_reaction_energy_per_atom",
    "decomposes_to",
    "xas",
    "grain_boundaries",
    "cbm",
    "vbm",
    "is_gap_direct",
    "is_metal",
    "es_source_calc_id",
    "bandstructure",
    "dos",
    "dos_energy_up",
    "dos_energy_down",
    "is_magnetic",
    "ordering",
    "total_magnetization_normalized_vol",
    "total_magnetization_normalized_formula_units",
    "num_magnetic_sites",
    "num_unique_magnetic_sites",
    "types_of_magnetic_species",
    "bulk_modulus",
    "shear_modulus",
    "universal_anisotropy",
    "homogeneous_poisson",
    "e_total",
    "e_ionic",
    "e_electronic",
    "n",
    "e_ij_max",
    "weighted_surface_energy_EV_PER_ANG2",
    "weighted_surface_energy",
    "weighted_work_function",
    "surface_anisotropy",
    "shape_factor",
    "has_reconstructed",
    "possible_species",
    "has_props",
    "theoretical",
    "database_IDs"
  ]
}
