{
  "builder_meta": null,
  "nsites": null,
  "elements": null,
  "nelements": null,
  "composition": null,
  "composition_reduced": null,
  "formula_pretty": "Te3Cl2",
  "formula_anonymous": "A2B3",
  "chemsys": null,
  "volume": 653.013929905466,
  "density": 4.614888003138834,
  "density_atomic": 32.650696495273294,
  "symmetry": null,
  "property_name": null,
  "material_id": "mp-27628",
  "deprecated": null,
  "deprecation_reasons": null,
  "last_updated": null,
  "origins": null,
  "warnings": null,
  "structure": {
    "@module": "pymatgen.core.structure",
    "@class": "Structure",
    "charge": 0,
    "lattice": {
      "matrix": [
        [7.18625109, 0.0, -1.26747165],
        [0.0, 8.760623, 0.0],
        [0.12043771, 0.0, 10.35129662]
      ],
      "pbc": [true, true, true],
      "a": 7.297169938550144,
      "b": 8.760623,
      "c": 10.35199724484186,
      "alpha": 90.0,
      "beta": 99.33603375249311,
      "gamma": 90.0,
      "volume": 653.013929905466
    },
    "properties": {},
    "sites": [
      {
        "species": [{ "element": "Te", "occu": 1 }],
        "abc": [0.9461463600000001, 0.65401034, 0.650061999999999],
        "properties": { "magmom": 0.0 },
        "label": "Te",
        "xyz": [6.877537289487552, 5.729538026841821, 5.529770895339736]
      },
      {
        "species": [{ "element": "Te", "occu": 1 }],
        "abc": [0.55385364, 0.15401134, 0.849938],
        "properties": { "magmom": 0.0 },
        "label": "Te",
        "xyz": [4.082495910512448, 1.3492352874648201, 8.095966559660253]
      },
      {
        "species": [{ "element": "Te", "occu": 1 }],
        "abc": [0.05385364, 0.34598966000000003, 0.349937999999999],
        "properties": { "magmom": 0.0 },
        "label": "Te",
        "xyz": [0.4291515105124475, 3.0310849731581806, 3.5540540746602436]
      },
      {
        "species": [{ "element": "Te", "occu": 1 }],
        "abc": [0.44614636, 0.84598966, 0.150062],
        "properties": { "magmom": 0.0 },
        "label": "Te",
        "xyz": [3.2241928894875524, 7.41139647315818, 0.9878584103397459]
      },
      {
        "species": [{ "element": "Te", "occu": 1 }],
        "abc": [0.029333699999999, 0.650031999999999, 0.33333806],
        "properties": { "magmom": -0.0 },
        "label": "Te",
        "xyz": [0.2509458062009684, 5.694685289935992, 3.413301500655753]
      },
      {
        "species": [{ "element": "Te", "occu": 1 }],
        "abc": [0.4706663, 0.150032, 0.16666194],
        "properties": { "magmom": -0.0 },
        "label": "Te",
        "xyz": [3.402398593799024, 1.3143737899360002, 1.1286109843442478]
      },
      {
        "species": [{ "element": "Te", "occu": 1 }],
        "abc": [0.9706663, 0.349968, 0.66666194],
        "properties": { "magmom": -0.0 },
        "label": "Te",
        "xyz": [7.055742993799024, 3.0659377100640004, 5.670523469344247]
      },
      {
        "species": [{ "element": "Te", "occu": 1 }],
        "abc": [0.5293337, 0.849968, 0.83333806],
        "properties": { "magmom": -0.0 },
        "label": "Te",
        "xyz": [3.904290206200976, 7.446249210064, 7.955213985655751]
      },
      {
        "species": [{ "element": "Te", "occu": 1 }],
        "abc": [0.402341199999999, 0.75637622, 0.41352504],
        "properties": { "magmom": 0.0 },
        "label": "Te",
        "xyz": [2.941128895897159, 6.626326909585061, 3.7705642842103857]
      },
      {
        "species": [{ "element": "Te", "occu": 1 }],
        "abc": [0.097658799999999, 0.25637622, 0.08647496],
        "properties": { "magmom": 0.0 },
        "label": "Te",
        "xyz": [0.7122155041028265, 2.24601540958506, 0.7713482007896164]
      },
      {
        "species": [{ "element": "Te", "occu": 1 }],
        "abc": [0.597658799999999, 0.24362378, 0.58647496],
        "properties": { "magmom": 0.0 },
        "label": "Te",
        "xyz": [4.365559904102827, 2.1342960904149404, 5.313260685789616]
      },
      {
        "species": [{ "element": "Te", "occu": 1 }],
        "abc": [0.9023412, 0.7436237800000001, 0.91352504],
        "properties": { "magmom": 0.0 },
        "label": "Te",
        "xyz": [6.594473295897166, 6.514607590414941, 8.312476769210384]
      },
      {
        "species": [{ "element": "Cl", "occu": 1 }],
        "abc": [0.54592516, 0.518832, 0.3316959],
        "properties": { "magmom": 0.0 },
        "label": "Cl",
        "xyz": [3.9631039707208133, 4.545291552336, 2.741537985216144]
      },
      {
        "species": [{ "element": "Cl", "occu": 1 }],
        "abc": [0.95407484, 0.018831999999999002, 0.168304099999999],
        "properties": { "magmom": 0.0 },
        "label": "Cl",
        "xyz": [6.8764915192791864, 0.16498005233599128, 0.5329028497838457]
      },
      {
        "species": [{ "element": "Cl", "occu": 1 }],
        "abc": [0.45407484000000004, 0.481168, 0.6683041],
        "properties": { "magmom": 0.0 },
        "label": "Cl",
        "xyz": [3.3435848292791865, 4.215331447664, 6.342286984783855]
      },
      {
        "species": [{ "element": "Cl", "occu": 1 }],
        "abc": [0.04592516, 0.981167999999999, 0.831695899999999],
        "properties": { "magmom": 0.0 },
        "label": "Cl",
        "xyz": [0.43019728072081326, 8.595642947663992, 8.550922120216132]
      },
      {
        "species": [{ "element": "Cl", "occu": 1 }],
        "abc": [0.24486592000000001, -0.00790732, 0.48246976],
        "properties": { "magmom": 0.0 },
        "label": "Cl",
        "xyz": [1.8177755375425024, -0.06927304946036002, 4.683826984289043]
      },
      {
        "species": [{ "element": "Cl", "occu": 1 }],
        "abc": [0.25513408, 0.49209268, 0.01753024],
        "properties": { "magmom": 0.0 },
        "label": "Cl",
        "xyz": [1.8355688624574975, 4.31103845053964, -0.14191449928904323]
      },
      {
        "species": [{ "element": "Cl", "occu": 1 }],
        "abc": [0.75513408, 0.00790732, 0.51753024],
        "properties": { "magmom": 0.0 },
        "label": "Cl",
        "xyz": [5.4889132624574986, 0.06927304946036002, 4.399997985710957]
      },
      {
        "species": [{ "element": "Cl", "occu": 1 }],
        "abc": [0.7448659200000001, 0.50790732, 0.98246976],
        "properties": { "magmom": 0.0 },
        "label": "Cl",
        "xyz": [5.471119937542503, 4.4495845494603605, 9.225739469289042]
      }
    ]
  },
  "task_ids": null,
  "uncorrected_energy_per_atom": null,
  "energy_per_atom": -18.0442672905,
  "formation_energy_per_atom": -0.33295714550000005,
  "energy_above_hull": 0.0,
  "is_stable": true,
  "equilibrium_reaction_energy_per_atom": null,
  "decomposes_to": null,
  "xas": null,
  "grain_boundaries": null,
  "band_gap": 1.3552,
  "cbm": null,
  "vbm": null,
  "efermi": 2.7557302200000002,
  "is_gap_direct": null,
  "is_metal": null,
  "es_source_calc_id": null,
  "bandstructure": null,
  "dos": null,
  "dos_energy_up": null,
  "dos_energy_down": null,
  "is_magnetic": null,
  "ordering": null,
  "total_magnetization": 0.0,
  "total_magnetization_normalized_vol": null,
  "total_magnetization_normalized_formula_units": null,
  "num_magnetic_sites": null,
  "num_unique_magnetic_sites": null,
  "types_of_magnetic_species": null,
  "bulk_modulus": null,
  "shear_modulus": null,
  "universal_anisotropy": null,
  "homogeneous_poisson": null,
  "e_total": null,
  "e_ionic": null,
  "e_electronic": null,
  "n": null,
  "e_ij_max": null,
  "weighted_surface_energy_EV_PER_ANG2": null,
  "weighted_surface_energy": null,
  "weighted_work_function": null,
  "surface_anisotropy": null,
  "shape_factor": null,
  "has_reconstructed": null,
  "possible_species": null,
  "has_props": null,
  "theoretical": null,
  "database_IDs": null,
  "fields_not_requested": [
    "builder_meta",
    "nsites",
    "elements",
    "nelements",
    "composition",
    "composition_reduced",
    "chemsys",
    "symmetry",
    "property_name",
    "deprecated",
    "deprecation_reasons",
    "last_updated",
    "origins",
    "warnings",
    "task_ids",
    "uncorrected_energy_per_atom",
    "equilibrium_reaction_energy_per_atom",
    "decomposes_to",
    "xas",
    "grain_boundaries",
    "cbm",
    "vbm",
    "is_gap_direct",
    "is_metal",
    "es_source_calc_id",
    "bandstructure",
    "dos",
    "dos_energy_up",
    "dos_energy_down",
    "is_magnetic",
    "ordering",
    "total_magnetization_normalized_vol",
    "total_magnetization_normalized_formula_units",
    "num_magnetic_sites",
    "num_unique_magnetic_sites",
    "types_of_magnetic_species",
    "bulk_modulus",
    "shear_modulus",
    "universal_anisotropy",
    "homogeneous_poisson",
    "e_total",
    "e_ionic",
    "e_electronic",
    "n",
    "e_ij_max",
    "weighted_surface_energy_EV_PER_ANG2",
    "weighted_surface_energy",
    "weighted_work_function",
    "surface_anisotropy",
    "shape_factor",
    "has_reconstructed",
    "possible_species",
    "has_props",
    "theoretical",
    "database_IDs"
  ]
}
