{
  "builder_meta": null,
  "nsites": null,
  "elements": null,
  "nelements": null,
  "composition": null,
  "composition_reduced": null,
  "formula_pretty": "Te3Pd5",
  "formula_anonymous": "A3B5",
  "chemsys": null,
  "volume": 426.52330009868007,
  "density": 7.123771159422487,
  "density_atomic": 26.657706256167504,
  "symmetry": null,
  "property_name": null,
  "material_id": "mp-1208304",
  "deprecated": null,
  "deprecation_reasons": null,
  "last_updated": null,
  "origins": null,
  "warnings": null,
  "structure": {
    "@module": "pymatgen.core.structure",
    "@class": "Structure",
    "charge": 0,
    "lattice": {
      "matrix": [
        [0.0, 5.974537, 5.974537],
        [5.974537, 0.0, 5.974537],
        [5.974537, 5.974537, 0.0]
      ],
      "pbc": [true, true, true],
      "a": 8.449271254299864,
      "b": 8.449271254299864,
      "c": 8.449271254299864,
      "alpha": 60.00000000000001,
      "beta": 60.00000000000001,
      "gamma": 60.00000000000001,
      "volume": 426.52330009868007
    },
    "properties": {},
    "sites": [
      {
        "species": [{ "element": "Te", "occu": 1 }],
        "abc": [0.125, 0.125, 0.125],
        "properties": { "magmom": -0.0 },
        "label": "Te",
        "xyz": [1.49363425, 1.49363425, 1.49363425]
      },
      {
        "species": [{ "element": "Te", "occu": 1 }],
        "abc": [0.125, 0.125, 0.625],
        "properties": { "magmom": 0.0 },
        "label": "Te",
        "xyz": [4.480902749999999, 4.480902749999999, 1.49363425]
      },
      {
        "species": [{ "element": "Te", "occu": 1 }],
        "abc": [0.125, 0.625, 0.125],
        "properties": { "magmom": 0.0 },
        "label": "Te",
        "xyz": [4.480902749999999, 1.49363425, 4.480902749999999]
      },
      {
        "species": [{ "element": "Te", "occu": 1 }],
        "abc": [0.625, 0.125, 0.125],
        "properties": { "magmom": -0.0 },
        "label": "Te",
        "xyz": [1.49363425, 4.480902749999999, 4.480902749999999]
      },
      {
        "species": [{ "element": "Te", "occu": 1 }],
        "abc": [0.5, 0.5, 0.5],
        "properties": { "magmom": -0.0 },
        "label": "Te",
        "xyz": [5.974537, 5.974537, 5.974537]
      },
      {
        "species": [{ "element": "Te", "occu": 1 }],
        "abc": [0.75, 0.75, 0.75],
        "properties": { "magmom": -0.0 },
        "label": "Te",
        "xyz": [8.9618055, 8.9618055, 8.9618055]
      },
      {
        "species": [{ "element": "Pd", "occu": 1 }],
        "abc": [0.873613, 0.375461999999999, 0.375461999999999],
        "properties": { "magmom": -0.0 },
        "label": "Pd",
        "xyz": [4.486423222187988, 7.462644803274994, 7.462644803274994]
      },
      {
        "species": [{ "element": "Pd", "occu": 1 }],
        "abc": [0.375461999999999, 0.873613, 0.375461999999999],
        "properties": { "magmom": -0.0 },
        "label": "Pd",
        "xyz": [7.462644803274994, 4.486423222187988, 7.462644803274994]
      },
      {
        "species": [{ "element": "Pd", "occu": 1 }],
        "abc": [0.375461999999999, 0.375461999999999, 0.873613],
        "properties": { "magmom": -0.0 },
        "label": "Pd",
        "xyz": [7.462644803274994, 7.462644803274994, 4.486423222187988]
      },
      {
        "species": [{ "element": "Pd", "occu": 1 }],
        "abc": [0.37638699999999903, 0.874537999999999, 0.874537999999999],
        "properties": { "magmom": -0.0 },
        "label": "Pd",
        "xyz": [10.449919277811988, 7.473697696724988, 7.473697696724988]
      },
      {
        "species": [{ "element": "Pd", "occu": 1 }],
        "abc": [0.375461999999999, 0.375461999999999, 0.375461999999999],
        "properties": { "magmom": -0.0 },
        "label": "Pd",
        "xyz": [4.486423222187988, 4.486423222187988, 4.486423222187988]
      },
      {
        "species": [{ "element": "Pd", "occu": 1 }],
        "abc": [0.874537999999999, 0.37638699999999903, 0.874537999999999],
        "properties": { "magmom": -0.0 },
        "label": "Pd",
        "xyz": [7.473697696724988, 10.449919277811988, 7.473697696724988]
      },
      {
        "species": [{ "element": "Pd", "occu": 1 }],
        "abc": [0.874537999999999, 0.874537999999999, 0.874537999999999],
        "properties": { "magmom": -0.0 },
        "label": "Pd",
        "xyz": [10.449919277811988, 10.449919277811988, 10.449919277811988]
      },
      {
        "species": [{ "element": "Pd", "occu": 1 }],
        "abc": [0.874537999999999, 0.874537999999999, 0.37638699999999903],
        "properties": { "magmom": -0.0 },
        "label": "Pd",
        "xyz": [7.473697696724988, 7.473697696724988, 10.449919277811988]
      },
      {
        "species": [{ "element": "Pd", "occu": 1 }],
        "abc": [0.0, 0.0, 0.0],
        "properties": { "magmom": 0.0 },
        "label": "Pd",
        "xyz": [0.0, 0.0, 0.0]
      },
      {
        "species": [{ "element": "Pd", "occu": 1 }],
        "abc": [0.25, 0.25, 0.25],
        "properties": { "magmom": 0.0 },
        "label": "Pd",
        "xyz": [2.9872685, 2.9872685, 2.9872685]
      }
    ]
  },
  "task_ids": null,
  "uncorrected_energy_per_atom": null,
  "energy_per_atom": -23.65553258086458,
  "formation_energy_per_atom": 0.22621004163541802,
  "energy_above_hull": 0.557620817625,
  "is_stable": false,
  "equilibrium_reaction_energy_per_atom": null,
  "decomposes_to": null,
  "xas": null,
  "grain_boundaries": null,
  "band_gap": 0.017799999999999,
  "cbm": null,
  "vbm": null,
  "efermi": 3.53403992,
  "is_gap_direct": null,
  "is_metal": null,
  "es_source_calc_id": null,
  "bandstructure": null,
  "dos": null,
  "dos_energy_up": null,
  "dos_energy_down": null,
  "is_magnetic": null,
  "ordering": null,
  "total_magnetization": 0.0042975,
  "total_magnetization_normalized_vol": null,
  "total_magnetization_normalized_formula_units": null,
  "num_magnetic_sites": null,
  "num_unique_magnetic_sites": null,
  "types_of_magnetic_species": null,
  "bulk_modulus": null,
  "shear_modulus": null,
  "universal_anisotropy": null,
  "homogeneous_poisson": null,
  "e_total": null,
  "e_ionic": null,
  "e_electronic": null,
  "n": null,
  "e_ij_max": null,
  "weighted_surface_energy_EV_PER_ANG2": null,
  "weighted_surface_energy": null,
  "weighted_work_function": null,
  "surface_anisotropy": null,
  "shape_factor": null,
  "has_reconstructed": null,
  "possible_species": null,
  "has_props": null,
  "theoretical": null,
  "database_IDs": null,
  "fields_not_requested": [
    "builder_meta",
    "nsites",
    "elements",
    "nelements",
    "composition",
    "composition_reduced",
    "chemsys",
    "symmetry",
    "property_name",
    "deprecated",
    "deprecation_reasons",
    "last_updated",
    "origins",
    "warnings",
    "task_ids",
    "uncorrected_energy_per_atom",
    "equilibrium_reaction_energy_per_atom",
    "decomposes_to",
    "xas",
    "grain_boundaries",
    "cbm",
    "vbm",
    "is_gap_direct",
    "is_metal",
    "es_source_calc_id",
    "bandstructure",
    "dos",
    "dos_energy_up",
    "dos_energy_down",
    "is_magnetic",
    "ordering",
    "total_magnetization_normalized_vol",
    "total_magnetization_normalized_formula_units",
    "num_magnetic_sites",
    "num_unique_magnetic_sites",
    "types_of_magnetic_species",
    "bulk_modulus",
    "shear_modulus",
    "universal_anisotropy",
    "homogeneous_poisson",
    "e_total",
    "e_ionic",
    "e_electronic",
    "n",
    "e_ij_max",
    "weighted_surface_energy_EV_PER_ANG2",
    "weighted_surface_energy",
    "weighted_work_function",
    "surface_anisotropy",
    "shape_factor",
    "has_reconstructed",
    "possible_species",
    "has_props",
    "theoretical",
    "database_IDs"
  ]
}
