{
  "builder_meta": null,
  "nsites": null,
  "elements": null,
  "nelements": null,
  "composition": null,
  "composition_reduced": null,
  "formula_pretty": "Te3Pt2",
  "formula_anonymous": "A2B3",
  "chemsys": null,
  "volume": 248.25863200636115,
  "density": 10.340374075683945,
  "density_atomic": 24.825863200636114,
  "symmetry": null,
  "property_name": null,
  "material_id": "mp-541180",
  "deprecated": null,
  "deprecation_reasons": null,
  "last_updated": null,
  "origins": null,
  "warnings": null,
  "structure": {
    "@module": "pymatgen.core.structure",
    "@class": "Structure",
    "charge": 0,
    "lattice": {
      "matrix": [
        [4.0175355, 0.0, 0.0],
        [-2.00876725, 3.44719495, -0.46904398],
        [2e-8, 0.07900442, 17.91506028]
      ],
      "pbc": [true, true, true],
      "a": 4.0175355,
      "b": 4.017250445659607,
      "c": 17.91523448170336,
      "alpha": 96.48667857652404,
      "beta": 89.9999999360368,
      "gamma": 120.002339050754,
      "volume": 248.25863200636115
    },
    "properties": {},
    "sites": [
      {
        "species": [{ "element": "Te", "occu": 1 }],
        "abc": [0.24367949, 0.48735798, 0.732727999999999],
        "properties": { "magmom": -0.0 },
        "label": "Te",
        "xyz": [2.2671013000142356e-6, 1.737906718155961, 12.89827396221986]
      },
      {
        "species": [{ "element": "Te", "occu": 1 }],
        "abc": [0.96255568, 0.92511136, 0.89011659],
        "properties": { "magmom": 0.0 },
        "label": "Te",
        "xyz": [2.0087682303580117, 3.2593623533049603, 15.51257445184043]
      },
      {
        "species": [{ "element": "Te", "occu": 1 }],
        "abc": [0.8576667800000001, 0.71533157, 0.57760244],
        "properties": { "magmom": 0.0 },
        "label": "Te",
        "xyz": [2.0087721166656567, 2.511520521442357, 10.012260563862634]
      },
      {
        "species": [{ "element": "Te", "occu": 1 }],
        "abc": [0.75632051, 0.51264202, 0.267272],
        "properties": { "magmom": -0.0 },
        "label": "Te",
        "xyz": [2.0087660028987, 1.7882926518440392, 4.54774233778012]
      },
      {
        "species": [{ "element": "Te", "occu": 1 }],
        "abc": [0.03744432, 0.07488864, 0.10988341],
        "properties": { "magmom": 0.0 },
        "label": "Te",
        "xyz": [3.964198820574172e-8, 0.26683701669504023, 1.9334418481595674]
      },
      {
        "species": [{ "element": "Te", "occu": 1 }],
        "abc": [0.14233322, 0.28466843000000003, 0.42239756],
        "properties": { "magmom": 0.0 },
        "label": "Te",
        "xyz": [-3.84666565625383e-6, 1.014678848557644, 7.433755736137365]
      },
      {
        "species": [{ "element": "Pt", "occu": 1 }],
        "abc": [0.5503440900000001, 0.10068719, 0.65427882],
        "properties": { "magmom": -0.0 },
        "label": "Pt",
        "xyz": [2.008769802109244, 0.3987792915900749, 11.674217779894652]
      },
      {
        "species": [{ "element": "Pt", "occu": 1 }],
        "abc": [0.44965591, 0.8993128100000001, 0.34572118],
        "properties": { "magmom": -0.0 },
        "label": "Pt",
        "xyz": [-1.5321092440182667e-6, 3.1274200784099255, 5.771798520105347]
      },
      {
        "species": [{ "element": "Pt", "occu": 1 }],
        "abc": [0.34770524, 0.69540848, 0.04173193],
        "properties": { "magmom": 0.0 },
        "label": "Pt",
        "xyz": [4.366074378722817e-6, 2.4005056073683066, 0.4214528803657899]
      },
      {
        "species": [{ "element": "Pt", "occu": 1 }],
        "abc": [0.65229476, 0.30459152, 0.95826807],
        "properties": { "magmom": 0.0 },
        "label": "Pt",
        "xyz": [2.0087639039256215, 1.1256937626316934, 17.02456341963421]
      }
    ]
  },
  "task_ids": null,
  "uncorrected_energy_per_atom": null,
  "energy_per_atom": -36.282353216000004,
  "formation_energy_per_atom": -0.43693187000000006,
  "energy_above_hull": 0.0,
  "is_stable": true,
  "equilibrium_reaction_energy_per_atom": null,
  "decomposes_to": null,
  "xas": null,
  "grain_boundaries": null,
  "band_gap": 0.0,
  "cbm": null,
  "vbm": null,
  "efermi": 7.38445571,
  "is_gap_direct": null,
  "is_metal": null,
  "es_source_calc_id": null,
  "bandstructure": null,
  "dos": null,
  "dos_energy_up": null,
  "dos_energy_down": null,
  "is_magnetic": null,
  "ordering": null,
  "total_magnetization": 1e-7,
  "total_magnetization_normalized_vol": null,
  "total_magnetization_normalized_formula_units": null,
  "num_magnetic_sites": null,
  "num_unique_magnetic_sites": null,
  "types_of_magnetic_species": null,
  "bulk_modulus": null,
  "shear_modulus": null,
  "universal_anisotropy": null,
  "homogeneous_poisson": null,
  "e_total": null,
  "e_ionic": null,
  "e_electronic": null,
  "n": null,
  "e_ij_max": null,
  "weighted_surface_energy_EV_PER_ANG2": null,
  "weighted_surface_energy": null,
  "weighted_work_function": null,
  "surface_anisotropy": null,
  "shape_factor": null,
  "has_reconstructed": null,
  "possible_species": null,
  "has_props": null,
  "theoretical": null,
  "database_IDs": null,
  "fields_not_requested": [
    "builder_meta",
    "nsites",
    "elements",
    "nelements",
    "composition",
    "composition_reduced",
    "chemsys",
    "symmetry",
    "property_name",
    "deprecated",
    "deprecation_reasons",
    "last_updated",
    "origins",
    "warnings",
    "task_ids",
    "uncorrected_energy_per_atom",
    "equilibrium_reaction_energy_per_atom",
    "decomposes_to",
    "xas",
    "grain_boundaries",
    "cbm",
    "vbm",
    "is_gap_direct",
    "is_metal",
    "es_source_calc_id",
    "bandstructure",
    "dos",
    "dos_energy_up",
    "dos_energy_down",
    "is_magnetic",
    "ordering",
    "total_magnetization_normalized_vol",
    "total_magnetization_normalized_formula_units",
    "num_magnetic_sites",
    "num_unique_magnetic_sites",
    "types_of_magnetic_species",
    "bulk_modulus",
    "shear_modulus",
    "universal_anisotropy",
    "homogeneous_poisson",
    "e_total",
    "e_ionic",
    "e_electronic",
    "n",
    "e_ij_max",
    "weighted_surface_energy_EV_PER_ANG2",
    "weighted_surface_energy",
    "weighted_work_function",
    "surface_anisotropy",
    "shape_factor",
    "has_reconstructed",
    "possible_species",
    "has_props",
    "theoretical",
    "database_IDs"
  ]
}
