{"builder_meta": null, "nsites": null, "elements": null, "nelements": null, "composition": null, "composition_reduced": null, "formula_pretty": "Te4Mo3", "formula_anonymous": "A3B4", "chemsys": null, "volume": 370.04519432690716, "density": 7.163857356139552, "density_atomic": 26.431799594779083, "symmetry": null, "property_name": null, "material_id": "mp-8601", "deprecated": null, "deprecation_reasons": null, "last_updated": null, "origins": null, "warnings": null, "structure": {"@module": "pymatgen.core.structure", "@class": "Structure", "charge": 0, "lattice": {"matrix": [[7.17896576, 0.01358009, -0.29459677], [-0.30748368, 7.17239227, -0.29452759], [0.01298915, 0.01351094, 7.18499575]], "pbc": [true, true, true], "a": 7.185020602544659, "b": 7.185019386855773, "c": 7.185020194198167, "alpha": 92.24611133985225, "beta": 92.2460851079697, "gamma": 92.24608736388404, "volume": 370.04519432690716}, "properties": {}, "sites": [{"species": [{"element": "Te", "occu": 1}], "abc": [0.28409267, 0.28409267, 0.28409267], "properties": {"magmom": -0.0}, "label": "Te", "xyz": [1.955827813268884, 2.0453204333174106, 1.8738387141617112]}, {"species": [{"element": "Te", "occu": 1}], "abc": [0.7159073300000001, 0.7159073300000001, 0.7159073300000001], "properties": {"magmom": -0.0}, "label": "Te", "xyz": [4.928643416731116, 5.154162866682589, 4.722032675838289]}, {"species": [{"element": "Te", "occu": 1}], "abc": [0.88356871, 0.61772269, 0.23796302], "properties": {"magmom": -0.0}, "label": "Te", "xyz": [6.156260807117904, 4.4457634934480295, 1.267530424144081]}, {"species": [{"element": "Te", "occu": 1}], "abc": [0.23796302, 0.88356871, 0.61772269], "properties": {"magmom": -0.0}, "label": "Te", "xyz": [1.4446691069213558, 6.348878959047372, 4.1079964025014135]}, {"species": [{"element": "Te", "occu": 1}], "abc": [0.61772269, 0.23796302, 0.88356871], "properties": {"magmom": -0.0}, "label": "Te", "xyz": [4.372917102101078, 1.7270906987457848, 6.096371642163549]}, {"species": [{"element": "Te", "occu": 1}], "abc": [0.11643129, 0.38227731, 0.76203798], "properties": {"magmom": -0.0}, "label": "Te", "xyz": [0.7282104358712466, 2.7537198200629107, 5.328348150851668]}, {"species": [{"element": "Te", "occu": 1}], "abc": [0.76203798, 0.11643129, 0.38227731], "properties": {"magmom": -0.0}, "label": "Te", "xyz": [5.439809302044404, 0.8506043545327179, 2.4878746929018165]}, {"species": [{"element": "Te", "occu": 1}], "abc": [0.38227731, 0.76203798, 0.11643129], "properties": {"magmom": -0.0}, "label": "Te", "xyz": [2.5115538204152426, 5.472399773646484, 0.49949945330886064]}, {"species": [{"element": "Mo", "occu": 1}], "abc": [0.95299453, 0.25057638, 0.08115379], "properties": {"magmom": 0.0}, "label": "Mo", "xyz": [6.765521071645193, 1.8112703064309528, 0.22853886856840022]}, {"species": [{"element": "Mo", "occu": 1}], "abc": [0.08115379, 0.95299453, 0.25057638], "properties": {"magmom": 0.0}, "label": "Mo", "xyz": [0.2928247887862371, 6.839738198531922, 1.4957993987390437]}, {"species": [{"element": "Mo", "occu": 1}], "abc": [0.25057638, 0.08115379, 0.95299453], "properties": {"magmom": 0.0}, "label": "Mo", "xyz": [1.786304375188951, 0.5983455177846357, 6.749540625448889]}, {"species": [{"element": "Mo", "occu": 1}], "abc": [0.04700547, 0.74942262, 0.91884621], "properties": {"magmom": 0.0}, "label": "Mo", "xyz": [0.11895046583848712, 5.388205821176777, 6.367332815959189]}, {"species": [{"element": "Mo", "occu": 1}], "abc": [0.91884621, 0.04700547, 0.74942262], "properties": {"magmom": 0.0}, "label": "Mo", "xyz": [6.591646428224612, 0.3597450879571386, 5.100064806265206]}, {"species": [{"element": "Mo", "occu": 1}], "abc": [0.74942262, 0.91884621, 0.04700547], "properties": {"magmom": 0.0}, "label": "Mo", "xyz": [5.098159675845289, 6.601137768635273, -0.15366894085211885]}]}, "task_ids": null, "uncorrected_energy_per_atom": null, "energy_per_atom": -26.000315535714286, "formation_energy_per_atom": -0.30248188428571304, "energy_above_hull": 0.0, "is_stable": true, "equilibrium_reaction_energy_per_atom": null, "decomposes_to": null, "xas": null, "grain_boundaries": null, "band_gap": 0.0, "cbm": null, "vbm": null, "efermi": 6.01549242, "is_gap_direct": null, "is_metal": null, "es_source_calc_id": null, "bandstructure": null, "dos": null, "dos_energy_up": null, "dos_energy_down": null, "is_magnetic": null, "ordering": null, "total_magnetization": 2.899999999999999e-06, "total_magnetization_normalized_vol": null, "total_magnetization_normalized_formula_units": null, "num_magnetic_sites": null, "num_unique_magnetic_sites": null, "types_of_magnetic_species": null, "bulk_modulus": null, "shear_modulus": null, "universal_anisotropy": null, "homogeneous_poisson": null, "e_total": null, "e_ionic": null, "e_electronic": null, "n": null, "e_ij_max": null, "weighted_surface_energy_EV_PER_ANG2": null, "weighted_surface_energy": null, "weighted_work_function": null, "surface_anisotropy": null, "shape_factor": null, "has_reconstructed": null, "possible_species": null, "has_props": null, "theoretical": null, "database_IDs": null, "fields_not_requested": ["builder_meta", "nsites", "elements", "nelements", "composition", "composition_reduced", "chemsys", "symmetry", "property_name", "deprecated", "deprecation_reasons", "last_updated", "origins", "warnings", "task_ids", "uncorrected_energy_per_atom", "equilibrium_reaction_energy_per_atom", "decomposes_to", "xas", "grain_boundaries", "cbm", "vbm", "is_gap_direct", "is_metal", "es_source_calc_id", "bandstructure", "dos", "dos_energy_up", "dos_energy_down", "is_magnetic", "ordering", "total_magnetization_normalized_vol", "total_magnetization_normalized_formula_units", "num_magnetic_sites", "num_unique_magnetic_sites", "types_of_magnetic_species", "bulk_modulus", "shear_modulus", "universal_anisotropy", "homogeneous_poisson", "e_total", "e_ionic", "e_electronic", "n", "e_ij_max", "weighted_surface_energy_EV_PER_ANG2", "weighted_surface_energy", "weighted_work_function", "surface_anisotropy", "shape_factor", "has_reconstructed", "possible_species", "has_props", "theoretical", "database_IDs"]}