{"builder_meta": null, "nsites": null, "elements": null, "nelements": null, "composition": null, "composition_reduced": null, "formula_pretty": "Te4Pt3", "formula_anonymous": "A3B4", "chemsys": null, "volume": 171.04101994788326, "density": 10.637056245062103, "density_atomic": 24.43443142112618, "symmetry": null, "property_name": null, "material_id": "mp-8628", "deprecated": null, "deprecation_reasons": null, "last_updated": null, "origins": null, "warnings": null, "structure": {"@module": "pymatgen.core.structure", "@class": "Structure", "charge": 0, "lattice": {"matrix": [[3.95044401, 0.0030952700000000002, 0.66341297], [1.91928273, 3.452880399999999, 0.66341295], [-0.08054381000000001, -0.04742243, 12.52654362]], "pbc": [true, true, true], "a": 4.00576262721663, "b": 4.005764096474992, "c": 12.526892322358291, "alpha": 80.83569499682744, "beta": 80.83569163410151, "gamma": 59.95977840082333, "volume": 171.0410199478832}, "properties": {}, "sites": [{"species": [{"element": "Te", "occu": 1}], "abc": [0.94709314, 0.94709314, 0.15871067], "properties": {"magmom": 0.0}, "label": "Te", "xyz": [5.546394767079111, 3.2656044034255745, 3.244723857520614]}, {"species": [{"element": "Te", "occu": 1}], "abc": [0.05290686, 0.05290686, 0.8412893300000001], "properties": {"magmom": 0.0}, "label": "Te", "xyz": [0.24278816292088906, 0.14294883657442423, 10.608645682479386]}, {"species": [{"element": "Te", "occu": 1}], "abc": [0.79583057, 0.79583057, 0.61253765], "properties": {"magmom": 0.0}, "label": "Te", "xyz": [4.621971861138995, 2.7213230635327417, 8.728908219821669]}, {"species": [{"element": "Te", "occu": 1}], "abc": [0.20416943, 0.20416943, 0.38746235], "properties": {"magmom": 0.0}, "label": "Te", "xyz": [1.167211068861005, 0.6872301764672575, 5.124461320178333]}, {"species": [{"element": "Pt", "occu": 1}], "abc": [0.6467605, 0.6467605, 0.060034370000000004], "properties": {"magmom": -0.0}, "label": "Pt", "xyz": [3.79147200433502, 2.2323415766081154, 1.6101617499363794]}, {"species": [{"element": "Pt", "occu": 1}], "abc": [0.5, 0.5, 0.5], "properties": {"magmom": 0.0}, "label": "Pt", "xyz": [2.894591465, 1.7042766199999995, 6.92668477]}, {"species": [{"element": "Pt", "occu": 1}], "abc": [0.3532395, 0.3532395, 0.93996563], "properties": {"magmom": -0.0}, "label": "Pt", "xyz": [1.9977109256649797, 1.1762116633918835, 12.243207790063622]}]}, "task_ids": null, "uncorrected_energy_per_atom": null, "energy_per_atom": -37.023317739999996, "formation_energy_per_atom": -0.43302517714285405, "energy_above_hull": 0.0, "is_stable": true, "equilibrium_reaction_energy_per_atom": null, "decomposes_to": null, "xas": null, "grain_boundaries": null, "band_gap": 0.0, "cbm": null, "vbm": null, "efermi": 7.36103419, "is_gap_direct": null, "is_metal": null, "es_source_calc_id": null, "bandstructure": null, "dos": null, "dos_energy_up": null, "dos_energy_down": null, "is_magnetic": null, "ordering": null, "total_magnetization": 0.0, "total_magnetization_normalized_vol": null, "total_magnetization_normalized_formula_units": null, "num_magnetic_sites": null, "num_unique_magnetic_sites": null, "types_of_magnetic_species": null, "bulk_modulus": null, "shear_modulus": null, "universal_anisotropy": null, "homogeneous_poisson": null, "e_total": null, "e_ionic": null, "e_electronic": null, "n": null, "e_ij_max": null, "weighted_surface_energy_EV_PER_ANG2": null, "weighted_surface_energy": null, "weighted_work_function": null, "surface_anisotropy": null, "shape_factor": null, "has_reconstructed": null, "possible_species": null, "has_props": null, "theoretical": null, "database_IDs": null, "fields_not_requested": ["builder_meta", "nsites", "elements", "nelements", "composition", "composition_reduced", "chemsys", "symmetry", "property_name", "deprecated", "deprecation_reasons", "last_updated", "origins", "warnings", "task_ids", "uncorrected_energy_per_atom", "equilibrium_reaction_energy_per_atom", "decomposes_to", "xas", "grain_boundaries", "cbm", "vbm", "is_gap_direct", "is_metal", "es_source_calc_id", "bandstructure", "dos", "dos_energy_up", "dos_energy_down", "is_magnetic", "ordering", "total_magnetization_normalized_vol", "total_magnetization_normalized_formula_units", "num_magnetic_sites", "num_unique_magnetic_sites", "types_of_magnetic_species", "bulk_modulus", "shear_modulus", "universal_anisotropy", "homogeneous_poisson", "e_total", "e_ionic", "e_electronic", "n", "e_ij_max", "weighted_surface_energy_EV_PER_ANG2", "weighted_surface_energy", "weighted_work_function", "surface_anisotropy", "shape_factor", "has_reconstructed", "possible_species", "has_props", "theoretical", "database_IDs"]}