{
  "builder_meta": null,
  "nsites": null,
  "elements": null,
  "nelements": null,
  "composition": null,
  "composition_reduced": null,
  "formula_pretty": "Te4Rh3",
  "formula_anonymous": "A3B4",
  "chemsys": null,
  "volume": 155.28168424092777,
  "density": 8.759403628288029,
  "density_atomic": 22.183097748703968,
  "symmetry": null,
  "property_name": null,
  "material_id": "mp-1025159",
  "deprecated": null,
  "deprecation_reasons": null,
  "last_updated": null,
  "origins": null,
  "warnings": null,
  "structure": {
    "@module": "pymatgen.core.structure",
    "@class": "Structure",
    "charge": 0,
    "lattice": {
      "matrix": [
        [4e-8, -3.98364708, 0.0],
        [-5.67886883, 1.99182509, 3.17725479],
        [-0.02486734, 0.0, -6.85009124]
      ],
      "pbc": [true, true, true],
      "a": 3.9836470800000003,
      "b": 6.805282240882962,
      "c": 6.850136376812028,
      "alpha": 117.63570998663104,
      "beta": 90.0000000020885,
      "gamma": 107.01895753685586,
      "volume": 155.28168424092777
    },
    "properties": {},
    "sites": [
      {
        "species": [{ "element": "Te", "occu": 1 }],
        "abc": [0.87887145, 0.757743899999999, 0.54635853],
        "properties": { "magmom": 0.0 },
        "label": "Te",
        "xyz": [-4.316714663005184, -1.9918203736734166, -1.335060344383999]
      },
      {
        "species": [{ "element": "Te", "occu": 1 }],
        "abc": [0.12112855, 0.2422561, 0.45364147],
        "properties": { "magmom": 0.0 },
        "label": "Te",
        "xyz": [-1.3870214669948107, -1.6163265849633568e-6, -2.337776105616004]
      },
      {
        "species": [{ "element": "Te", "occu": 1 }],
        "abc": [0.63443136, 0.26886572000000003, 0.98070263],
        "properties": { "magmom": -0.0 },
        "label": "Te",
        "xyz": [-1.5512405971253576, -1.991817147787514, -5.863647598071163]
      },
      {
        "species": [{ "element": "Te", "occu": 1 }],
        "abc": [0.36556864, 0.73113428, 0.01929737],
        "properties": { "magmom": -0.0 },
        "label": "Te",
        "xyz": [-4.152495532874643, -4.842212485867137e-6, 2.1908111480711625]
      },
      {
        "species": [{ "element": "Rh", "occu": 1 }],
        "abc": [0.73475408, 0.46950816, 0.7179199900000001],
        "properties": { "magmom": -0.0 },
        "label": "Rh",
        "xyz": [-2.6841279863486163, -1.9918228122623518, -3.4260703842158016]
      },
      {
        "species": [{ "element": "Rh", "occu": 1 }],
        "abc": [0.26524592, 0.53049184, 0.28208001],
        "properties": { "magmom": -0.0 },
        "label": "Rh",
        "xyz": [-3.019608143651384, 8.222623519849037e-7, -0.2467660657841988]
      },
      {
        "species": [{ "element": "Rh", "occu": 1 }],
        "abc": [-0.0, -0.0, 0.0],
        "properties": { "magmom": 0.0 },
        "label": "Rh",
        "xyz": [0.0, 0.0, 0.0]
      }
    ]
  },
  "task_ids": null,
  "uncorrected_energy_per_atom": null,
  "energy_per_atom": -25.303714884285714,
  "formation_energy_per_atom": -0.435488722857144,
  "energy_above_hull": 0.0,
  "is_stable": true,
  "equilibrium_reaction_energy_per_atom": null,
  "decomposes_to": null,
  "xas": null,
  "grain_boundaries": null,
  "band_gap": 0.0,
  "cbm": null,
  "vbm": null,
  "efermi": 7.60753534,
  "is_gap_direct": null,
  "is_metal": null,
  "es_source_calc_id": null,
  "bandstructure": null,
  "dos": null,
  "dos_energy_up": null,
  "dos_energy_down": null,
  "is_magnetic": null,
  "ordering": null,
  "total_magnetization": 0.0,
  "total_magnetization_normalized_vol": null,
  "total_magnetization_normalized_formula_units": null,
  "num_magnetic_sites": null,
  "num_unique_magnetic_sites": null,
  "types_of_magnetic_species": null,
  "bulk_modulus": null,
  "shear_modulus": null,
  "universal_anisotropy": null,
  "homogeneous_poisson": null,
  "e_total": null,
  "e_ionic": null,
  "e_electronic": null,
  "n": null,
  "e_ij_max": null,
  "weighted_surface_energy_EV_PER_ANG2": null,
  "weighted_surface_energy": null,
  "weighted_work_function": null,
  "surface_anisotropy": null,
  "shape_factor": null,
  "has_reconstructed": null,
  "possible_species": null,
  "has_props": null,
  "theoretical": null,
  "database_IDs": null,
  "fields_not_requested": [
    "builder_meta",
    "nsites",
    "elements",
    "nelements",
    "composition",
    "composition_reduced",
    "chemsys",
    "symmetry",
    "property_name",
    "deprecated",
    "deprecation_reasons",
    "last_updated",
    "origins",
    "warnings",
    "task_ids",
    "uncorrected_energy_per_atom",
    "equilibrium_reaction_energy_per_atom",
    "decomposes_to",
    "xas",
    "grain_boundaries",
    "cbm",
    "vbm",
    "is_gap_direct",
    "is_metal",
    "es_source_calc_id",
    "bandstructure",
    "dos",
    "dos_energy_up",
    "dos_energy_down",
    "is_magnetic",
    "ordering",
    "total_magnetization_normalized_vol",
    "total_magnetization_normalized_formula_units",
    "num_magnetic_sites",
    "num_unique_magnetic_sites",
    "types_of_magnetic_species",
    "bulk_modulus",
    "shear_modulus",
    "universal_anisotropy",
    "homogeneous_poisson",
    "e_total",
    "e_ionic",
    "e_electronic",
    "n",
    "e_ij_max",
    "weighted_surface_energy_EV_PER_ANG2",
    "weighted_surface_energy",
    "weighted_work_function",
    "surface_anisotropy",
    "shape_factor",
    "has_reconstructed",
    "possible_species",
    "has_props",
    "theoretical",
    "database_IDs"
  ]
}
