{"builder_meta": null, "nsites": null, "elements": null, "nelements": null, "composition": null, "composition_reduced": null, "formula_pretty": "Te7As6", "formula_anonymous": "A6B7", "chemsys": null, "volume": 16482.24578400931, "density": 0.13527616235667, "density_atomic": 1267.8650603084084, "symmetry": null, "property_name": null, "material_id": "mp-1211390", "deprecated": null, "deprecation_reasons": null, "last_updated": null, "origins": null, "warnings": null, "structure": {"@module": "pymatgen.core.structure", "@class": "Structure", "charge": 0, "lattice": {"matrix": [[-7.01937775, -12.15791887, 0.0], [-6.25007627, 11.71376245, 0.0], [0.0, 0.0, -104.17872583]], "pbc": [true, true, true], "a": 14.038755473570196, "b": 13.276885331878375, "c": 104.17872583, "alpha": 90.0, "beta": 90.0, "gamma": 121.91709386005016, "volume": 16482.24578400931}, "properties": {}, "sites": [{"species": [{"element": "Te", "occu": 1}], "abc": [-0.0, -0.0, 0.0], "properties": {"magmom": 0.0}, "label": "Te", "xyz": [0.0, 0.0, 0.0]}, {"species": [{"element": "Te", "occu": 1}], "abc": [-0.0, -0.0, 0.79031029], "properties": {"magmom": 0.9470000000000001}, "label": "Te", "xyz": [0.0, 0.0, -82.33351902253779]}, {"species": [{"element": "Te", "occu": 1}], "abc": [-0.0, -0.0, 0.20968971], "properties": {"magmom": 0.9470000000000001}, "label": "Te", "xyz": [0.0, 0.0, -21.845206807462212]}, {"species": [{"element": "Te", "occu": 1}], "abc": [0.77796932, 0.76845713, 0.0], "properties": {"magmom": 0.0}, "label": "Te", "xyz": [-10.263776207715935, -0.4569636020802985, 0.0]}, {"species": [{"element": "Te", "occu": 1}], "abc": [0.22203068, 0.23154287, -0.0], "properties": {"magmom": 0.0}, "label": "Te", "xyz": [-3.0056778122840653, 0.012807182080300183, 0.0]}, {"species": [{"element": "Te", "occu": 1}], "abc": [0.00951219, 0.23154287, 0.0], "properties": {"magmom": 0.0}, "label": "Te", "xyz": [-1.5139302521144675, 2.596589741875207, 0.0]}, {"species": [{"element": "Te", "occu": 1}], "abc": [0.99048781, 0.76845713, -0.0], "properties": {"magmom": 0.0}, "label": "Te", "xyz": [-11.755523767885533, -3.040746161875205, 0.0]}, {"species": [{"element": "As", "occu": 1}], "abc": [-0.0, -0.0, 0.59954884], "properties": {"magmom": 1.255}, "label": "As", "xyz": [0.0, 0.0, -62.46023422405454]}, {"species": [{"element": "As", "occu": 1}], "abc": [-0.0, -0.0, 0.40045116000000003], "properties": {"magmom": 1.255}, "label": "As", "xyz": [0.0, 0.0, -41.71849160594547]}, {"species": [{"element": "As", "occu": 1}], "abc": [0.57633104, 0.58867172, 0.0], "properties": {"magmom": 0.0}, "label": "As", "xyz": [-7.724728426802445, -0.11142533746980998, 0.0]}, {"species": [{"element": "As", "occu": 1}], "abc": [0.42366896, 0.41132828, -0.0], "properties": {"magmom": 0.0}, "label": "As", "xyz": [-5.544725593197556, -0.3327310825301888, 0.0]}, {"species": [{"element": "As", "occu": 1}], "abc": [0.9876593300000001, 0.41132828, 0.0], "properties": {"magmom": 0.0}, "label": "As", "xyz": [-9.503587047589823, -7.189680244451471, 0.0]}, {"species": [{"element": "As", "occu": 1}], "abc": [0.01234067, 0.58867172, -0.0], "properties": {"magmom": 0.0}, "label": "As", "xyz": [-3.7658669724101768, 6.745523824451472, 0.0]}]}, "task_ids": null, "uncorrected_energy_per_atom": null, "energy_per_atom": -19.436954548846156, "formation_energy_per_atom": 1.037334381538458, "energy_above_hull": 1.038688373589742, "is_stable": false, "equilibrium_reaction_energy_per_atom": null, "decomposes_to": null, "xas": null, "grain_boundaries": null, "band_gap": 0.1968, "cbm": null, "vbm": null, "efermi": -4.94427007, "is_gap_direct": null, "is_metal": null, "es_source_calc_id": null, "bandstructure": null, "dos": null, "dos_energy_up": null, "dos_energy_down": null, "is_magnetic": null, "ordering": null, "total_magnetization": 9.9853768, "total_magnetization_normalized_vol": null, "total_magnetization_normalized_formula_units": null, "num_magnetic_sites": null, "num_unique_magnetic_sites": null, "types_of_magnetic_species": null, "bulk_modulus": null, "shear_modulus": null, "universal_anisotropy": null, "homogeneous_poisson": null, "e_total": null, "e_ionic": null, "e_electronic": null, "n": null, "e_ij_max": null, "weighted_surface_energy_EV_PER_ANG2": null, "weighted_surface_energy": null, "weighted_work_function": null, "surface_anisotropy": null, "shape_factor": null, "has_reconstructed": null, "possible_species": null, "has_props": null, "theoretical": null, "database_IDs": null, "fields_not_requested": ["builder_meta", "nsites", "elements", "nelements", "composition", "composition_reduced", "chemsys", "symmetry", "property_name", "deprecated", "deprecation_reasons", "last_updated", "origins", "warnings", "task_ids", "uncorrected_energy_per_atom", "equilibrium_reaction_energy_per_atom", "decomposes_to", "xas", "grain_boundaries", "cbm", "vbm", "is_gap_direct", "is_metal", "es_source_calc_id", "bandstructure", "dos", "dos_energy_up", "dos_energy_down", "is_magnetic", "ordering", "total_magnetization_normalized_vol", "total_magnetization_normalized_formula_units", "num_magnetic_sites", "num_unique_magnetic_sites", "types_of_magnetic_species", "bulk_modulus", "shear_modulus", "universal_anisotropy", "homogeneous_poisson", "e_total", "e_ionic", "e_electronic", "n", "e_ij_max", "weighted_surface_energy_EV_PER_ANG2", "weighted_surface_energy", "weighted_work_function", "surface_anisotropy", "shape_factor", "has_reconstructed", "possible_species", "has_props", "theoretical", "database_IDs"]}