{
  "builder_meta": null,
  "nsites": null,
  "elements": null,
  "nelements": null,
  "composition": null,
  "composition_reduced": null,
  "formula_pretty": "Te8Ir3",
  "formula_anonymous": "A3B8",
  "chemsys": null,
  "volume": 275.19871806138553,
  "density": 9.638961297368919,
  "density_atomic": 25.018065278307777,
  "symmetry": null,
  "property_name": null,
  "material_id": "mp-1217357",
  "deprecated": null,
  "deprecation_reasons": null,
  "last_updated": null,
  "origins": null,
  "warnings": null,
  "structure": {
    "@module": "pymatgen.core.structure",
    "@class": "Structure",
    "charge": 0,
    "lattice": {
      "matrix": [
        [-0.047495260000000004, 6.50487381, -0.04777943],
        [-0.04777943, -0.047495260000000004, 6.50487381],
        [6.50487381, -0.04777943, -0.047495260000000004]
      ],
      "pbc": [true, true, true],
      "a": 6.505222667801426,
      "b": 6.505222667801426,
      "c": 6.505222667801426,
      "alpha": 90.83605911505676,
      "beta": 90.83605911505676,
      "gamma": 90.83605911505676,
      "volume": 275.19871806138553
    },
    "properties": {},
    "sites": [
      {
        "species": [{ "element": "Te", "occu": 1 }],
        "abc": [0.86961509, 0.37518697, 0.12415261],
        "properties": { "magmom": -0.0 },
        "label": "Te",
        "xyz": [0.7483682468626436, 5.632984880094218, 2.3930975211950285]
      },
      {
        "species": [{ "element": "Te", "occu": 1 }],
        "abc": [0.37518697, 0.12415261, 0.86961509],
        "properties": { "magmom": -0.0 },
        "label": "Te",
        "xyz": [5.632984880094218, 2.3930975211950285, 0.7483682468626437]
      },
      {
        "species": [{ "element": "Te", "occu": 1 }],
        "abc": [0.12415261, 0.86961509, 0.37518697],
        "properties": { "magmom": -0.0 },
        "label": "Te",
        "xyz": [2.3930975211950285, 0.7483682468626437, 5.632984880094218]
      },
      {
        "species": [{ "element": "Te", "occu": 1 }],
        "abc": [0.63180315, 0.63180315, 0.63180315],
        "properties": { "magmom": 0.0 },
        "label": "Te",
        "xyz": [4.049604914253228, 4.049604914253227, 4.049604914253228]
      },
      {
        "species": [{ "element": "Te", "occu": 1 }],
        "abc": [0.13038491, 0.62481303, 0.87584739],
        "properties": { "magmom": -0.0 },
        "label": "Te",
        "xyz": [5.661230873137357, 0.7766142399057816, 4.016501598804972]
      },
      {
        "species": [{ "element": "Te", "occu": 1 }],
        "abc": [0.62481303, 0.87584739, 0.13038491],
        "properties": { "magmom": -0.0 },
        "label": "Te",
        "xyz": [0.7766142399057816, 4.016501598804972, 5.661230873137357]
      },
      {
        "species": [{ "element": "Te", "occu": 1 }],
        "abc": [0.87584739, 0.13038491, 0.62481303],
        "properties": { "magmom": -0.0 },
        "label": "Te",
        "xyz": [4.016501598804972, 5.661230873137357, 0.7766142399057816]
      },
      {
        "species": [{ "element": "Te", "occu": 1 }],
        "abc": [0.36819685, 0.36819685, 0.36819685],
        "properties": { "magmom": 0.0 },
        "label": "Te",
        "xyz": [2.359994205746772, 2.3599942057467724, 2.3599942057467724]
      },
      {
        "species": [{ "element": "Ir", "occu": 1 }],
        "abc": [0.5, 0.0, 0.5],
        "properties": { "magmom": 0.0 },
        "label": "Ir",
        "xyz": [3.2286892750000002, 3.22854719, -0.047637345]
      },
      {
        "species": [{ "element": "Ir", "occu": 1 }],
        "abc": [-0.0, 0.5, 0.5],
        "properties": { "magmom": 0.0 },
        "label": "Ir",
        "xyz": [3.22854719, -0.047637345, 3.2286892750000002]
      },
      {
        "species": [{ "element": "Ir", "occu": 1 }],
        "abc": [0.5, 0.5, -0.0],
        "properties": { "magmom": 0.0 },
        "label": "Ir",
        "xyz": [-0.047637345, 3.2286892750000002, 3.22854719]
      }
    ]
  },
  "task_ids": null,
  "uncorrected_energy_per_atom": null,
  "energy_per_atom": -33.06922279636364,
  "formation_energy_per_atom": -0.304145084545459,
  "energy_above_hull": 0.0,
  "is_stable": true,
  "equilibrium_reaction_energy_per_atom": null,
  "decomposes_to": null,
  "xas": null,
  "grain_boundaries": null,
  "band_gap": 0.0,
  "cbm": null,
  "vbm": null,
  "efermi": 8.17849821,
  "is_gap_direct": null,
  "is_metal": null,
  "es_source_calc_id": null,
  "bandstructure": null,
  "dos": null,
  "dos_energy_up": null,
  "dos_energy_down": null,
  "is_magnetic": null,
  "ordering": null,
  "total_magnetization": 2e-7,
  "total_magnetization_normalized_vol": null,
  "total_magnetization_normalized_formula_units": null,
  "num_magnetic_sites": null,
  "num_unique_magnetic_sites": null,
  "types_of_magnetic_species": null,
  "bulk_modulus": null,
  "shear_modulus": null,
  "universal_anisotropy": null,
  "homogeneous_poisson": null,
  "e_total": null,
  "e_ionic": null,
  "e_electronic": null,
  "n": null,
  "e_ij_max": null,
  "weighted_surface_energy_EV_PER_ANG2": null,
  "weighted_surface_energy": null,
  "weighted_work_function": null,
  "surface_anisotropy": null,
  "shape_factor": null,
  "has_reconstructed": null,
  "possible_species": null,
  "has_props": null,
  "theoretical": null,
  "database_IDs": null,
  "fields_not_requested": [
    "builder_meta",
    "nsites",
    "elements",
    "nelements",
    "composition",
    "composition_reduced",
    "chemsys",
    "symmetry",
    "property_name",
    "deprecated",
    "deprecation_reasons",
    "last_updated",
    "origins",
    "warnings",
    "task_ids",
    "uncorrected_energy_per_atom",
    "equilibrium_reaction_energy_per_atom",
    "decomposes_to",
    "xas",
    "grain_boundaries",
    "cbm",
    "vbm",
    "is_gap_direct",
    "is_metal",
    "es_source_calc_id",
    "bandstructure",
    "dos",
    "dos_energy_up",
    "dos_energy_down",
    "is_magnetic",
    "ordering",
    "total_magnetization_normalized_vol",
    "total_magnetization_normalized_formula_units",
    "num_magnetic_sites",
    "num_unique_magnetic_sites",
    "types_of_magnetic_species",
    "bulk_modulus",
    "shear_modulus",
    "universal_anisotropy",
    "homogeneous_poisson",
    "e_total",
    "e_ionic",
    "e_electronic",
    "n",
    "e_ij_max",
    "weighted_surface_energy_EV_PER_ANG2",
    "weighted_surface_energy",
    "weighted_work_function",
    "surface_anisotropy",
    "shape_factor",
    "has_reconstructed",
    "possible_species",
    "has_props",
    "theoretical",
    "database_IDs"
  ]
}
