{
  "builder_meta": null,
  "nsites": null,
  "elements": null,
  "nelements": null,
  "composition": null,
  "composition_reduced": null,
  "formula_pretty": "Te8I3",
  "formula_anonymous": "A3B8",
  "chemsys": null,
  "volume": 954.7515133778215,
  "density": 2.437563844685752,
  "density_atomic": 86.7955921252565,
  "symmetry": null,
  "property_name": null,
  "material_id": "mp-685011",
  "deprecated": null,
  "deprecation_reasons": null,
  "last_updated": null,
  "origins": null,
  "warnings": null,
  "structure": {
    "@module": "pymatgen.core.structure",
    "@class": "Structure",
    "charge": 0,
    "lattice": {
      "matrix": [
        [2.320804, 2.27441, 0.0],
        [-2.320804, 2.27441, 0.0],
        [0.0, 1.394442999999999, 90.438456]
      ],
      "pbc": [true, true, true],
      "a": 3.249472580976181,
      "b": 3.249472580976181,
      "c": 90.44920560703773,
      "alpha": 89.3817232006574,
      "beta": 89.3817232006574,
      "gamma": 91.15689501382856,
      "volume": 954.7515133778215
    },
    "properties": {},
    "sites": [
      {
        "species": [{ "element": "Te", "occu": 1 }],
        "abc": [0.984634999999999, 0.984634999999999, 0.387273],
        "properties": { "magmom": 0.001 },
        "label": "Te",
        "xyz": [0.0, 5.018957504638995, 35.024372170488]
      },
      {
        "species": [{ "element": "Te", "occu": 1 }],
        "abc": [0.977726, 0.977726, 0.197264],
        "properties": { "magmom": -0.0 },
        "label": "Te",
        "xyz": [0.0, 4.722572987272, 17.840251584384]
      },
      {
        "species": [{ "element": "Te", "occu": 1 }],
        "abc": [0.991861999999999, 0.991861999999999, 0.130413],
        "properties": { "magmom": -0.0 },
        "label": "Te",
        "xyz": [0.0, 4.6936551977989955, 11.794350362328]
      },
      {
        "species": [{ "element": "Te", "occu": 1 }],
        "abc": [0.990455, 0.990455, 0.011658],
        "properties": { "magmom": -0.0 },
        "label": "Te",
        "xyz": [0.0, 4.521657929593999, 1.0543315200480001]
      },
      {
        "species": [{ "element": "Te", "occu": 1 }],
        "abc": [0.984614, 0.984614, 0.163902],
        "properties": { "magmom": -0.0 },
        "label": "Te",
        "xyz": [0.0, 4.707383852066, 14.823043815312]
      },
      {
        "species": [{ "element": "Te", "occu": 1 }],
        "abc": [0.968086999999999, 0.968086999999999, 0.310210999999999],
        "properties": { "magmom": 0.0 },
        "label": "Te",
        "xyz": [0.0, 4.836225064812995, 28.055003874215913]
      },
      {
        "species": [{ "element": "Te", "occu": 1 }],
        "abc": [0.984510999999999, 0.984510999999999, 0.279686],
        "properties": { "magmom": 0.0 },
        "label": "Te",
        "xyz": [0.0, 4.8683695119179955, 25.294370004816]
      },
      {
        "species": [{ "element": "Te", "occu": 1 }],
        "abc": [0.977553, 0.977553, 0.043352999999999],
        "properties": { "magmom": -0.0 },
        "label": "Te",
        "xyz": [0.0, 4.507165924838999, 3.92077838296791]
      },
      {
        "species": [{ "element": "I", "occu": 1 }],
        "abc": [0.484500999999999, 0.484500999999999, 0.344846],
        "properties": { "magmom": 0.0 },
        "label": "I",
        "xyz": [0.0, 2.684775929597995, 31.187339797775998]
      },
      {
        "species": [{ "element": "I", "occu": 1 }],
        "abc": [0.475807999999999, 0.475807999999999, 0.241701],
        "properties": { "magmom": -0.0 },
        "label": "I",
        "xyz": [0.0, 2.5014032141029956, 21.859065253656002]
      },
      {
        "species": [{ "element": "I", "occu": 1 }],
        "abc": [0.47924799999999906, 0.47924799999999906, 0.08447299999999901],
        "properties": { "magmom": -0.0 },
        "label": "I",
        "xyz": [0.0, 2.2978056708989945, 7.6396076936879105]
      }
    ]
  },
  "task_ids": null,
  "uncorrected_energy_per_atom": null,
  "energy_per_atom": -2.666212004545454,
  "formation_energy_per_atom": 0.035468449242424004,
  "energy_above_hull": 0.186744389015149,
  "is_stable": false,
  "equilibrium_reaction_energy_per_atom": null,
  "decomposes_to": null,
  "xas": null,
  "grain_boundaries": null,
  "band_gap": 0.0,
  "cbm": null,
  "vbm": null,
  "efermi": -0.6420510500000001,
  "is_gap_direct": null,
  "is_metal": null,
  "es_source_calc_id": null,
  "bandstructure": null,
  "dos": null,
  "dos_energy_up": null,
  "dos_energy_down": null,
  "is_magnetic": null,
  "ordering": null,
  "total_magnetization": 0.000435,
  "total_magnetization_normalized_vol": null,
  "total_magnetization_normalized_formula_units": null,
  "num_magnetic_sites": null,
  "num_unique_magnetic_sites": null,
  "types_of_magnetic_species": null,
  "bulk_modulus": null,
  "shear_modulus": null,
  "universal_anisotropy": null,
  "homogeneous_poisson": null,
  "e_total": null,
  "e_ionic": null,
  "e_electronic": null,
  "n": null,
  "e_ij_max": null,
  "weighted_surface_energy_EV_PER_ANG2": null,
  "weighted_surface_energy": null,
  "weighted_work_function": null,
  "surface_anisotropy": null,
  "shape_factor": null,
  "has_reconstructed": null,
  "possible_species": null,
  "has_props": null,
  "theoretical": null,
  "database_IDs": null,
  "fields_not_requested": [
    "builder_meta",
    "nsites",
    "elements",
    "nelements",
    "composition",
    "composition_reduced",
    "chemsys",
    "symmetry",
    "property_name",
    "deprecated",
    "deprecation_reasons",
    "last_updated",
    "origins",
    "warnings",
    "task_ids",
    "uncorrected_energy_per_atom",
    "equilibrium_reaction_energy_per_atom",
    "decomposes_to",
    "xas",
    "grain_boundaries",
    "cbm",
    "vbm",
    "is_gap_direct",
    "is_metal",
    "es_source_calc_id",
    "bandstructure",
    "dos",
    "dos_energy_up",
    "dos_energy_down",
    "is_magnetic",
    "ordering",
    "total_magnetization_normalized_vol",
    "total_magnetization_normalized_formula_units",
    "num_magnetic_sites",
    "num_unique_magnetic_sites",
    "types_of_magnetic_species",
    "bulk_modulus",
    "shear_modulus",
    "universal_anisotropy",
    "homogeneous_poisson",
    "e_total",
    "e_ionic",
    "e_electronic",
    "n",
    "e_ij_max",
    "weighted_surface_energy_EV_PER_ANG2",
    "weighted_surface_energy",
    "weighted_work_function",
    "surface_anisotropy",
    "shape_factor",
    "has_reconstructed",
    "possible_species",
    "has_props",
    "theoretical",
    "database_IDs"
  ]
}
