{
  "builder_meta": null,
  "nsites": null,
  "elements": null,
  "nelements": null,
  "composition": null,
  "composition_reduced": null,
  "formula_pretty": "Te8Rh3",
  "formula_anonymous": "A3B8",
  "chemsys": null,
  "volume": 275.03408156204347,
  "density": 8.02705641206605,
  "density_atomic": 25.003098323822133,
  "symmetry": null,
  "property_name": null,
  "material_id": "mp-7273",
  "deprecated": null,
  "deprecation_reasons": null,
  "last_updated": null,
  "origins": null,
  "warnings": null,
  "structure": {
    "@module": "pymatgen.core.structure",
    "@class": "Structure",
    "charge": 0,
    "lattice": {
      "matrix": [
        [6.5033558, -0.0088405, -0.09069172],
        [-0.09184779, 6.5027094, -0.0909126],
        [-0.00873162, -0.00862163, 6.50398148]
      ],
      "pbc": [true, true, true],
      "a": 6.503994142364402,
      "b": 6.503993439281362,
      "c": 6.503993055490963,
      "alpha": 90.87576063369546,
      "beta": 90.87577413679789,
      "gamma": 90.87576753001409,
      "volume": 275.03408156204347
    },
    "properties": {},
    "sites": [
      {
        "species": [{ "element": "Te", "occu": 1 }],
        "abc": [0.36960129, 0.36960129, 0.36960129],
        "properties": { "magmom": -0.0 },
        "label": "Te",
        "xyz": [2.3664744133255433, 2.396955756960978, 2.3367587542025365]
      },
      {
        "species": [{ "element": "Te", "occu": 1 }],
        "abc": [0.63039771, 0.63039771, 0.63039771],
        "properties": { "magmom": -0.0 },
        "label": "Te",
        "xyz": [4.036295573898067, 4.088285027791751, 3.9856120834203037]
      },
      {
        "species": [{ "element": "Te", "occu": 1 }],
        "abc": [0.12936829, 0.62309923, 0.8762128100000001],
        "properties": { "magmom": -0.0 },
        "label": "Te",
        "xyz": [0.776446974585328, 4.043135157036937, 5.630491684987903]
      },
      {
        "species": [{ "element": "Te", "occu": 1 }],
        "abc": [0.8762128100000001, 0.12936829, 0.62309923],
        "properties": { "magmom": -0.0 },
        "label": "Te",
        "xyz": [5.681000802716566, 0.828126105083776, 3.9613993976958737]
      },
      {
        "species": [{ "element": "Te", "occu": 1 }],
        "abc": [0.62309923, 0.8762128100000001, 0.12936829],
        "properties": { "magmom": -0.0 },
        "label": "Te",
        "xyz": [3.9706281864795145, 5.691133401714487, 0.7052402366494877]
      },
      {
        "species": [{ "element": "Te", "occu": 1 }],
        "abc": [0.8706317100000001, 0.37690077, 0.12378719],
        "properties": { "magmom": -0.0 },
        "label": "Te",
        "xyz": [5.626329415414673, 2.442112112963063, 0.6918854750120981]
      },
      {
        "species": [{ "element": "Te", "occu": 1 }],
        "abc": [0.12378719, 0.8706317100000001, 0.37690077],
        "properties": { "magmom": -0.0 },
        "label": "Te",
        "xyz": [0.7217755872834337, 5.657121164916225, 2.3609777623041266]
      },
      {
        "species": [{ "element": "Te", "occu": 1 }],
        "abc": [0.37690077, 0.12378719, 0.8706317100000001],
        "properties": { "magmom": -0.0 },
        "label": "Te",
        "xyz": [2.432148203520485, 0.7941138682855137, 5.617136923350513]
      },
      {
        "species": [{ "element": "Rh", "occu": 1 }],
        "abc": [0.5, 0.5, 0.0],
        "properties": { "magmom": 0.0 },
        "label": "Rh",
        "xyz": [3.2057540049999997, 3.24693445, -0.09080215999999999]
      },
      {
        "species": [{ "element": "Rh", "occu": 1 }],
        "abc": [-0.0, 0.5, 0.5],
        "properties": { "magmom": 0.0 },
        "label": "Rh",
        "xyz": [-0.050289705, 3.2470438849999996, 3.20653444]
      },
      {
        "species": [{ "element": "Rh", "occu": 1 }],
        "abc": [0.5, 0.0, 0.5],
        "properties": { "magmom": 0.0 },
        "label": "Rh",
        "xyz": [3.24731209, -0.008731065, 3.2066448800000003]
      }
    ]
  },
  "task_ids": null,
  "uncorrected_energy_per_atom": null,
  "energy_per_atom": -25.46587954,
  "formation_energy_per_atom": -0.39801768818181804,
  "energy_above_hull": 0.0,
  "is_stable": true,
  "equilibrium_reaction_energy_per_atom": null,
  "decomposes_to": null,
  "xas": null,
  "grain_boundaries": null,
  "band_gap": 0.0,
  "cbm": null,
  "vbm": null,
  "efermi": 7.22156183,
  "is_gap_direct": null,
  "is_metal": null,
  "es_source_calc_id": null,
  "bandstructure": null,
  "dos": null,
  "dos_energy_up": null,
  "dos_energy_down": null,
  "is_magnetic": null,
  "ordering": null,
  "total_magnetization": 0.0,
  "total_magnetization_normalized_vol": null,
  "total_magnetization_normalized_formula_units": null,
  "num_magnetic_sites": null,
  "num_unique_magnetic_sites": null,
  "types_of_magnetic_species": null,
  "bulk_modulus": null,
  "shear_modulus": null,
  "universal_anisotropy": null,
  "homogeneous_poisson": null,
  "e_total": null,
  "e_ionic": null,
  "e_electronic": null,
  "n": null,
  "e_ij_max": null,
  "weighted_surface_energy_EV_PER_ANG2": null,
  "weighted_surface_energy": null,
  "weighted_work_function": null,
  "surface_anisotropy": null,
  "shape_factor": null,
  "has_reconstructed": null,
  "possible_species": null,
  "has_props": null,
  "theoretical": null,
  "database_IDs": null,
  "fields_not_requested": [
    "builder_meta",
    "nsites",
    "elements",
    "nelements",
    "composition",
    "composition_reduced",
    "chemsys",
    "symmetry",
    "property_name",
    "deprecated",
    "deprecation_reasons",
    "last_updated",
    "origins",
    "warnings",
    "task_ids",
    "uncorrected_energy_per_atom",
    "equilibrium_reaction_energy_per_atom",
    "decomposes_to",
    "xas",
    "grain_boundaries",
    "cbm",
    "vbm",
    "is_gap_direct",
    "is_metal",
    "es_source_calc_id",
    "bandstructure",
    "dos",
    "dos_energy_up",
    "dos_energy_down",
    "is_magnetic",
    "ordering",
    "total_magnetization_normalized_vol",
    "total_magnetization_normalized_formula_units",
    "num_magnetic_sites",
    "num_unique_magnetic_sites",
    "types_of_magnetic_species",
    "bulk_modulus",
    "shear_modulus",
    "universal_anisotropy",
    "homogeneous_poisson",
    "e_total",
    "e_ionic",
    "e_electronic",
    "n",
    "e_ij_max",
    "weighted_surface_energy_EV_PER_ANG2",
    "weighted_surface_energy",
    "weighted_work_function",
    "surface_anisotropy",
    "shape_factor",
    "has_reconstructed",
    "possible_species",
    "has_props",
    "theoretical",
    "database_IDs"
  ]
}
