{"builder_meta": null, "nsites": null, "elements": null, "nelements": null, "composition": null, "composition_reduced": null, "formula_pretty": "TeBr2", "formula_anonymous": "AB2", "chemsys": null, "volume": 292.3695112644573, "density": 3.264719429801853, "density_atomic": 48.72825187740955, "symmetry": null, "property_name": null, "material_id": "mp-863764", "deprecated": null, "deprecation_reasons": null, "last_updated": null, "origins": null, "warnings": null, "structure": {"@module": "pymatgen.core.structure", "@class": "Structure", "charge": 0, "lattice": {"matrix": [[8.62013, 0.0, 0.0], [0.0, 8.62013, 0.0], [0.0, 0.0, 3.934635]], "pbc": [true, true, true], "a": 8.62013, "b": 8.62013, "c": 3.934635, "alpha": 90.0, "beta": 90.0, "gamma": 90.0, "volume": 292.3695112644573}, "properties": {}, "sites": [{"species": [{"element": "Te", "occu": 1}], "abc": [0.0, 0.0, 0.0], "properties": {"magmom": 0.0}, "label": "Te", "xyz": [0.0, 0.0, 0.0]}, {"species": [{"element": "Te", "occu": 1}], "abc": [0.5, 0.5, 0.5], "properties": {"magmom": 0.0}, "label": "Te", "xyz": [4.310065, 4.310065, 1.9673175]}, {"species": [{"element": "Br", "occu": 1}], "abc": [0.336618, 0.336618, 0.0], "properties": {"magmom": 0.0}, "label": "Br", "xyz": [2.9016909203399996, 2.9016909203399996, 0.0]}, {"species": [{"element": "Br", "occu": 1}], "abc": [0.663381999999999, 0.663381999999999, 0.0], "properties": {"magmom": 0.0}, "label": "Br", "xyz": [5.7184390796599915, 5.7184390796599915, 0.0]}, {"species": [{"element": "Br", "occu": 1}], "abc": [0.163382, 0.836618, 0.5], "properties": {"magmom": 0.0}, "label": "Br", "xyz": [1.40837407966, 7.211755920339999, 1.9673175]}, {"species": [{"element": "Br", "occu": 1}], "abc": [0.836618, 0.163382, 0.5], "properties": {"magmom": 0.0}, "label": "Br", "xyz": [7.211755920339999, 1.40837407966, 1.9673175]}]}, "task_ids": null, "uncorrected_energy_per_atom": null, "energy_per_atom": -2.680598588333333, "formation_energy_per_atom": -0.541532267222221, "energy_above_hull": 0.137787092083331, "is_stable": false, "equilibrium_reaction_energy_per_atom": null, "decomposes_to": null, "xas": null, "grain_boundaries": null, "band_gap": 0.6717000000000001, "cbm": null, "vbm": null, "efermi": 0.010476570000000001, "is_gap_direct": null, "is_metal": null, "es_source_calc_id": null, "bandstructure": null, "dos": null, "dos_energy_up": null, "dos_energy_down": null, "is_magnetic": null, "ordering": null, "total_magnetization": 0.0012695, "total_magnetization_normalized_vol": null, "total_magnetization_normalized_formula_units": null, "num_magnetic_sites": null, "num_unique_magnetic_sites": null, "types_of_magnetic_species": null, "bulk_modulus": null, "shear_modulus": null, "universal_anisotropy": null, "homogeneous_poisson": null, "e_total": null, "e_ionic": null, "e_electronic": null, "n": null, "e_ij_max": null, "weighted_surface_energy_EV_PER_ANG2": null, "weighted_surface_energy": null, "weighted_work_function": null, "surface_anisotropy": null, "shape_factor": null, "has_reconstructed": null, "possible_species": null, "has_props": null, "theoretical": null, "database_IDs": null, "fields_not_requested": ["builder_meta", "nsites", "elements", "nelements", "composition", "composition_reduced", "chemsys", "symmetry", "property_name", "deprecated", "deprecation_reasons", "last_updated", "origins", "warnings", "task_ids", "uncorrected_energy_per_atom", "equilibrium_reaction_energy_per_atom", "decomposes_to", "xas", "grain_boundaries", "cbm", "vbm", "is_gap_direct", "is_metal", "es_source_calc_id", "bandstructure", "dos", "dos_energy_up", "dos_energy_down", "is_magnetic", "ordering", "total_magnetization_normalized_vol", "total_magnetization_normalized_formula_units", "num_magnetic_sites", "num_unique_magnetic_sites", "types_of_magnetic_species", "bulk_modulus", "shear_modulus", "universal_anisotropy", "homogeneous_poisson", "e_total", "e_ionic", "e_electronic", "n", "e_ij_max", "weighted_surface_energy_EV_PER_ANG2", "weighted_surface_energy", "weighted_work_function", "surface_anisotropy", "shape_factor", "has_reconstructed", "possible_species", "has_props", "theoretical", "database_IDs"]}