{"builder_meta": null, "nsites": null, "elements": null, "nelements": null, "composition": null, "composition_reduced": null, "formula_pretty": "TeBr4", "formula_anonymous": "AB4", "chemsys": null, "volume": 1473.875434098416, "density": 4.0308407184375294, "density_atomic": 36.8468858524604, "symmetry": null, "property_name": null, "material_id": "mp-1208424", "deprecated": null, "deprecation_reasons": null, "last_updated": null, "origins": null, "warnings": null, "structure": {"@module": "pymatgen.core.structure", "@class": "Structure", "charge": 0, "lattice": {"matrix": [[-8.10743142, -5.5577388, 4.09121431], [8.10743142, -5.5577388, -4.09121431], [8.1342419, 5.5577388, 12.25021202]], "pbc": [true, true, true], "a": 10.646921589331699, "b": 10.646921589331699, "c": 15.72011597895173, "alpha": 95.16206691345192, "beta": 106.2082170408124, "gamma": 117.06641613483932, "volume": 1473.875434098416}, "properties": {}, "sites": [{"species": [{"element": "Te", "occu": 1}], "abc": [0.15360425, 0.76736674, 0.38951559], "properties": {"magmom": -0.0}, "label": "Te", "xyz": [8.144451328724656, -2.9536902970495205, 2.2606146805661593]}, {"species": [{"element": "Te", "occu": 1}], "abc": [0.84639575, 0.23263326, 0.61048441], "properties": {"magmom": -0.0}, "label": "Te", "xyz": [-0.010209428724656355, -2.6040485029504796, 9.989597339433839]}, {"species": [{"element": "Te", "occu": 1}], "abc": [0.8778501400000001, 0.76408966, 0.11048441], "properties": {"magmom": -0.0}, "label": "Te", "xyz": [-0.023598372787502875, -8.511429041472132, 1.8188759510930774]}, {"species": [{"element": "Te", "occu": 1}], "abc": [0.12214986, 0.23591034, 0.88951559], "properties": {"magmom": -0.0}, "label": "Te", "xyz": [8.157840272787501, 2.953690241472132, 10.431336068906923]}, {"species": [{"element": "Te", "occu": 1}], "abc": [0.7979435500000001, 0.33711286, 0.182490799999999], "properties": {"magmom": 0.0}, "label": "Te", "xyz": [-2.2517289036817676, -5.294110850242674, 4.120908105114578]}, {"species": [{"element": "Te", "occu": 1}], "abc": [0.20205645, 0.66288714, 0.817509199999999], "properties": {"magmom": 0.0}, "label": "Te", "xyz": [10.38597080368175, -0.26362794975733816, 8.129303914885398]}, {"species": [{"element": "Te", "occu": 1}], "abc": [0.65462206, 0.61545276, 0.3175092], "properties": {"magmom": 0.0}, "label": "Te", "xyz": [2.265134224756074, -5.294110905820056, 4.049805018973267]}, {"species": [{"element": "Te", "occu": 1}], "abc": [0.34537794, 0.38454824, 0.6824908], "properties": {"magmom": 0.0}, "label": "Te", "xyz": [5.869115782675346, -0.26363345191874377, 8.200402909812423]}, {"species": [{"element": "Br", "occu": 1}], "abc": [0.18629371, 0.87317044, 0.54907803], "properties": {"magmom": 0.0}, "label": "Br", "xyz": [10.035139500464313, -2.836592742105456, 3.916162376041914]}, {"species": [{"element": "Br", "occu": 1}], "abc": [0.81370629, 0.12682956, 0.45092197], "properties": {"magmom": 0.0}, "label": "Br", "xyz": [-1.9008976004643139, -2.721146057894544, 8.334049643958085]}, {"species": [{"element": "Br", "occu": 1}], "abc": [0.82409242, 0.63721469, 0.95092197], "properties": {"magmom": 0.0}, "label": "Br", "xyz": [6.2199309521042645, -2.836587295521432, 12.413552590172396]}, {"species": [{"element": "Br", "occu": 1}], "abc": [0.17590758, 0.36278531, 0.04907803], "properties": {"magmom": 0.0}, "label": "Br", "xyz": [1.9143109478957336, -2.721151504478568, -0.1633405701723959]}, {"species": [{"element": "Br", "occu": 1}], "abc": [0.36751945, 0.99308658, 0.37580516], "properties": {"magmom": -0.0}, "label": "Br", "xyz": [8.128632683789428, -5.473266005472756, 2.044363694088393]}, {"species": [{"element": "Br", "occu": 1}], "abc": [0.63248055, 0.00691342, 0.62419484], "properties": {"magmom": -0.0}, "label": "Br", "xyz": [0.0056092162105709775, -0.08447279452724388, 10.205848325911607]}, {"species": [{"element": "Br", "occu": 1}], "abc": [0.11728043, 0.99171329, 0.12419484], "properties": {"magmom": -0.0}, "label": "Br", "xyz": [8.099635315136256, -5.473254945572543, -2.0560791081762493]}, {"species": [{"element": "Br", "occu": 1}], "abc": [0.88271957, 0.008286710000000001, 0.87580516], "properties": {"magmom": -0.0}, "label": "Br", "xyz": [0.03460658486374246, -0.08448385442745643, 14.30629112817625]}, {"species": [{"element": "Br", "occu": 1}], "abc": [0.56785437, 0.12144706000000001, 0.19192323], "properties": {"magmom": -0.0}, "label": "Br", "xyz": [-2.058066672162343, -2.7642981204141606, 4.177448233823831]}, {"species": [{"element": "Br", "occu": 1}], "abc": [0.43214563, 0.8785529400000001, 0.80807677], "properties": {"magmom": -0.0}, "label": "Br", "xyz": [10.192308572162343, -2.7934406795858404, 8.072763786176168]}, {"species": [{"element": "Br", "occu": 1}], "abc": [0.42952382, 0.37593013000000003, 0.30807677], "properties": {"magmom": -0.0}, "label": "Br", "xyz": [2.071463804730923, -2.7642924515205847, 3.993269022390479]}, {"species": [{"element": "Br", "occu": 1}], "abc": [0.57047618, 0.62406987, 0.69192323], "properties": {"magmom": -0.0}, "label": "Br", "xyz": [6.062778095269077, -2.793446348479416, 8.25694299760952]}, {"species": [{"element": "Br", "occu": 1}], "abc": [0.61550991, 0.48997099, 0.12446736], "properties": {"magmom": -0.0}, "label": "Br", "xyz": [-0.005350569546482609, -5.4522170145833515, 2.0383581755356124]}, {"species": [{"element": "Br", "occu": 1}], "abc": [0.38449009, 0.51002901, 0.87553264], "properties": {"magmom": -0.0}, "label": "Br", "xyz": [8.139592469546482, -0.10552178541664858, 10.211853844464386]}, {"species": [{"element": "Br", "occu": 1}], "abc": [0.86550463, 0.49104155, 0.37553264000000003], "properties": {"magmom": -0.0}, "label": "Br", "xyz": [0.018739594683642835, -5.452217014583352, 6.132363171893008]}, {"species": [{"element": "Br", "occu": 1}], "abc": [0.13449537, 0.5089584500000001, 0.62446736], "properties": {"magmom": -0.0}, "label": "Br", "xyz": [8.115502305316358, -0.10552178541664814, 6.117848848106991]}, {"species": [{"element": "Br", "occu": 1}], "abc": [0.70495676, 0.8664829900000001, 0.06259834], "properties": {"magmom": 0.0}, "label": "Br", "xyz": [1.8187528723545932, -8.385746447403708, 0.10600451348369544]}, {"species": [{"element": "Br", "occu": 1}], "abc": [0.29504324, 0.13351701, 0.93740166], "properties": {"magmom": 0.0}, "label": "Br", "xyz": [6.315489027645407, 2.828007647403709, 12.144207506516304]}, {"species": [{"element": "Br", "occu": 1}], "abc": [0.30388365, 0.64235842, 0.43740166], "properties": {"magmom": 0.0}, "label": "Br", "xyz": [6.302091895076827, -2.828002089664908, 3.973490250301995]}, {"species": [{"element": "Br", "occu": 1}], "abc": [0.69611635, 0.35764158, 0.56259834], "properties": {"magmom": 0.0}, "label": "Br", "xyz": [1.8321500049231725, -2.729736710335093, 8.276721769698005]}, {"species": [{"element": "Br", "occu": 1}], "abc": [0.73940721, 0.23699765, 0.01535091], "properties": {"magmom": 0.0}, "label": "Br", "xyz": [-3.948383037127246, -5.341286826808261, 2.2435170835527414]}, {"species": [{"element": "Br", "occu": 1}], "abc": [0.26059279, 0.76300235, 0.98464909], "properties": {"magmom": 0.0}, "label": "Br", "xyz": [12.082624937127246, -0.2164519731917398, 10.006694936447257]}, {"species": [{"element": "Br", "occu": 1}], "abc": [0.7216467400000001, 0.72405631, 0.48464909], "properties": {"magmom": 0.0}, "label": "Br", "xyz": [3.9617883582015594, -5.341286882385648, 5.927196040535115]}, {"species": [{"element": "Br", "occu": 1}], "abc": [0.27835326, 0.27594369, 0.51535091], "properties": {"magmom": 0.0}, "label": "Br", "xyz": [4.17245354179844, -0.21645191761435179, 6.323015979464884]}, {"species": [{"element": "Br", "occu": 1}], "abc": [0.9354594700000001, 0.87889379, 0.31345518], "properties": {"magmom": 0.0}, "label": "Br", "xyz": [2.0911178876023766, -8.341599494061505, 4.071314733238145]}, {"species": [{"element": "Br", "occu": 1}], "abc": [0.06454053, 0.12110621, 0.6865448200000001], "properties": {"magmom": 0.0}, "label": "Br", "xyz": [6.043124012397623, 2.783860694061504, 8.178897286761856]}, {"species": [{"element": "Br", "occu": 1}], "abc": [0.06544061, 0.62200329, 0.18654482], "properties": {"magmom": 0.0}, "label": "Br", "xyz": [6.029694450103364, -2.783866251800304, 0.008196395404785672]}, {"species": [{"element": "Br", "occu": 1}], "abc": [0.93455939, 0.37799671, 0.81345518], "properties": {"magmom": 0.0}, "label": "Br", "xyz": [2.1045474498966374, -2.7738725481996953, 12.242015624595215]}, {"species": [{"element": "Br", "occu": 1}], "abc": [0.97936199, 0.24874467, 0.24659987], "properties": {"magmom": 0.0}, "label": "Br", "xyz": [-3.9175268210756418, -5.454958369246452, 6.010012726322286]}, {"species": [{"element": "Br", "occu": 1}], "abc": [0.020638010000000002, 0.75125533, 0.7534001300000001], "properties": {"magmom": 0.0}, "label": "Br", "xyz": [12.05176872107564, -0.10278043075354759, 6.240199293677714]}, {"species": [{"element": "Br", "occu": 1}], "abc": [0.50214379, 0.73276111, 0.25340013], "properties": {"magmom": 0.0}, "label": "Br", "xyz": [3.9309320610756417, -5.454947142614076, 2.160700438677713]}, {"species": [{"element": "Br", "occu": 1}], "abc": [0.49785621, 0.26723889, 0.74659987], "properties": {"magmom": 0.0}, "label": "Br", "xyz": [4.203309838924358, -0.10279165738592422, 10.089511581322288]}]}, "task_ids": null, "uncorrected_energy_per_atom": null, "energy_per_atom": -2.750892625749998, "formation_energy_per_atom": -0.812674219083331, "energy_above_hull": 0.0, "is_stable": true, "equilibrium_reaction_energy_per_atom": null, "decomposes_to": null, "xas": null, "grain_boundaries": null, "band_gap": 2.5242, "cbm": null, "vbm": null, "efermi": -0.77730563, "is_gap_direct": null, "is_metal": null, "es_source_calc_id": null, "bandstructure": null, "dos": null, "dos_energy_up": null, "dos_energy_down": null, "is_magnetic": null, "ordering": null, "total_magnetization": 0.0, "total_magnetization_normalized_vol": null, "total_magnetization_normalized_formula_units": null, "num_magnetic_sites": null, "num_unique_magnetic_sites": null, "types_of_magnetic_species": null, "bulk_modulus": null, "shear_modulus": null, "universal_anisotropy": null, "homogeneous_poisson": null, "e_total": null, "e_ionic": null, "e_electronic": null, "n": null, "e_ij_max": null, "weighted_surface_energy_EV_PER_ANG2": null, "weighted_surface_energy": null, "weighted_work_function": null, "surface_anisotropy": null, "shape_factor": null, "has_reconstructed": null, "possible_species": null, "has_props": null, "theoretical": null, "database_IDs": null, "fields_not_requested": ["builder_meta", "nsites", "elements", "nelements", "composition", "composition_reduced", "chemsys", "symmetry", "property_name", "deprecated", "deprecation_reasons", "last_updated", "origins", "warnings", "task_ids", "uncorrected_energy_per_atom", "equilibrium_reaction_energy_per_atom", "decomposes_to", "xas", "grain_boundaries", "cbm", "vbm", "is_gap_direct", "is_metal", "es_source_calc_id", "bandstructure", "dos", "dos_energy_up", "dos_energy_down", "is_magnetic", "ordering", "total_magnetization_normalized_vol", "total_magnetization_normalized_formula_units", "num_magnetic_sites", "num_unique_magnetic_sites", "types_of_magnetic_species", "bulk_modulus", "shear_modulus", "universal_anisotropy", "homogeneous_poisson", "e_total", "e_ionic", "e_electronic", "n", "e_ij_max", "weighted_surface_energy_EV_PER_ANG2", "weighted_surface_energy", "weighted_work_function", "surface_anisotropy", "shape_factor", "has_reconstructed", "possible_species", "has_props", "theoretical", "database_IDs"]}