{
  "builder_meta": null,
  "nsites": null,
  "elements": null,
  "nelements": null,
  "composition": null,
  "composition_reduced": null,
  "formula_pretty": "TeBr6",
  "formula_anonymous": "AB6",
  "chemsys": null,
  "volume": 611.3808929981641,
  "density": 3.297411083361498,
  "density_atomic": 43.670063785583146,
  "symmetry": null,
  "property_name": null,
  "material_id": "mp-1104734",
  "deprecated": null,
  "deprecation_reasons": null,
  "last_updated": null,
  "origins": null,
  "warnings": null,
  "structure": {
    "@module": "pymatgen.core.structure",
    "@class": "Structure",
    "charge": 0,
    "lattice": {
      "matrix": [
        [7.428041, 0.0, 0.0],
        [0.0, 7.428041, 0.0],
        [0.0, 0.0, 11.0806]
      ],
      "pbc": [true, true, true],
      "a": 7.428041,
      "b": 7.428041,
      "c": 11.0806,
      "alpha": 90.0,
      "beta": 90.0,
      "gamma": 90.0,
      "volume": 611.3808929981641
    },
    "properties": {},
    "sites": [
      {
        "species": [{ "element": "Te", "occu": 1 }],
        "abc": [0.5, 0.5, 0.5],
        "properties": { "magmom": 0.0 },
        "label": "Te",
        "xyz": [3.7140205, 3.7140205, 5.5403]
      },
      {
        "species": [{ "element": "Te", "occu": 1 }],
        "abc": [0.0, 0.0, 0.0],
        "properties": { "magmom": 0.0 },
        "label": "Te",
        "xyz": [0.0, 0.0, 0.0]
      },
      {
        "species": [{ "element": "Br", "occu": 1 }],
        "abc": [0.5, 0.5, 0.268374],
        "properties": { "magmom": -0.0 },
        "label": "Br",
        "xyz": [3.7140205, 3.7140205, 2.9737449444]
      },
      {
        "species": [{ "element": "Br", "occu": 1 }],
        "abc": [0.0, 0.0, 0.768374],
        "properties": { "magmom": -0.0 },
        "label": "Br",
        "xyz": [0.0, 0.0, 8.5140449444]
      },
      {
        "species": [{ "element": "Br", "occu": 1 }],
        "abc": [0.5, 0.5, 0.731626],
        "properties": { "magmom": -0.0 },
        "label": "Br",
        "xyz": [3.7140205, 3.7140205, 8.1068550556]
      },
      {
        "species": [{ "element": "Br", "occu": 1 }],
        "abc": [0.0, 0.0, 0.231626],
        "properties": { "magmom": -0.0 },
        "label": "Br",
        "xyz": [0.0, 0.0, 2.5665550556000003]
      },
      {
        "species": [{ "element": "Br", "occu": 1 }],
        "abc": [0.780972, 0.705257, 0.5],
        "properties": { "magmom": 0.0 },
        "label": "Br",
        "xyz": [5.801092035852, 5.238677911537001, 5.5403]
      },
      {
        "species": [{ "element": "Br", "occu": 1 }],
        "abc": [0.219028, 0.294743, 0.5],
        "properties": { "magmom": 0.0 },
        "label": "Br",
        "xyz": [1.6269489641480002, 2.1893630884629998, 5.5403]
      },
      {
        "species": [{ "element": "Br", "occu": 1 }],
        "abc": [0.719028, 0.205257, 0.0],
        "properties": { "magmom": 0.0 },
        "label": "Br",
        "xyz": [5.340969464148, 1.524657411537, 0.0]
      },
      {
        "species": [{ "element": "Br", "occu": 1 }],
        "abc": [0.280972, 0.794743, 0.0],
        "properties": { "magmom": 0.0 },
        "label": "Br",
        "xyz": [2.087071535852, 5.903383588463, 0.0]
      },
      {
        "species": [{ "element": "Br", "occu": 1 }],
        "abc": [0.705257, 0.219028, 0.5],
        "properties": { "magmom": 0.0 },
        "label": "Br",
        "xyz": [5.238677911537001, 1.6269489641480002, 5.5403]
      },
      {
        "species": [{ "element": "Br", "occu": 1 }],
        "abc": [0.294743, 0.780972, 0.5],
        "properties": { "magmom": 0.0 },
        "label": "Br",
        "xyz": [2.1893630884629998, 5.801092035852, 5.5403]
      },
      {
        "species": [{ "element": "Br", "occu": 1 }],
        "abc": [0.205257, 0.280972, 0.0],
        "properties": { "magmom": 0.0 },
        "label": "Br",
        "xyz": [1.524657411537, 2.087071535852, 0.0]
      },
      {
        "species": [{ "element": "Br", "occu": 1 }],
        "abc": [0.794743, 0.719028, 0.0],
        "properties": { "magmom": 0.0 },
        "label": "Br",
        "xyz": [5.903383588463, 5.340969464148, 0.0]
      }
    ]
  },
  "task_ids": null,
  "uncorrected_energy_per_atom": null,
  "energy_per_atom": -2.403518685714286,
  "formation_energy_per_atom": -0.551377956666666,
  "energy_above_hull": 0.029103628392855,
  "is_stable": false,
  "equilibrium_reaction_energy_per_atom": null,
  "decomposes_to": null,
  "xas": null,
  "grain_boundaries": null,
  "band_gap": 0.0,
  "cbm": null,
  "vbm": null,
  "efermi": -1.53661146,
  "is_gap_direct": null,
  "is_metal": null,
  "es_source_calc_id": null,
  "bandstructure": null,
  "dos": null,
  "dos_energy_up": null,
  "dos_energy_down": null,
  "is_magnetic": null,
  "ordering": null,
  "total_magnetization": 0.0177924,
  "total_magnetization_normalized_vol": null,
  "total_magnetization_normalized_formula_units": null,
  "num_magnetic_sites": null,
  "num_unique_magnetic_sites": null,
  "types_of_magnetic_species": null,
  "bulk_modulus": null,
  "shear_modulus": null,
  "universal_anisotropy": null,
  "homogeneous_poisson": null,
  "e_total": null,
  "e_ionic": null,
  "e_electronic": null,
  "n": null,
  "e_ij_max": null,
  "weighted_surface_energy_EV_PER_ANG2": null,
  "weighted_surface_energy": null,
  "weighted_work_function": null,
  "surface_anisotropy": null,
  "shape_factor": null,
  "has_reconstructed": null,
  "possible_species": null,
  "has_props": null,
  "theoretical": null,
  "database_IDs": null,
  "fields_not_requested": [
    "builder_meta",
    "nsites",
    "elements",
    "nelements",
    "composition",
    "composition_reduced",
    "chemsys",
    "symmetry",
    "property_name",
    "deprecated",
    "deprecation_reasons",
    "last_updated",
    "origins",
    "warnings",
    "task_ids",
    "uncorrected_energy_per_atom",
    "equilibrium_reaction_energy_per_atom",
    "decomposes_to",
    "xas",
    "grain_boundaries",
    "cbm",
    "vbm",
    "is_gap_direct",
    "is_metal",
    "es_source_calc_id",
    "bandstructure",
    "dos",
    "dos_energy_up",
    "dos_energy_down",
    "is_magnetic",
    "ordering",
    "total_magnetization_normalized_vol",
    "total_magnetization_normalized_formula_units",
    "num_magnetic_sites",
    "num_unique_magnetic_sites",
    "types_of_magnetic_species",
    "bulk_modulus",
    "shear_modulus",
    "universal_anisotropy",
    "homogeneous_poisson",
    "e_total",
    "e_ionic",
    "e_electronic",
    "n",
    "e_ij_max",
    "weighted_surface_energy_EV_PER_ANG2",
    "weighted_surface_energy",
    "weighted_work_function",
    "surface_anisotropy",
    "shape_factor",
    "has_reconstructed",
    "possible_species",
    "has_props",
    "theoretical",
    "database_IDs"
  ]
}
