{"builder_meta": null, "nsites": null, "elements": null, "nelements": null, "composition": null, "composition_reduced": null, "formula_pretty": "TeF4", "formula_anonymous": "AB4", "chemsys": null, "volume": 304.12454739916774, "density": 4.446535482331919, "density_atomic": 15.206227369958388, "symmetry": null, "property_name": null, "material_id": "mp-561664", "deprecated": null, "deprecation_reasons": null, "last_updated": null, "origins": null, "warnings": null, "structure": {"@module": "pymatgen.core.structure", "@class": "Structure", "charge": 0, "lattice": {"matrix": [[5.2724388300000005, 0.0, 0.0], [0.0, 6.19096135, 0.0], [0.0, 0.0, 9.31712309]], "pbc": [true, true, true], "a": 5.2724388300000005, "b": 6.19096135, "c": 9.31712309, "alpha": 90.0, "beta": 90.0, "gamma": 90.0, "volume": 304.1245473991678}, "properties": {}, "sites": [{"species": [{"element": "Te", "occu": 1}], "abc": [0.14713253, 0.9979345, 0.62163188], "properties": {"magmom": -0.0}, "label": "Te", "xyz": [0.77574726432814, 6.178173919331575, 5.79182074262811]}, {"species": [{"element": "Te", "occu": 1}], "abc": [0.35286747, 0.0020655, 0.12163188], "properties": {"magmom": -0.0}, "label": "Te", "xyz": [1.8604721506718604, 0.012787430668425, 1.1332591976281092]}, {"species": [{"element": "Te", "occu": 1}], "abc": [0.64713253, 0.502065499999999, 0.37836812000000003], "properties": {"magmom": -0.0}, "label": "Te", "xyz": [3.4119666793281405, 3.108268105668419, 3.525302347371891]}, {"species": [{"element": "Te", "occu": 1}], "abc": [0.8528674700000001, 0.4979345, 0.87836812], "properties": {"magmom": -0.0}, "label": "Te", "xyz": [4.496691565671861, 3.0826932443315753, 8.18386389237189]}, {"species": [{"element": "F", "occu": 1}], "abc": [0.71021873, 0.23352506, 0.94303177], "properties": {"magmom": 0.0}, "label": "F", "xyz": [3.7445848098452865, 1.445744620716431, 8.786343078870571]}, {"species": [{"element": "F", "occu": 1}], "abc": [0.06078344, 0.86226285, 0.04395618], "properties": {"magmom": 0.0}, "label": "F", "xyz": [0.3204769692769752, 5.3382359778908475, 0.4095451396261962]}, {"species": [{"element": "F", "occu": 1}], "abc": [0.56078344, 0.63773715, 0.95604382], "properties": {"magmom": 0.0}, "label": "F", "xyz": [2.9566963842769756, 3.9482060471091525, 8.907577950373804]}, {"species": [{"element": "F", "occu": 1}], "abc": [0.41302857, 0.70402759, 0.24856435000000002], "properties": {"magmom": -0.0}, "label": "F", "xyz": [2.1776678703673733, 4.358607599023647, 2.315904644735842]}, {"species": [{"element": "F", "occu": 1}], "abc": [0.14945749, 0.04061425, 0.2828991], "properties": {"magmom": 0.0}, "label": "F", "xyz": [0.7880054737103368, 0.2514412520092375, 2.6358057367502195]}, {"species": [{"element": "F", "occu": 1}], "abc": [0.35054251000000003, 0.95938575, 0.7828991], "properties": {"magmom": 0.0}, "label": "F", "xyz": [1.8482139412896637, 5.939520097990763, 7.294367281750219]}, {"species": [{"element": "F", "occu": 1}], "abc": [0.64945749, 0.45938575000000004, 0.717100899999999], "properties": {"magmom": 0.0}, "label": "F", "xyz": [3.424224888710337, 2.844039422990763, 6.6813173532497725]}, {"species": [{"element": "F", "occu": 1}], "abc": [0.43921656000000003, 0.13773715, 0.54395618], "properties": {"magmom": 0.0}, "label": "F", "xyz": [2.3157424457230253, 0.8527253721091526, 5.068106684626197]}, {"species": [{"element": "F", "occu": 1}], "abc": [0.08697143, 0.29597241, 0.74856435], "properties": {"magmom": -0.0}, "label": "F", "xyz": [0.45855154463262693, 1.8323537509763537, 6.974466189735842]}, {"species": [{"element": "F", "occu": 1}], "abc": [0.85054251, 0.54061425, 0.21710089999999901], "properties": {"magmom": 0.0}, "label": "F", "xyz": [4.484433356289664, 3.3469219270092374, 2.022755808249772]}, {"species": [{"element": "F", "occu": 1}], "abc": [0.93921656, 0.36226285, 0.45604382], "properties": {"magmom": 0.0}, "label": "F", "xyz": [4.951961860723025, 2.242755302890848, 4.249016405373804]}, {"species": [{"element": "F", "occu": 1}], "abc": [0.28978127, 0.7335250600000001, 0.5569682300000001], "properties": {"magmom": 0.0}, "label": "F", "xyz": [1.5278540201547142, 4.541225295716432, 5.189341556129432]}, {"species": [{"element": "F", "occu": 1}], "abc": [0.58697143, 0.20402759, 0.25143565], "properties": {"magmom": -0.0}, "label": "F", "xyz": [3.094770959632627, 1.2631269240236467, 2.3426569002641586]}, {"species": [{"element": "F", "occu": 1}], "abc": [0.78978127, 0.76647494, 0.44303177], "properties": {"magmom": 0.0}, "label": "F", "xyz": [4.164073435154714, 4.74521672928357, 4.12778153387057]}, {"species": [{"element": "F", "occu": 1}], "abc": [0.91302857, 0.79597241, 0.75143565], "properties": {"magmom": -0.0}, "label": "F", "xyz": [4.8138872853673735, 4.927834425976354, 7.0012184452641595]}, {"species": [{"element": "F", "occu": 1}], "abc": [0.21021873, 0.26647494, 0.05696823], "properties": {"magmom": 0.0}, "label": "F", "xyz": [1.108365394845286, 1.649736054283569, 0.5307800111294307]}]}, "task_ids": null, "uncorrected_energy_per_atom": null, "energy_per_atom": -9.800603429, "formation_energy_per_atom": -2.216336207, "energy_above_hull": 0.0, "is_stable": true, "equilibrium_reaction_energy_per_atom": null, "decomposes_to": null, "xas": null, "grain_boundaries": null, "band_gap": 4.0186, "cbm": null, "vbm": null, "efermi": -0.38120436, "is_gap_direct": null, "is_metal": null, "es_source_calc_id": null, "bandstructure": null, "dos": null, "dos_energy_up": null, "dos_energy_down": null, "is_magnetic": null, "ordering": null, "total_magnetization": 0.0, "total_magnetization_normalized_vol": null, "total_magnetization_normalized_formula_units": null, "num_magnetic_sites": null, "num_unique_magnetic_sites": null, "types_of_magnetic_species": null, "bulk_modulus": null, "shear_modulus": null, "universal_anisotropy": null, "homogeneous_poisson": null, "e_total": null, "e_ionic": null, "e_electronic": null, "n": null, "e_ij_max": null, "weighted_surface_energy_EV_PER_ANG2": null, "weighted_surface_energy": null, "weighted_work_function": null, "surface_anisotropy": null, "shape_factor": null, "has_reconstructed": null, "possible_species": null, "has_props": null, "theoretical": null, "database_IDs": null, "fields_not_requested": ["builder_meta", "nsites", "elements", "nelements", "composition", "composition_reduced", "chemsys", "symmetry", "property_name", "deprecated", "deprecation_reasons", "last_updated", "origins", "warnings", "task_ids", "uncorrected_energy_per_atom", "equilibrium_reaction_energy_per_atom", "decomposes_to", "xas", "grain_boundaries", "cbm", "vbm", "is_gap_direct", "is_metal", "es_source_calc_id", "bandstructure", "dos", "dos_energy_up", "dos_energy_down", "is_magnetic", "ordering", "total_magnetization_normalized_vol", "total_magnetization_normalized_formula_units", "num_magnetic_sites", "num_unique_magnetic_sites", "types_of_magnetic_species", "bulk_modulus", "shear_modulus", "universal_anisotropy", "homogeneous_poisson", "e_total", "e_ionic", "e_electronic", "n", "e_ij_max", "weighted_surface_energy_EV_PER_ANG2", "weighted_surface_energy", "weighted_work_function", "surface_anisotropy", "shape_factor", "has_reconstructed", "possible_species", "has_props", "theoretical", "database_IDs"]}