{
  "builder_meta": null,
  "nsites": null,
  "elements": null,
  "nelements": null,
  "composition": null,
  "composition_reduced": null,
  "formula_pretty": "TeF6",
  "formula_anonymous": "AB6",
  "chemsys": null,
  "volume": 404.1760739343216,
  "density": 3.970253115606844,
  "density_atomic": 14.434859783368628,
  "symmetry": null,
  "property_name": null,
  "material_id": "mp-1875",
  "deprecated": null,
  "deprecation_reasons": null,
  "last_updated": null,
  "origins": null,
  "warnings": null,
  "structure": {
    "@module": "pymatgen.core.structure",
    "@class": "Structure",
    "charge": 0,
    "lattice": {
      "matrix": [
        [4.97821264, -0.0, 0.0],
        [-0.0, 8.57633732, 0.0],
        [0.0, 0.0, 9.46662783]
      ],
      "pbc": [true, true, true],
      "a": 4.97821264,
      "b": 8.57633732,
      "c": 9.46662783,
      "alpha": 90.0,
      "beta": 90.0,
      "gamma": 90.0,
      "volume": 404.1760739343216
    },
    "properties": {},
    "sites": [
      {
        "species": [{ "element": "Te", "occu": 1 }],
        "abc": [0.59299427, 0.75, 0.37260064],
        "properties": { "magmom": -0.0 },
        "label": "Te",
        "xyz": [2.952051570361573, 6.43225299, 3.527271588099811]
      },
      {
        "species": [{ "element": "Te", "occu": 1 }],
        "abc": [0.09299427, 0.25, 0.12739936],
        "properties": { "magmom": -0.0 },
        "label": "Te",
        "xyz": [0.4629452503615728, 2.14408433, 1.2060423269001888]
      },
      {
        "species": [{ "element": "Te", "occu": 1 }],
        "abc": [0.40700573, 0.25, 0.62739936],
        "properties": { "magmom": -0.0 },
        "label": "Te",
        "xyz": [2.026161069638427, 2.14408433, 5.939356241900189]
      },
      {
        "species": [{ "element": "Te", "occu": 1 }],
        "abc": [0.9070057300000001, 0.75, 0.87260064],
        "properties": { "magmom": -0.0 },
        "label": "Te",
        "xyz": [4.515267389638427, 6.43225299, 8.260585503099811]
      },
      {
        "species": [{ "element": "F", "occu": 1 }],
        "abc": [0.56322708, 0.40103475, 0.73737601],
        "properties": { "magmom": 0.0 },
        "label": "F",
        "xyz": [2.803864168846291, 3.4394092930418703, 6.980464257440358]
      },
      {
        "species": [{ "element": "F", "occu": 1 }],
        "abc": [0.06322708, 0.59896525, 0.76262399],
        "properties": { "magmom": 0.0 },
        "label": "F",
        "xyz": [0.3147578488462912, 5.13692802695813, 7.219477487559642]
      },
      {
        "species": [{ "element": "F", "occu": 1 }],
        "abc": [0.43677292, 0.90103475, 0.26262399000000003],
        "properties": { "magmom": 0.0 },
        "label": "F",
        "xyz": [2.1743484711537087, 7.7275779530418705, 2.486163572559642]
      },
      {
        "species": [{ "element": "F", "occu": 1 }],
        "abc": [0.93677292, 0.09896525, 0.23737601],
        "properties": { "magmom": 0.0 },
        "label": "F",
        "xyz": [4.6634547911537085, 0.84875936695813, 2.2471503424403583]
      },
      {
        "species": [{ "element": "F", "occu": 1 }],
        "abc": [0.20150572, 0.75, 0.9893559999999991],
        "properties": { "magmom": 0.0 },
        "label": "F",
        "xyz": [1.0031383223363008, 6.43225299, 9.365865043377472]
      },
      {
        "species": [{ "element": "F", "occu": 1 }],
        "abc": [0.70150572, 0.25, 0.510644],
        "properties": { "magmom": 0.0 },
        "label": "F",
        "xyz": [3.4922446423363005, 2.14408433, 4.83407670162252]
      },
      {
        "species": [{ "element": "F", "occu": 1 }],
        "abc": [0.79849428, 0.25, 0.010643999999999001],
        "properties": { "magmom": 0.0 },
        "label": "F",
        "xyz": [3.975074317663699, 2.14408433, 0.10076278662251055]
      },
      {
        "species": [{ "element": "F", "occu": 1 }],
        "abc": [0.29849428, 0.75, 0.489355999999999],
        "properties": { "magmom": 0.0 },
        "label": "F",
        "xyz": [1.485967997663699, 6.43225299, 4.632551128377471]
      },
      {
        "species": [{ "element": "F", "occu": 1 }],
        "abc": [0.61094083, 0.75, 0.75663058],
        "properties": { "magmom": -0.0 },
        "label": "F",
        "xyz": [3.041393362198091, 6.43225299, 7.162740105657042]
      },
      {
        "species": [{ "element": "F", "occu": 1 }],
        "abc": [0.11094083, 0.25, 0.7433694200000001],
        "properties": { "magmom": -0.0 },
        "label": "F",
        "xyz": [0.5522870421980912, 2.14408433, 7.0372016393429595]
      },
      {
        "species": [{ "element": "F", "occu": 1 }],
        "abc": [0.38905917, 0.25, 0.24336942],
        "properties": { "magmom": -0.0 },
        "label": "F",
        "xyz": [1.9368192778019087, 2.14408433, 2.3038877243429585]
      },
      {
        "species": [{ "element": "F", "occu": 1 }],
        "abc": [0.88905917, 0.75, 0.25663058],
        "properties": { "magmom": -0.0 },
        "label": "F",
        "xyz": [4.425925597801909, 6.43225299, 2.4294261906570416]
      },
      {
        "species": [{ "element": "F", "occu": 1 }],
        "abc": [0.74991655, 0.90152247, 0.98190864],
        "properties": { "magmom": 0.0 },
        "label": "F",
        "xyz": [3.733244048155192, 7.73176080427958, 9.29536365794145]
      },
      {
        "species": [{ "element": "F", "occu": 1 }],
        "abc": [0.24991655000000002, 0.09847753000000001, 0.51809136],
        "properties": { "magmom": 0.0 },
        "label": "F",
        "xyz": [1.244137728155192, 0.8445765157204197, 4.904578087058549]
      },
      {
        "species": [{ "element": "F", "occu": 1 }],
        "abc": [0.25008345, 0.40152247, 0.01809136],
        "properties": { "magmom": 0.0 },
        "label": "F",
        "xyz": [1.244968591844808, 3.443592144279581, 0.1712641720585488]
      },
      {
        "species": [{ "element": "F", "occu": 1 }],
        "abc": [0.75008345, 0.59847753, 0.48190864],
        "properties": { "magmom": 0.0 },
        "label": "F",
        "xyz": [3.7340749118448078, 5.13274517572042, 4.5620497429414515]
      },
      {
        "species": [{ "element": "F", "occu": 1 }],
        "abc": [0.25008345, 0.09847753000000001, 0.01809136],
        "properties": { "magmom": 0.0 },
        "label": "F",
        "xyz": [1.244968591844808, 0.8445765157204197, 0.1712641720585488]
      },
      {
        "species": [{ "element": "F", "occu": 1 }],
        "abc": [0.75008345, 0.90152247, 0.48190864],
        "properties": { "magmom": 0.0 },
        "label": "F",
        "xyz": [3.7340749118448078, 7.73176080427958, 4.5620497429414515]
      },
      {
        "species": [{ "element": "F", "occu": 1 }],
        "abc": [0.74991655, 0.59847753, 0.98190864],
        "properties": { "magmom": 0.0 },
        "label": "F",
        "xyz": [3.733244048155192, 5.13274517572042, 9.29536365794145]
      },
      {
        "species": [{ "element": "F", "occu": 1 }],
        "abc": [0.24991655000000002, 0.40152247, 0.51809136],
        "properties": { "magmom": 0.0 },
        "label": "F",
        "xyz": [1.244137728155192, 3.443592144279581, 4.904578087058549]
      },
      {
        "species": [{ "element": "F", "occu": 1 }],
        "abc": [0.06322708, 0.90103475, 0.76262399],
        "properties": { "magmom": 0.0 },
        "label": "F",
        "xyz": [0.3147578488462912, 7.7275779530418705, 7.219477487559642]
      },
      {
        "species": [{ "element": "F", "occu": 1 }],
        "abc": [0.56322708, 0.09896525, 0.73737601],
        "properties": { "magmom": 0.0 },
        "label": "F",
        "xyz": [2.803864168846291, 0.84875936695813, 6.980464257440358]
      },
      {
        "species": [{ "element": "F", "occu": 1 }],
        "abc": [0.93677292, 0.40103475, 0.23737601],
        "properties": { "magmom": 0.0 },
        "label": "F",
        "xyz": [4.6634547911537085, 3.4394092930418703, 2.2471503424403583]
      },
      {
        "species": [{ "element": "F", "occu": 1 }],
        "abc": [0.43677292, 0.59896525, 0.26262399000000003],
        "properties": { "magmom": 0.0 },
        "label": "F",
        "xyz": [2.1743484711537087, 5.13692802695813, 2.486163572559642]
      }
    ]
  },
  "task_ids": null,
  "uncorrected_energy_per_atom": null,
  "energy_per_atom": -8.472749478928572,
  "formation_energy_per_atom": -2.162264906071428,
  "energy_above_hull": 0.0,
  "is_stable": true,
  "equilibrium_reaction_energy_per_atom": null,
  "decomposes_to": null,
  "xas": null,
  "grain_boundaries": null,
  "band_gap": 4.3975,
  "cbm": null,
  "vbm": null,
  "efermi": -4.00975488,
  "is_gap_direct": null,
  "is_metal": null,
  "es_source_calc_id": null,
  "bandstructure": null,
  "dos": null,
  "dos_energy_up": null,
  "dos_energy_down": null,
  "is_magnetic": null,
  "ordering": null,
  "total_magnetization": 0.0,
  "total_magnetization_normalized_vol": null,
  "total_magnetization_normalized_formula_units": null,
  "num_magnetic_sites": null,
  "num_unique_magnetic_sites": null,
  "types_of_magnetic_species": null,
  "bulk_modulus": null,
  "shear_modulus": null,
  "universal_anisotropy": null,
  "homogeneous_poisson": null,
  "e_total": null,
  "e_ionic": null,
  "e_electronic": null,
  "n": null,
  "e_ij_max": null,
  "weighted_surface_energy_EV_PER_ANG2": null,
  "weighted_surface_energy": null,
  "weighted_work_function": null,
  "surface_anisotropy": null,
  "shape_factor": null,
  "has_reconstructed": null,
  "possible_species": null,
  "has_props": null,
  "theoretical": null,
  "database_IDs": null,
  "fields_not_requested": [
    "builder_meta",
    "nsites",
    "elements",
    "nelements",
    "composition",
    "composition_reduced",
    "chemsys",
    "symmetry",
    "property_name",
    "deprecated",
    "deprecation_reasons",
    "last_updated",
    "origins",
    "warnings",
    "task_ids",
    "uncorrected_energy_per_atom",
    "equilibrium_reaction_energy_per_atom",
    "decomposes_to",
    "xas",
    "grain_boundaries",
    "cbm",
    "vbm",
    "is_gap_direct",
    "is_metal",
    "es_source_calc_id",
    "bandstructure",
    "dos",
    "dos_energy_up",
    "dos_energy_down",
    "is_magnetic",
    "ordering",
    "total_magnetization_normalized_vol",
    "total_magnetization_normalized_formula_units",
    "num_magnetic_sites",
    "num_unique_magnetic_sites",
    "types_of_magnetic_species",
    "bulk_modulus",
    "shear_modulus",
    "universal_anisotropy",
    "homogeneous_poisson",
    "e_total",
    "e_ionic",
    "e_electronic",
    "n",
    "e_ij_max",
    "weighted_surface_energy_EV_PER_ANG2",
    "weighted_surface_energy",
    "weighted_work_function",
    "surface_anisotropy",
    "shape_factor",
    "has_reconstructed",
    "possible_species",
    "has_props",
    "theoretical",
    "database_IDs"
  ]
}
