{"builder_meta": null, "nsites": null, "elements": null, "nelements": null, "composition": null, "composition_reduced": null, "formula_pretty": "TeI", "formula_anonymous": "AB", "chemsys": null, "volume": 330.19365187694956, "density": 5.119597092881965, "density_atomic": 41.274206484618695, "symmetry": null, "property_name": null, "material_id": "mp-569766", "deprecated": null, "deprecation_reasons": null, "last_updated": null, "origins": null, "warnings": null, "structure": {"@module": "pymatgen.core.structure", "@class": "Structure", "charge": 0, "lattice": {"matrix": [[4.14086939, 0.00232159, 0.91756081], [2.04775596, 7.99263099, 0.58117149], [-0.03139821, -0.17518309, 9.96839477]], "pbc": [true, true, true], "a": 4.241311416869428, "b": 8.271228138239975, "c": 9.96998341288372, "alpha": 86.99092424232452, "beta": 77.68887136433439, "gamma": 75.08163196270304, "volume": 330.19365187694956}, "properties": {}, "sites": [{"species": [{"element": "Te", "occu": 1}], "abc": [0.69795396, 0.42274694, 0.17865708], "properties": {"magmom": -0.0}, "label": "Te", "xyz": [3.7502092420342197, 3.3491829571808904, 2.66702797178852]}, {"species": [{"element": "Te", "occu": 1}], "abc": [0.08310759, 0.677212599999999, 0.15385426], "properties": {"magmom": -0.0}, "label": "Te", "xyz": [1.7260730649798894, 5.385950690651871, 2.0035129241125413]}, {"species": [{"element": "Te", "occu": 1}], "abc": [0.91689241, 0.3227874, 0.84614574], "properties": {"magmom": -0.0}, "label": "Te", "xyz": [4.431154075020108, 2.433818799348121, 9.463614145887457]}, {"species": [{"element": "Te", "occu": 1}], "abc": [0.30204604, 0.57725306, 0.82134292], "properties": {"magmom": -0.0}, "label": "Te", "xyz": [2.40701789796578, 4.470586532819111, 8.800099098211481]}, {"species": [{"element": "I", "occu": 1}], "abc": [0.66670658, 0.86280227, 0.80725017], "properties": {"magmom": 0.0}, "label": "I", "xyz": [4.50220714956742, 6.756191401589784, 9.160168283118024]}, {"species": [{"element": "I", "occu": 1}], "abc": [0.1005218, 0.23066565, 0.57060445], "properties": {"magmom": 0.0}, "label": "I", "xyz": [0.8706786458544414, 1.7438985422054052, 5.9143015788517035]}, {"species": [{"element": "I", "occu": 1}], "abc": [0.8994782, 0.7693343500000001, 0.42939555], "properties": {"magmom": 0.0}, "label": "I", "xyz": [5.286548494145558, 6.075870947794595, 5.5528254911482975]}, {"species": [{"element": "I", "occu": 1}], "abc": [0.33329342, 0.13719773, 0.19274983], "properties": {"magmom": 0.0}, "label": "I", "xyz": [1.6550199904325802, 1.0635780884102157, 2.306958786881977]}]}, "task_ids": null, "uncorrected_energy_per_atom": null, "energy_per_atom": -2.605045511250001, "formation_energy_per_atom": -0.271386257083333, "energy_above_hull": 0.0, "is_stable": true, "equilibrium_reaction_energy_per_atom": null, "decomposes_to": null, "xas": null, "grain_boundaries": null, "band_gap": 0.7871, "cbm": null, "vbm": null, "efermi": 2.81203841, "is_gap_direct": null, "is_metal": null, "es_source_calc_id": null, "bandstructure": null, "dos": null, "dos_energy_up": null, "dos_energy_down": null, "is_magnetic": null, "ordering": null, "total_magnetization": 0.0, "total_magnetization_normalized_vol": null, "total_magnetization_normalized_formula_units": null, "num_magnetic_sites": null, "num_unique_magnetic_sites": null, "types_of_magnetic_species": null, "bulk_modulus": null, "shear_modulus": null, "universal_anisotropy": null, "homogeneous_poisson": null, "e_total": null, "e_ionic": null, "e_electronic": null, "n": null, "e_ij_max": null, "weighted_surface_energy_EV_PER_ANG2": null, "weighted_surface_energy": null, "weighted_work_function": null, "surface_anisotropy": null, "shape_factor": null, "has_reconstructed": null, "possible_species": null, "has_props": null, "theoretical": null, "database_IDs": null, "fields_not_requested": ["builder_meta", "nsites", "elements", "nelements", "composition", "composition_reduced", "chemsys", "symmetry", "property_name", "deprecated", "deprecation_reasons", "last_updated", "origins", "warnings", "task_ids", "uncorrected_energy_per_atom", "equilibrium_reaction_energy_per_atom", "decomposes_to", "xas", "grain_boundaries", "cbm", "vbm", "is_gap_direct", "is_metal", "es_source_calc_id", "bandstructure", "dos", "dos_energy_up", "dos_energy_down", "is_magnetic", "ordering", "total_magnetization_normalized_vol", "total_magnetization_normalized_formula_units", "num_magnetic_sites", "num_unique_magnetic_sites", "types_of_magnetic_species", "bulk_modulus", "shear_modulus", "universal_anisotropy", "homogeneous_poisson", "e_total", "e_ionic", "e_electronic", "n", "e_ij_max", "weighted_surface_energy_EV_PER_ANG2", "weighted_surface_energy", "weighted_work_function", "surface_anisotropy", "shape_factor", "has_reconstructed", "possible_species", "has_props", "theoretical", "database_IDs"]}