{
  "builder_meta": null,
  "nsites": null,
  "elements": null,
  "nelements": null,
  "composition": null,
  "composition_reduced": null,
  "formula_pretty": "TeI2",
  "formula_anonymous": "AB2",
  "chemsys": null,
  "volume": 328.00869225622375,
  "density": 3.861754033797121,
  "density_atomic": 54.66811537603729,
  "symmetry": null,
  "property_name": null,
  "material_id": "mp-862773",
  "deprecated": null,
  "deprecation_reasons": null,
  "last_updated": null,
  "origins": null,
  "warnings": null,
  "structure": {
    "@module": "pymatgen.core.structure",
    "@class": "Structure",
    "charge": 0,
    "lattice": {
      "matrix": [
        [8.862293, 0.0, 0.0],
        [0.0, 8.862293, 0.0],
        [0.0, 0.0, 4.176314]
      ],
      "pbc": [true, true, true],
      "a": 8.862293,
      "b": 8.862293,
      "c": 4.176314,
      "alpha": 90.0,
      "beta": 90.0,
      "gamma": 90.0,
      "volume": 328.00869225622375
    },
    "properties": {},
    "sites": [
      {
        "species": [{ "element": "Te", "occu": 1 }],
        "abc": [0.0, 0.0, 0.0],
        "properties": { "magmom": -0.0 },
        "label": "Te",
        "xyz": [0.0, 0.0, 0.0]
      },
      {
        "species": [{ "element": "Te", "occu": 1 }],
        "abc": [0.5, 0.5, 0.5],
        "properties": { "magmom": -0.0 },
        "label": "Te",
        "xyz": [4.4311465, 4.4311465, 2.088157]
      },
      {
        "species": [{ "element": "I", "occu": 1 }],
        "abc": [0.327706999999999, 0.327706999999999, 0.0],
        "properties": { "magmom": -0.0 },
        "label": "I",
        "xyz": [2.904235452150991, 2.904235452150991, 0.0]
      },
      {
        "species": [{ "element": "I", "occu": 1 }],
        "abc": [0.672292999999999, 0.672292999999999, 0.0],
        "properties": { "magmom": -0.0 },
        "label": "I",
        "xyz": [5.958057547848991, 5.958057547848991, 0.0]
      },
      {
        "species": [{ "element": "I", "occu": 1 }],
        "abc": [0.172293, 0.827707, 0.5],
        "properties": { "magmom": -0.0 },
        "label": "I",
        "xyz": [1.526911047849, 7.335381952150999, 2.088157]
      },
      {
        "species": [{ "element": "I", "occu": 1 }],
        "abc": [0.827707, 0.172293, 0.5],
        "properties": { "magmom": -0.0 },
        "label": "I",
        "xyz": [7.335381952150999, 1.526911047849, 2.088157]
      }
    ]
  },
  "task_ids": null,
  "uncorrected_energy_per_atom": null,
  "energy_per_atom": -2.351960275,
  "formation_energy_per_atom": -0.288183233888888,
  "energy_above_hull": 0.068623131944444,
  "is_stable": false,
  "equilibrium_reaction_energy_per_atom": null,
  "decomposes_to": null,
  "xas": null,
  "grain_boundaries": null,
  "band_gap": 0.7359,
  "cbm": null,
  "vbm": null,
  "efermi": 1.35280248,
  "is_gap_direct": null,
  "is_metal": null,
  "es_source_calc_id": null,
  "bandstructure": null,
  "dos": null,
  "dos_energy_up": null,
  "dos_energy_down": null,
  "is_magnetic": null,
  "ordering": null,
  "total_magnetization": 0.004506,
  "total_magnetization_normalized_vol": null,
  "total_magnetization_normalized_formula_units": null,
  "num_magnetic_sites": null,
  "num_unique_magnetic_sites": null,
  "types_of_magnetic_species": null,
  "bulk_modulus": null,
  "shear_modulus": null,
  "universal_anisotropy": null,
  "homogeneous_poisson": null,
  "e_total": null,
  "e_ionic": null,
  "e_electronic": null,
  "n": null,
  "e_ij_max": null,
  "weighted_surface_energy_EV_PER_ANG2": null,
  "weighted_surface_energy": null,
  "weighted_work_function": null,
  "surface_anisotropy": null,
  "shape_factor": null,
  "has_reconstructed": null,
  "possible_species": null,
  "has_props": null,
  "theoretical": null,
  "database_IDs": null,
  "fields_not_requested": [
    "builder_meta",
    "nsites",
    "elements",
    "nelements",
    "composition",
    "composition_reduced",
    "chemsys",
    "symmetry",
    "property_name",
    "deprecated",
    "deprecation_reasons",
    "last_updated",
    "origins",
    "warnings",
    "task_ids",
    "uncorrected_energy_per_atom",
    "equilibrium_reaction_energy_per_atom",
    "decomposes_to",
    "xas",
    "grain_boundaries",
    "cbm",
    "vbm",
    "is_gap_direct",
    "is_metal",
    "es_source_calc_id",
    "bandstructure",
    "dos",
    "dos_energy_up",
    "dos_energy_down",
    "is_magnetic",
    "ordering",
    "total_magnetization_normalized_vol",
    "total_magnetization_normalized_formula_units",
    "num_magnetic_sites",
    "num_unique_magnetic_sites",
    "types_of_magnetic_species",
    "bulk_modulus",
    "shear_modulus",
    "universal_anisotropy",
    "homogeneous_poisson",
    "e_total",
    "e_ionic",
    "e_electronic",
    "n",
    "e_ij_max",
    "weighted_surface_energy_EV_PER_ANG2",
    "weighted_surface_energy",
    "weighted_work_function",
    "surface_anisotropy",
    "shape_factor",
    "has_reconstructed",
    "possible_species",
    "has_props",
    "theoretical",
    "database_IDs"
  ]
}
