{
  "builder_meta": null,
  "nsites": null,
  "elements": null,
  "nelements": null,
  "composition": null,
  "composition_reduced": null,
  "formula_pretty": "TeI4",
  "formula_anonymous": "AB4",
  "chemsys": null,
  "volume": 3920.2003865394863,
  "density": 4.305102807150928,
  "density_atomic": 49.00250483174358,
  "symmetry": null,
  "property_name": null,
  "material_id": "mp-570884",
  "deprecated": null,
  "deprecation_reasons": null,
  "last_updated": null,
  "origins": null,
  "warnings": null,
  "structure": {
    "@module": "pymatgen.core.structure",
    "@class": "Structure",
    "charge": 0,
    "lattice": {
      "matrix": [
        [14.694891, 0.0, 0.0],
        [0.0, 15.217651, 0.0],
        [0.0, 0.0, 17.530499]
      ],
      "pbc": [true, true, true],
      "a": 14.694891,
      "b": 15.217651,
      "c": 17.530499,
      "alpha": 90.0,
      "beta": 90.0,
      "gamma": 90.0,
      "volume": 3920.2003865394863
    },
    "properties": {},
    "sites": [
      {
        "species": [{ "element": "Te", "occu": 1 }],
        "abc": [0.138203, 0.328409, 0.888004999999999],
        "properties": { "magmom": 0.0 },
        "label": "Te",
        "xyz": [2.0308780208729997, 4.997613547259, 15.567170764494982]
      },
      {
        "species": [{ "element": "Te", "occu": 1 }],
        "abc": [0.138203, 0.328409, 0.611995],
        "properties": { "magmom": 0.0 },
        "label": "Te",
        "xyz": [2.0308780208729997, 4.997613547259, 10.728577735504999]
      },
      {
        "species": [{ "element": "Te", "occu": 1 }],
        "abc": [0.135259, 0.061314999999999, 0.75],
        "properties": { "magmom": 0.0 },
        "label": "Te",
        "xyz": [1.9876162617689999, 0.9330702710649849, 13.14787425]
      },
      {
        "species": [{ "element": "Te", "occu": 1 }],
        "abc": [0.640493, 0.906042999999999, 0.75],
        "properties": { "magmom": 0.0 },
        "label": "Te",
        "xyz": [9.411974821263, 13.787846164992985, 13.14787425]
      },
      {
        "species": [{ "element": "Te", "occu": 1 }],
        "abc": [0.361797, 0.828409, 0.388005],
        "properties": { "magmom": 0.0 },
        "label": "Te",
        "xyz": [5.3165674791269995, 12.606439047258998, 6.801921264494999]
      },
      {
        "species": [{ "element": "Te", "occu": 1 }],
        "abc": [0.359506999999999, 0.093957, 0.25],
        "properties": { "magmom": 0.0 },
        "label": "Te",
        "xyz": [5.282916178736985, 1.429804835007, 4.38262475]
      },
      {
        "species": [{ "element": "Te", "occu": 1 }],
        "abc": [0.364741, 0.561315, 0.25],
        "properties": { "magmom": 0.0 },
        "label": "Te",
        "xyz": [5.359829238231, 8.541895771065, 4.38262475]
      },
      {
        "species": [{ "element": "Te", "occu": 1 }],
        "abc": [0.140493, 0.593957, 0.75],
        "properties": { "magmom": 0.0 },
        "label": "Te",
        "xyz": [2.064529321263, 9.038630335007, 13.14787425]
      },
      {
        "species": [{ "element": "Te", "occu": 1 }],
        "abc": [0.861796999999999, 0.671590999999999, 0.111995],
        "properties": { "magmom": 0.0 },
        "label": "Te",
        "xyz": [12.664012979126985, 10.220037452740986, 1.963328235505]
      },
      {
        "species": [{ "element": "Te", "occu": 1 }],
        "abc": [0.861796999999999, 0.671590999999999, 0.388005],
        "properties": { "magmom": 0.0 },
        "label": "Te",
        "xyz": [12.664012979126985, 10.220037452740986, 6.801921264494999]
      },
      {
        "species": [{ "element": "Te", "occu": 1 }],
        "abc": [0.638203, 0.171591, 0.888004999999999],
        "properties": { "magmom": 0.0 },
        "label": "Te",
        "xyz": [9.378323520873, 2.611211952741, 15.567170764494982]
      },
      {
        "species": [{ "element": "Te", "occu": 1 }],
        "abc": [0.859506999999999, 0.406043, 0.25],
        "properties": { "magmom": 0.0 },
        "label": "Te",
        "xyz": [12.630361678736985, 6.179020664993, 4.38262475]
      },
      {
        "species": [{ "element": "Te", "occu": 1 }],
        "abc": [0.638203, 0.171591, 0.611995],
        "properties": { "magmom": 0.0 },
        "label": "Te",
        "xyz": [9.378323520873, 2.611211952741, 10.728577735504999]
      },
      {
        "species": [{ "element": "Te", "occu": 1 }],
        "abc": [0.635259, 0.438685, 0.75],
        "properties": { "magmom": 0.0 },
        "label": "Te",
        "xyz": [9.335061761769, 6.6757552289349995, 13.14787425]
      },
      {
        "species": [{ "element": "Te", "occu": 1 }],
        "abc": [0.361797, 0.828409, 0.111995],
        "properties": { "magmom": 0.0 },
        "label": "Te",
        "xyz": [5.3165674791269995, 12.606439047258998, 1.963328235505]
      },
      {
        "species": [{ "element": "Te", "occu": 1 }],
        "abc": [0.864741, 0.938685, 0.25],
        "properties": { "magmom": 0.0 },
        "label": "Te",
        "xyz": [12.707274738231, 14.284580728935, 4.38262475]
      },
      {
        "species": [{ "element": "I", "occu": 1 }],
        "abc": [0.260574, 0.403464, 0.991575],
        "properties": { "magmom": -0.0 },
        "label": "I",
        "xyz": [3.8291065274339995, 6.1397743430639995, 17.382804545924998]
      },
      {
        "species": [{ "element": "I", "occu": 1 }],
        "abc": [0.479755999999999, 0.987157, 0.376123999999999],
        "properties": { "magmom": -0.001 },
        "label": "I",
        "xyz": [7.049962126595986, 15.022210708207, 6.5936414058759825]
      },
      {
        "species": [{ "element": "I", "occu": 1 }],
        "abc": [0.760574, 0.096536, 0.508425],
        "properties": { "magmom": -0.0 },
        "label": "I",
        "xyz": [11.176552027434, 1.4690511569359999, 8.912943954075]
      },
      {
        "species": [{ "element": "I", "occu": 1 }],
        "abc": [0.023542, 0.254162, 0.9981509999999991],
        "properties": { "magmom": -0.0 },
        "label": "I",
        "xyz": [0.345947123922, 3.867748613462, 17.498085107348984]
      },
      {
        "species": [{ "element": "I", "occu": 1 }],
        "abc": [0.24585, 0.665447999999999, 0.374907],
        "properties": { "magmom": -0.001 },
        "label": "I",
        "xyz": [3.6127389523500004, 10.126555422647986, 6.572306788592999]
      },
      {
        "species": [{ "element": "I", "occu": 1 }],
        "abc": [0.739425999999999, 0.596536, 0.008425],
        "properties": { "magmom": -0.0 },
        "label": "I",
        "xyz": [10.865784472565986, 9.077876656935999, 0.14769445407499998]
      },
      {
        "species": [{ "element": "I", "occu": 1 }],
        "abc": [0.252788, 0.164963, 0.367009],
        "properties": { "magmom": -0.0 },
        "label": "I",
        "xyz": [3.714692106108, 2.510349361913, 6.433850907490999]
      },
      {
        "species": [{ "element": "I", "occu": 1 }],
        "abc": [0.976457999999999, 0.745838, 0.001849],
        "properties": { "magmom": -0.0 },
        "label": "I",
        "xyz": [14.348943876077985, 11.349902386538, 0.032413892651]
      },
      {
        "species": [{ "element": "I", "occu": 1 }],
        "abc": [0.971227, 0.011021, 0.368824999999999],
        "properties": { "magmom": -0.0 },
        "label": "I",
        "xyz": [14.272074901257, 0.16771373167099998, 6.465686293674982]
      },
      {
        "species": [{ "element": "I", "occu": 1 }],
        "abc": [0.268655, 0.930214, 0.75],
        "properties": { "magmom": -0.0 },
        "label": "I",
        "xyz": [3.947855941605, 14.155672007314, 13.14787425]
      },
      {
        "species": [{ "element": "I", "occu": 1 }],
        "abc": [0.242822999999999, 0.912129, 0.25],
        "properties": { "magmom": -0.001 },
        "label": "I",
        "xyz": [3.5682575172929853, 13.880460788978999, 4.38262475]
      },
      {
        "species": [{ "element": "I", "occu": 1 }],
        "abc": [0.520243999999999, 0.012843, 0.876124],
        "properties": { "magmom": -0.001 },
        "label": "I",
        "xyz": [7.644928873403986, 0.19544029179300001, 15.358890905875999]
      },
      {
        "species": [{ "element": "I", "occu": 1 }],
        "abc": [0.523542, 0.245838, 0.9981509999999991],
        "properties": { "magmom": -0.0 },
        "label": "I",
        "xyz": [7.693392623922, 3.741076886538, 17.498085107348984]
      },
      {
        "species": [{ "element": "I", "occu": 1 }],
        "abc": [0.028773, 0.988978999999999, 0.868825],
        "properties": { "magmom": -0.0 },
        "label": "I",
        "xyz": [0.422816098743, 15.049937268328986, 15.230935793674998]
      },
      {
        "species": [{ "element": "I", "occu": 1 }],
        "abc": [0.479755999999999, 0.987157, 0.123876],
        "properties": { "magmom": -0.001 },
        "label": "I",
        "xyz": [7.049962126595986, 15.022210708207, 2.1716080941239997]
      },
      {
        "species": [{ "element": "I", "occu": 1 }],
        "abc": [0.976457999999999, 0.745838, 0.498150999999999],
        "properties": { "magmom": -0.0 },
        "label": "I",
        "xyz": [14.348943876077985, 11.349902386538, 8.732835607348981]
      },
      {
        "species": [{ "element": "I", "occu": 1 }],
        "abc": [0.47122699999999906, 0.488979, 0.368824999999999],
        "properties": { "magmom": -0.0 },
        "label": "I",
        "xyz": [6.924629401256986, 7.441111768329, 6.465686293674982]
      },
      {
        "species": [{ "element": "I", "occu": 1 }],
        "abc": [0.752788, 0.335037, 0.367009],
        "properties": { "magmom": -0.0 },
        "label": "I",
        "xyz": [11.062137606108001, 5.098476138086999, 6.433850907490999]
      },
      {
        "species": [{ "element": "I", "occu": 1 }],
        "abc": [0.247212, 0.664963, 0.867008999999999],
        "properties": { "magmom": -0.0 },
        "label": "I",
        "xyz": [3.632753393892, 10.119174861912999, 15.199100407490983]
      },
      {
        "species": [{ "element": "I", "occu": 1 }],
        "abc": [0.25415000000000004, 0.165447999999999, 0.625093],
        "properties": { "magmom": -0.001 },
        "label": "I",
        "xyz": [3.7347065476500005, 2.517729922647985, 10.958192211406999]
      },
      {
        "species": [{ "element": "I", "occu": 1 }],
        "abc": [0.239426, 0.903463999999999, 0.491575],
        "properties": { "magmom": -0.0 },
        "label": "I",
        "xyz": [3.518338972566, 13.748599843063985, 8.617555045924998]
      },
      {
        "species": [{ "element": "I", "occu": 1 }],
        "abc": [0.496855, 0.222692, 0.25],
        "properties": { "magmom": -0.0 },
        "label": "I",
        "xyz": [7.301230067805, 3.388849136492, 4.38262475]
      },
      {
        "species": [{ "element": "I", "occu": 1 }],
        "abc": [0.74585, 0.834552, 0.125092999999999],
        "properties": { "magmom": -0.001 },
        "label": "I",
        "xyz": [10.960184452350001, 12.699921077352, 2.1929427114069826]
      },
      {
        "species": [{ "element": "I", "occu": 1 }],
        "abc": [0.979756, 0.512842999999999, 0.376123999999999],
        "properties": { "magmom": -0.001 },
        "label": "I",
        "xyz": [14.397407626596, 7.804265791792986, 6.5936414058759825]
      },
      {
        "species": [{ "element": "I", "occu": 1 }],
        "abc": [0.516934, 0.257432, 0.75],
        "properties": { "magmom": -0.001 },
        "label": "I",
        "xyz": [7.596288784194, 3.9175103322319997, 13.14787425]
      },
      {
        "species": [{ "element": "I", "occu": 1 }],
        "abc": [0.7541500000000001, 0.334551999999999, 0.625093],
        "properties": { "magmom": -0.001 },
        "label": "I",
        "xyz": [11.082152047650002, 5.091095577351985, 10.958192211406999]
      },
      {
        "species": [{ "element": "I", "occu": 1 }],
        "abc": [0.016933999999999002, 0.242567999999999, 0.75],
        "properties": { "magmom": -0.001 },
        "label": "I",
        "xyz": [0.24884328419398533, 3.6913151677679847, 13.14787425]
      },
      {
        "species": [{ "element": "I", "occu": 1 }],
        "abc": [0.020243999999999002, 0.48715699999999906, 0.623876],
        "properties": { "magmom": -0.001 },
        "label": "I",
        "xyz": [0.29748337340398534, 7.413385208206986, 10.936857594124]
      },
      {
        "species": [{ "element": "I", "occu": 1 }],
        "abc": [0.742823, 0.587870999999999, 0.25],
        "properties": { "magmom": -0.001 },
        "label": "I",
        "xyz": [10.915703017293, 8.946015711020985, 4.38262475]
      },
      {
        "species": [{ "element": "I", "occu": 1 }],
        "abc": [0.768655, 0.569786, 0.75],
        "properties": { "magmom": -0.0 },
        "label": "I",
        "xyz": [11.295301441605, 8.670804492686, 13.14787425]
      },
      {
        "species": [{ "element": "I", "occu": 1 }],
        "abc": [0.520243999999999, 0.012843, 0.623876],
        "properties": { "magmom": -0.001 },
        "label": "I",
        "xyz": [7.644928873403986, 0.19544029179300001, 10.936857594124]
      },
      {
        "species": [{ "element": "I", "occu": 1 }],
        "abc": [0.028773, 0.988978999999999, 0.631174999999999],
        "properties": { "magmom": -0.0 },
        "label": "I",
        "xyz": [0.422816098743, 15.049937268328986, 11.064812706324982]
      },
      {
        "species": [{ "element": "I", "occu": 1 }],
        "abc": [0.983066, 0.757432, 0.25],
        "properties": { "magmom": -0.001 },
        "label": "I",
        "xyz": [14.446047715806, 11.526335832232, 4.38262475]
      },
      {
        "species": [{ "element": "I", "occu": 1 }],
        "abc": [0.231345, 0.430214, 0.25],
        "properties": { "magmom": -0.0 },
        "label": "I",
        "xyz": [3.3995895583949998, 6.546846507314, 4.38262475]
      },
      {
        "species": [{ "element": "I", "occu": 1 }],
        "abc": [0.996854999999999, 0.277308, 0.25],
        "properties": { "magmom": -0.0 },
        "label": "I",
        "xyz": [14.648675567804986, 4.219976363508, 4.38262475]
      },
      {
        "species": [{ "element": "I", "occu": 1 }],
        "abc": [0.503145, 0.777308, 0.75],
        "properties": { "magmom": -0.0 },
        "label": "I",
        "xyz": [7.393660932194999, 11.828801863508, 13.14787425]
      },
      {
        "species": [{ "element": "I", "occu": 1 }],
        "abc": [0.023542, 0.254162, 0.501849],
        "properties": { "magmom": -0.0 },
        "label": "I",
        "xyz": [0.345947123922, 3.867748613462, 8.797663392651]
      },
      {
        "species": [{ "element": "I", "occu": 1 }],
        "abc": [0.731344999999999, 0.069786, 0.25],
        "properties": { "magmom": -0.0 },
        "label": "I",
        "xyz": [10.747035058394985, 1.061978992686, 4.38262475]
      },
      {
        "species": [{ "element": "I", "occu": 1 }],
        "abc": [0.752788, 0.335037, 0.132991],
        "properties": { "magmom": -0.0 },
        "label": "I",
        "xyz": [11.062137606108001, 5.098476138086999, 2.3313985925089997]
      },
      {
        "species": [{ "element": "I", "occu": 1 }],
        "abc": [0.003145, 0.722692, 0.75],
        "properties": { "magmom": -0.0 },
        "label": "I",
        "xyz": [0.046215432194999996, 10.997674636492, 13.14787425]
      },
      {
        "species": [{ "element": "I", "occu": 1 }],
        "abc": [0.747212, 0.835036999999999, 0.867008999999999],
        "properties": { "magmom": -0.0 },
        "label": "I",
        "xyz": [10.980198893892, 12.707301638086985, 15.199100407490983]
      },
      {
        "species": [{ "element": "I", "occu": 1 }],
        "abc": [0.528772999999999, 0.511021, 0.868825],
        "properties": { "magmom": -0.0 },
        "label": "I",
        "xyz": [7.770261598742986, 7.776539231670999, 15.230935793674998]
      },
      {
        "species": [{ "element": "I", "occu": 1 }],
        "abc": [0.747212, 0.835036999999999, 0.632991],
        "properties": { "magmom": -0.0 },
        "label": "I",
        "xyz": [10.980198893892, 12.707301638086985, 11.096648092509]
      },
      {
        "species": [{ "element": "I", "occu": 1 }],
        "abc": [0.260574, 0.403464, 0.508425],
        "properties": { "magmom": -0.0 },
        "label": "I",
        "xyz": [3.8291065274339995, 6.1397743430639995, 8.912943954075]
      },
      {
        "species": [{ "element": "I", "occu": 1 }],
        "abc": [0.74585, 0.834552, 0.374907],
        "properties": { "magmom": -0.001 },
        "label": "I",
        "xyz": [10.960184452350001, 12.699921077352, 6.572306788592999]
      },
      {
        "species": [{ "element": "I", "occu": 1 }],
        "abc": [0.7541500000000001, 0.334551999999999, 0.874907],
        "properties": { "magmom": -0.001 },
        "label": "I",
        "xyz": [11.082152047650002, 5.091095577351985, 15.337556288593]
      },
      {
        "species": [{ "element": "I", "occu": 1 }],
        "abc": [0.971227, 0.011021, 0.13117499999999901],
        "properties": { "magmom": -0.0 },
        "label": "I",
        "xyz": [14.272074901257, 0.16771373167099998, 2.2995632063249825]
      },
      {
        "species": [{ "element": "I", "occu": 1 }],
        "abc": [0.239426, 0.903463999999999, 0.008425],
        "properties": { "magmom": -0.0 },
        "label": "I",
        "xyz": [3.518338972566, 13.748599843063985, 0.14769445407499998]
      },
      {
        "species": [{ "element": "I", "occu": 1 }],
        "abc": [0.252788, 0.164963, 0.132991],
        "properties": { "magmom": -0.0 },
        "label": "I",
        "xyz": [3.714692106108, 2.510349361913, 2.3313985925089997]
      },
      {
        "species": [{ "element": "I", "occu": 1 }],
        "abc": [0.25415000000000004, 0.165447999999999, 0.874907],
        "properties": { "magmom": -0.001 },
        "label": "I",
        "xyz": [3.7347065476500005, 2.517729922647985, 15.337556288593]
      },
      {
        "species": [{ "element": "I", "occu": 1 }],
        "abc": [0.739425999999999, 0.596536, 0.491575],
        "properties": { "magmom": -0.0 },
        "label": "I",
        "xyz": [10.865784472565986, 9.077876656935999, 8.617555045924998]
      },
      {
        "species": [{ "element": "I", "occu": 1 }],
        "abc": [0.979756, 0.512842999999999, 0.123876],
        "properties": { "magmom": -0.001 },
        "label": "I",
        "xyz": [14.397407626596, 7.804265791792986, 2.1716080941239997]
      },
      {
        "species": [{ "element": "I", "occu": 1 }],
        "abc": [0.476458, 0.754162, 0.498150999999999],
        "properties": { "magmom": -0.0 },
        "label": "I",
        "xyz": [7.001498376078, 11.476574113462, 8.732835607348981]
      },
      {
        "species": [{ "element": "I", "occu": 1 }],
        "abc": [0.020243999999999002, 0.48715699999999906, 0.876124],
        "properties": { "magmom": -0.001 },
        "label": "I",
        "xyz": [0.29748337340398534, 7.413385208206986, 15.358890905875999]
      },
      {
        "species": [{ "element": "I", "occu": 1 }],
        "abc": [0.24585, 0.665447999999999, 0.125092999999999],
        "properties": { "magmom": -0.001 },
        "label": "I",
        "xyz": [3.6127389523500004, 10.126555422647986, 2.1929427114069826]
      },
      {
        "species": [{ "element": "I", "occu": 1 }],
        "abc": [0.757177, 0.087870999999999, 0.75],
        "properties": { "magmom": -0.001 },
        "label": "I",
        "xyz": [11.126633482707, 1.3371902110209848, 13.14787425]
      },
      {
        "species": [{ "element": "I", "occu": 1 }],
        "abc": [0.476458, 0.754162, 0.001849],
        "properties": { "magmom": -0.0 },
        "label": "I",
        "xyz": [7.001498376078, 11.476574113462, 0.032413892651]
      },
      {
        "species": [{ "element": "I", "occu": 1 }],
        "abc": [0.760574, 0.096536, 0.991575],
        "properties": { "magmom": -0.0 },
        "label": "I",
        "xyz": [11.176552027434, 1.4690511569359999, 17.382804545924998]
      },
      {
        "species": [{ "element": "I", "occu": 1 }],
        "abc": [0.523542, 0.245838, 0.501849],
        "properties": { "magmom": -0.0 },
        "label": "I",
        "xyz": [7.693392623922, 3.741076886538, 8.797663392651]
      },
      {
        "species": [{ "element": "I", "occu": 1 }],
        "abc": [0.47122699999999906, 0.488979, 0.13117499999999901],
        "properties": { "magmom": -0.0 },
        "label": "I",
        "xyz": [6.924629401256986, 7.441111768329, 2.2995632063249825]
      },
      {
        "species": [{ "element": "I", "occu": 1 }],
        "abc": [0.247212, 0.664963, 0.632991],
        "properties": { "magmom": -0.0 },
        "label": "I",
        "xyz": [3.632753393892, 10.119174861912999, 11.096648092509]
      },
      {
        "species": [{ "element": "I", "occu": 1 }],
        "abc": [0.257177, 0.412128999999999, 0.75],
        "properties": { "magmom": -0.001 },
        "label": "I",
        "xyz": [3.779187982707, 6.2716352889789855, 13.14787425]
      },
      {
        "species": [{ "element": "I", "occu": 1 }],
        "abc": [0.528772999999999, 0.511021, 0.631174999999999],
        "properties": { "magmom": -0.0 },
        "label": "I",
        "xyz": [7.770261598742986, 7.776539231670999, 11.064812706324982]
      },
      {
        "species": [{ "element": "I", "occu": 1 }],
        "abc": [0.483066, 0.742568, 0.25],
        "properties": { "magmom": -0.001 },
        "label": "I",
        "xyz": [7.098602215806, 11.300140667768, 4.38262475]
      }
    ]
  },
  "task_ids": null,
  "uncorrected_energy_per_atom": null,
  "energy_per_atom": -2.2730137235,
  "formation_energy_per_atom": -0.425142452833333,
  "energy_above_hull": 0.0,
  "is_stable": true,
  "equilibrium_reaction_energy_per_atom": null,
  "decomposes_to": null,
  "xas": null,
  "grain_boundaries": null,
  "band_gap": 1.8562999999999992,
  "cbm": null,
  "vbm": null,
  "efermi": 1.92648886,
  "is_gap_direct": null,
  "is_metal": null,
  "es_source_calc_id": null,
  "bandstructure": null,
  "dos": null,
  "dos_energy_up": null,
  "dos_energy_down": null,
  "is_magnetic": null,
  "ordering": null,
  "total_magnetization": 0.414964499999999,
  "total_magnetization_normalized_vol": null,
  "total_magnetization_normalized_formula_units": null,
  "num_magnetic_sites": null,
  "num_unique_magnetic_sites": null,
  "types_of_magnetic_species": null,
  "bulk_modulus": null,
  "shear_modulus": null,
  "universal_anisotropy": null,
  "homogeneous_poisson": null,
  "e_total": null,
  "e_ionic": null,
  "e_electronic": null,
  "n": null,
  "e_ij_max": null,
  "weighted_surface_energy_EV_PER_ANG2": null,
  "weighted_surface_energy": null,
  "weighted_work_function": null,
  "surface_anisotropy": null,
  "shape_factor": null,
  "has_reconstructed": null,
  "possible_species": null,
  "has_props": null,
  "theoretical": null,
  "database_IDs": null,
  "fields_not_requested": [
    "builder_meta",
    "nsites",
    "elements",
    "nelements",
    "composition",
    "composition_reduced",
    "chemsys",
    "symmetry",
    "property_name",
    "deprecated",
    "deprecation_reasons",
    "last_updated",
    "origins",
    "warnings",
    "task_ids",
    "uncorrected_energy_per_atom",
    "equilibrium_reaction_energy_per_atom",
    "decomposes_to",
    "xas",
    "grain_boundaries",
    "cbm",
    "vbm",
    "is_gap_direct",
    "is_metal",
    "es_source_calc_id",
    "bandstructure",
    "dos",
    "dos_energy_up",
    "dos_energy_down",
    "is_magnetic",
    "ordering",
    "total_magnetization_normalized_vol",
    "total_magnetization_normalized_formula_units",
    "num_magnetic_sites",
    "num_unique_magnetic_sites",
    "types_of_magnetic_species",
    "bulk_modulus",
    "shear_modulus",
    "universal_anisotropy",
    "homogeneous_poisson",
    "e_total",
    "e_ionic",
    "e_electronic",
    "n",
    "e_ij_max",
    "weighted_surface_energy_EV_PER_ANG2",
    "weighted_surface_energy",
    "weighted_work_function",
    "surface_anisotropy",
    "shape_factor",
    "has_reconstructed",
    "possible_species",
    "has_props",
    "theoretical",
    "database_IDs"
  ]
}
