{"builder_meta": null, "nsites": null, "elements": null, "nelements": null, "composition": null, "composition_reduced": null, "formula_pretty": "TeI7", "formula_anonymous": "AB7", "chemsys": null, "volume": 964.9921873055199, "density": 3.496388091465917, "density_atomic": 60.312011706594994, "symmetry": null, "property_name": null, "material_id": "mp-725294", "deprecated": null, "deprecation_reasons": null, "last_updated": null, "origins": null, "warnings": null, "structure": {"@module": "pymatgen.core.structure", "@class": "Structure", "charge": 0, "lattice": {"matrix": [[12.738045, 0.0, 0.0], [0.0, 12.738045, 0.0], [0.0, 0.0, 5.947278]], "pbc": [true, true, true], "a": 12.738045, "b": 12.738045, "c": 5.947278, "alpha": 90.0, "beta": 90.0, "gamma": 90.0, "volume": 964.9921873055199}, "properties": {}, "sites": [{"species": [{"element": "Te", "occu": 1}], "abc": [0.5, 0.0, 0.911613], "properties": {"magmom": 0.001}, "label": "Te", "xyz": [6.3690225, 0.0, 5.421615939414]}, {"species": [{"element": "Te", "occu": 1}], "abc": [0.0, 0.5, 0.088387], "properties": {"magmom": -0.001}, "label": "Te", "xyz": [0.0, 6.3690225, 0.525662060586]}, {"species": [{"element": "I", "occu": 1}], "abc": [0.5, 0.233897, 0.903945], "properties": {"magmom": 0.001}, "label": "I", "xyz": [6.3690225, 2.9793905113649997, 5.37601221171]}, {"species": [{"element": "I", "occu": 1}], "abc": [0.5, 0.766103, 0.903945], "properties": {"magmom": 0.001}, "label": "I", "xyz": [6.3690225, 9.758654488634999, 5.37601221171]}, {"species": [{"element": "I", "occu": 1}], "abc": [0.733897, 0.0, 0.903945], "properties": {"magmom": 0.002}, "label": "I", "xyz": [9.348413011365, 0.0, 5.37601221171]}, {"species": [{"element": "I", "occu": 1}], "abc": [0.266103, 0.0, 0.903945], "properties": {"magmom": 0.002}, "label": "I", "xyz": [3.3896319886349997, 0.0, 5.37601221171]}, {"species": [{"element": "I", "occu": 1}], "abc": [0.0, 0.266103, 0.096055], "properties": {"magmom": -0.0}, "label": "I", "xyz": [0.0, 3.3896319886349997, 0.57126578829]}, {"species": [{"element": "I", "occu": 1}], "abc": [0.0, 0.733897, 0.096055], "properties": {"magmom": -0.0}, "label": "I", "xyz": [0.0, 9.348413011365, 0.57126578829]}, {"species": [{"element": "I", "occu": 1}], "abc": [0.766103, 0.5, 0.096055], "properties": {"magmom": -0.003}, "label": "I", "xyz": [9.758654488634999, 6.3690225, 0.57126578829]}, {"species": [{"element": "I", "occu": 1}], "abc": [0.233897, 0.5, 0.096055], "properties": {"magmom": -0.003}, "label": "I", "xyz": [2.9793905113649997, 6.3690225, 0.57126578829]}, {"species": [{"element": "I", "occu": 1}], "abc": [0.5, 0.0, 0.40792000000000006], "properties": {"magmom": -0.0}, "label": "I", "xyz": [6.3690225, 0.0, 2.4260136417600004]}, {"species": [{"element": "I", "occu": 1}], "abc": [0.0, 0.5, 0.59208], "properties": {"magmom": -0.0}, "label": "I", "xyz": [0.0, 6.3690225, 3.5212643582400003]}, {"species": [{"element": "I", "occu": 1}], "abc": [0.0, 0.0, 0.754602999999999], "properties": {"magmom": 0.003}, "label": "I", "xyz": [0.0, 0.0, 4.487833820633994]}, {"species": [{"element": "I", "occu": 1}], "abc": [0.5, 0.5, 0.754602999999999], "properties": {"magmom": -0.0}, "label": "I", "xyz": [6.3690225, 6.3690225, 4.487833820633994]}, {"species": [{"element": "I", "occu": 1}], "abc": [0.5, 0.5, 0.24539699999999903], "properties": {"magmom": -0.003}, "label": "I", "xyz": [6.3690225, 6.3690225, 1.4594441793659942]}, {"species": [{"element": "I", "occu": 1}], "abc": [0.0, 0.0, 0.24539699999999903], "properties": {"magmom": 0.0}, "label": "I", "xyz": [0.0, 0.0, 1.4594441793659942]}]}, "task_ids": null, "uncorrected_energy_per_atom": null, "energy_per_atom": -1.99403073625, "formation_energy_per_atom": -0.267606461458333, "energy_above_hull": 0.0, "is_stable": true, "equilibrium_reaction_energy_per_atom": null, "decomposes_to": null, "xas": null, "grain_boundaries": null, "band_gap": 0.0, "cbm": null, "vbm": null, "efermi": -0.33188423, "is_gap_direct": null, "is_metal": null, "es_source_calc_id": null, "bandstructure": null, "dos": null, "dos_energy_up": null, "dos_energy_down": null, "is_magnetic": null, "ordering": null, "total_magnetization": 0.003306099999999, "total_magnetization_normalized_vol": null, "total_magnetization_normalized_formula_units": null, "num_magnetic_sites": null, "num_unique_magnetic_sites": null, "types_of_magnetic_species": null, "bulk_modulus": null, "shear_modulus": null, "universal_anisotropy": null, "homogeneous_poisson": null, "e_total": null, "e_ionic": null, "e_electronic": null, "n": null, "e_ij_max": null, "weighted_surface_energy_EV_PER_ANG2": null, "weighted_surface_energy": null, "weighted_work_function": null, "surface_anisotropy": null, "shape_factor": null, "has_reconstructed": null, "possible_species": null, "has_props": null, "theoretical": null, "database_IDs": null, "fields_not_requested": ["builder_meta", "nsites", "elements", "nelements", "composition", "composition_reduced", "chemsys", "symmetry", "property_name", "deprecated", "deprecation_reasons", "last_updated", "origins", "warnings", "task_ids", "uncorrected_energy_per_atom", "equilibrium_reaction_energy_per_atom", "decomposes_to", "xas", "grain_boundaries", "cbm", "vbm", "is_gap_direct", "is_metal", "es_source_calc_id", "bandstructure", "dos", "dos_energy_up", "dos_energy_down", "is_magnetic", "ordering", "total_magnetization_normalized_vol", "total_magnetization_normalized_formula_units", "num_magnetic_sites", "num_unique_magnetic_sites", "types_of_magnetic_species", "bulk_modulus", "shear_modulus", "universal_anisotropy", "homogeneous_poisson", "e_total", "e_ionic", "e_electronic", "n", "e_ij_max", "weighted_surface_energy_EV_PER_ANG2", "weighted_surface_energy", "weighted_work_function", "surface_anisotropy", "shape_factor", "has_reconstructed", "possible_species", "has_props", "theoretical", "database_IDs"]}