{"builder_meta": null, "nsites": null, "elements": null, "nelements": null, "composition": null, "composition_reduced": null, "formula_pretty": "TeMo6", "formula_anonymous": "AB6", "chemsys": null, "volume": 254.62227679986563, "density": 9.172469179620501, "density_atomic": 18.187305485704687, "symmetry": null, "property_name": null, "material_id": "mp-1179059", "deprecated": null, "deprecation_reasons": null, "last_updated": null, "origins": null, "warnings": null, "structure": {"@module": "pymatgen.core.structure", "@class": "Structure", "charge": 0, "lattice": {"matrix": [[2.679329, -8.902752, 0.0], [2.679329, 8.902752, 0.0], [0.0, 0.0, 5.337232]], "pbc": [true, true, true], "a": 9.297192966898395, "b": 9.297192966898395, "c": 5.337232, "alpha": 90.0, "beta": 90.0, "gamma": 146.50112390268242, "volume": 254.62227679986563}, "properties": {}, "sites": [{"species": [{"element": "Te", "occu": 1}], "abc": [0.0, 0.0, 0.0], "properties": {"magmom": 0.0}, "label": "Te", "xyz": [0.0, 0.0, 0.0]}, {"species": [{"element": "Te", "occu": 1}], "abc": [0.5, 0.5, 0.5], "properties": {"magmom": 0.0}, "label": "Te", "xyz": [2.679329, 0.0, 2.668616]}, {"species": [{"element": "Mo", "occu": 1}], "abc": [0.250851, 0.749149, 0.0], "properties": {"magmom": -0.001}, "label": "Mo", "xyz": [2.679329, 4.436223516096, 0.0]}, {"species": [{"element": "Mo", "occu": 1}], "abc": [0.249148999999999, 0.750850999999999, 0.5], "properties": {"magmom": -0.001}, "label": "Mo", "xyz": [2.6793289999999947, 4.466528483904, 2.668616]}, {"species": [{"element": "Mo", "occu": 1}], "abc": [0.749149, 0.250851, 0.0], "properties": {"magmom": -0.001}, "label": "Mo", "xyz": [2.679329, -4.436223516096, 0.0]}, {"species": [{"element": "Mo", "occu": 1}], "abc": [0.750850999999999, 0.249148999999999, 0.5], "properties": {"magmom": -0.001}, "label": "Mo", "xyz": [2.6793289999999947, -4.466528483904, 2.668616]}, {"species": [{"element": "Mo", "occu": 1}], "abc": [0.301876, 0.050031, 0.261612], "properties": {"magmom": -0.0}, "label": "Mo", "xyz": [0.942874630403, -2.2421135774399996, 1.3962839379840002]}, {"species": [{"element": "Mo", "occu": 1}], "abc": [0.550030999999999, 0.801875999999999, 0.238388], "properties": {"magmom": -0.0}, "label": "Mo", "xyz": [3.6222036304029954, 2.2421135774400005, 1.272332062016]}, {"species": [{"element": "Mo", "occu": 1}], "abc": [0.198124, 0.449968999999999, 0.761612], "properties": {"magmom": -0.0}, "label": "Mo", "xyz": [1.7364543695969974, 2.2421135774399907, 4.064899937984]}, {"species": [{"element": "Mo", "occu": 1}], "abc": [0.949969, 0.698124, 0.738387999999999], "properties": {"magmom": -0.0}, "label": "Mo", "xyz": [4.415783369597, -2.2421135774400005, 3.940948062015995]}, {"species": [{"element": "Mo", "occu": 1}], "abc": [0.698124, 0.949969, 0.738387999999999], "properties": {"magmom": -0.0}, "label": "Mo", "xyz": [4.415783369597, 2.2421135774400005, 3.940948062015995]}, {"species": [{"element": "Mo", "occu": 1}], "abc": [0.449968999999999, 0.198124, 0.761612], "properties": {"magmom": -0.0}, "label": "Mo", "xyz": [1.7364543695969974, -2.2421135774399907, 4.064899937984]}, {"species": [{"element": "Mo", "occu": 1}], "abc": [0.801875999999999, 0.550030999999999, 0.238388], "properties": {"magmom": -0.0}, "label": "Mo", "xyz": [3.6222036304029954, -2.2421135774400005, 1.272332062016]}, {"species": [{"element": "Mo", "occu": 1}], "abc": [0.050031, 0.301876, 0.261612], "properties": {"magmom": -0.0}, "label": "Mo", "xyz": [0.942874630403, 2.2421135774399996, 1.3962839379840002]}]}, "task_ids": null, "uncorrected_energy_per_atom": null, "energy_per_atom": -25.585115368214286, "formation_energy_per_atom": 0.39332762464285204, "energy_above_hull": 0.46894809571428503, "is_stable": false, "equilibrium_reaction_energy_per_atom": null, "decomposes_to": null, "xas": null, "grain_boundaries": null, "band_gap": 0.0, "cbm": null, "vbm": null, "efermi": 8.07837038, "is_gap_direct": null, "is_metal": null, "es_source_calc_id": null, "bandstructure": null, "dos": null, "dos_energy_up": null, "dos_energy_down": null, "is_magnetic": null, "ordering": null, "total_magnetization": 0.0074737, "total_magnetization_normalized_vol": null, "total_magnetization_normalized_formula_units": null, "num_magnetic_sites": null, "num_unique_magnetic_sites": null, "types_of_magnetic_species": null, "bulk_modulus": null, "shear_modulus": null, "universal_anisotropy": null, "homogeneous_poisson": null, "e_total": null, "e_ionic": null, "e_electronic": null, "n": null, "e_ij_max": null, "weighted_surface_energy_EV_PER_ANG2": null, "weighted_surface_energy": null, "weighted_work_function": null, "surface_anisotropy": null, "shape_factor": null, "has_reconstructed": null, "possible_species": null, "has_props": null, "theoretical": null, "database_IDs": null, "fields_not_requested": ["builder_meta", "nsites", "elements", "nelements", "composition", "composition_reduced", "chemsys", "symmetry", "property_name", "deprecated", "deprecation_reasons", "last_updated", "origins", "warnings", "task_ids", "uncorrected_energy_per_atom", "equilibrium_reaction_energy_per_atom", "decomposes_to", "xas", "grain_boundaries", "cbm", "vbm", "is_gap_direct", "is_metal", "es_source_calc_id", "bandstructure", "dos", "dos_energy_up", "dos_energy_down", "is_magnetic", "ordering", "total_magnetization_normalized_vol", "total_magnetization_normalized_formula_units", "num_magnetic_sites", "num_unique_magnetic_sites", "types_of_magnetic_species", "bulk_modulus", "shear_modulus", "universal_anisotropy", "homogeneous_poisson", "e_total", "e_ionic", "e_electronic", "n", "e_ij_max", "weighted_surface_energy_EV_PER_ANG2", "weighted_surface_energy", "weighted_work_function", "surface_anisotropy", "shape_factor", "has_reconstructed", "possible_species", "has_props", "theoretical", "database_IDs"]}