{
  "builder_meta": null,
  "nsites": null,
  "elements": null,
  "nelements": null,
  "composition": null,
  "composition_reduced": null,
  "formula_pretty": "TeN2",
  "formula_anonymous": "AB2",
  "chemsys": null,
  "volume": 82.71088342573132,
  "density": 6.248322331570299,
  "density_atomic": 13.785147237621887,
  "symmetry": null,
  "property_name": null,
  "material_id": "mp-1445439",
  "deprecated": null,
  "deprecation_reasons": null,
  "last_updated": null,
  "origins": null,
  "warnings": null,
  "structure": {
    "@module": "pymatgen.core.structure",
    "@class": "Structure",
    "charge": 0,
    "lattice": {
      "matrix": [
        [2.019187, 5.451038, 0.0],
        [-2.019187, 5.451038, 0.0],
        [0.0, 1.475455999999999, 3.7573090000000002]
      ],
      "pbc": [true, true, true],
      "a": 5.812996767452481,
      "b": 5.812996767452481,
      "c": 4.036624992418418,
      "alpha": 69.95503385732611,
      "beta": 69.95503385732611,
      "gamma": 40.6515243208042,
      "volume": 82.71088342573134
    },
    "properties": {},
    "sites": [
      {
        "species": [{ "element": "Te", "occu": 1 }],
        "abc": [0.625217999999999, 0.625217999999999, 0.1257],
        "properties": { "magmom": -0.0 },
        "label": "Te",
        "xyz": [0.0, 7.001638971767989, 0.47229374130000007]
      },
      {
        "species": [{ "element": "Te", "occu": 1 }],
        "abc": [0.374782, 0.374782, 0.8743000000000001],
        "properties": { "magmom": -0.0 },
        "label": "Te",
        "xyz": [0.0, 5.375893028231999, 3.2850152587000006]
      },
      {
        "species": [{ "element": "N", "occu": 1 }],
        "abc": [0.826180999999999, 0.826180999999999, 0.910126999999999],
        "properties": { "magmom": 0.0 },
        "label": "N",
        "xyz": [0.0, 10.349940394667987, 3.4196283682429964]
      },
      {
        "species": [{ "element": "N", "occu": 1 }],
        "abc": [0.173819, 0.173819, 0.089873],
        "properties": { "magmom": 0.0 },
        "label": "N",
        "xyz": [0.0, 2.027591605332, 0.337680631757]
      },
      {
        "species": [{ "element": "N", "occu": 1 }],
        "abc": [0.576087, 0.576087, 0.675222],
        "properties": { "magmom": 0.0 },
        "label": "N",
        "xyz": [0.0, 7.276804607843999, 2.5370176975980003]
      },
      {
        "species": [{ "element": "N", "occu": 1 }],
        "abc": [0.423913, 0.423913, 0.324778],
        "properties": { "magmom": 0.0 },
        "label": "N",
        "xyz": [0.0, 5.100727392155999, 1.2202913024020001]
      }
    ]
  },
  "task_ids": null,
  "uncorrected_energy_per_atom": null,
  "energy_per_atom": -13.467481946388888,
  "formation_energy_per_atom": 1.090759937777778,
  "energy_above_hull": 1.090759937777779,
  "is_stable": false,
  "equilibrium_reaction_energy_per_atom": null,
  "decomposes_to": null,
  "xas": null,
  "grain_boundaries": null,
  "band_gap": 0.0,
  "cbm": null,
  "vbm": null,
  "efermi": 6.57943366,
  "is_gap_direct": null,
  "is_metal": null,
  "es_source_calc_id": null,
  "bandstructure": null,
  "dos": null,
  "dos_energy_up": null,
  "dos_energy_down": null,
  "is_magnetic": null,
  "ordering": null,
  "total_magnetization": 0.00014319999999900002,
  "total_magnetization_normalized_vol": null,
  "total_magnetization_normalized_formula_units": null,
  "num_magnetic_sites": null,
  "num_unique_magnetic_sites": null,
  "types_of_magnetic_species": null,
  "bulk_modulus": null,
  "shear_modulus": null,
  "universal_anisotropy": null,
  "homogeneous_poisson": null,
  "e_total": null,
  "e_ionic": null,
  "e_electronic": null,
  "n": null,
  "e_ij_max": null,
  "weighted_surface_energy_EV_PER_ANG2": null,
  "weighted_surface_energy": null,
  "weighted_work_function": null,
  "surface_anisotropy": null,
  "shape_factor": null,
  "has_reconstructed": null,
  "possible_species": null,
  "has_props": null,
  "theoretical": null,
  "database_IDs": null,
  "fields_not_requested": [
    "builder_meta",
    "nsites",
    "elements",
    "nelements",
    "composition",
    "composition_reduced",
    "chemsys",
    "symmetry",
    "property_name",
    "deprecated",
    "deprecation_reasons",
    "last_updated",
    "origins",
    "warnings",
    "task_ids",
    "uncorrected_energy_per_atom",
    "equilibrium_reaction_energy_per_atom",
    "decomposes_to",
    "xas",
    "grain_boundaries",
    "cbm",
    "vbm",
    "is_gap_direct",
    "is_metal",
    "es_source_calc_id",
    "bandstructure",
    "dos",
    "dos_energy_up",
    "dos_energy_down",
    "is_magnetic",
    "ordering",
    "total_magnetization_normalized_vol",
    "total_magnetization_normalized_formula_units",
    "num_magnetic_sites",
    "num_unique_magnetic_sites",
    "types_of_magnetic_species",
    "bulk_modulus",
    "shear_modulus",
    "universal_anisotropy",
    "homogeneous_poisson",
    "e_total",
    "e_ionic",
    "e_electronic",
    "n",
    "e_ij_max",
    "weighted_surface_energy_EV_PER_ANG2",
    "weighted_surface_energy",
    "weighted_work_function",
    "surface_anisotropy",
    "shape_factor",
    "has_reconstructed",
    "possible_species",
    "has_props",
    "theoretical",
    "database_IDs"
  ]
}
