{"builder_meta": null, "nsites": null, "elements": null, "nelements": null, "composition": null, "composition_reduced": null, "formula_pretty": "TeO2", "formula_anonymous": "AB2", "chemsys": null, "volume": 187.38091447094357, "density": 5.657354018806982, "density_atomic": 15.615076205911963, "symmetry": null, "property_name": null, "material_id": "mp-8377", "deprecated": null, "deprecation_reasons": null, "last_updated": null, "origins": null, "warnings": null, "structure": {"@module": "pymatgen.core.structure", "@class": "Structure", "charge": 0, "lattice": {"matrix": [[4.40728137, 0.0, 0.0], [0.0, 4.87095789, 0.0], [0.0, 0.0, 8.72851176]], "pbc": [true, true, true], "a": 4.40728137, "b": 4.87095789, "c": 8.72851176, "alpha": 90.0, "beta": 90.0, "gamma": 90.0, "volume": 187.38091447094357}, "properties": {}, "sites": [{"species": [{"element": "Te", "occu": 1}], "abc": [0.37677337, 0.02985562, 0.60227173], "properties": {"magmom": 0.0}, "label": "Te", "xyz": [1.6605462543131169, 0.14542546779984178, 5.256935878020545]}, {"species": [{"element": "Te", "occu": 1}], "abc": [0.87677337, 0.47014438000000003, 0.39772827], "properties": {"magmom": 0.0}, "label": "Te", "xyz": [3.8641869393131167, 2.2900534772001584, 3.4715758819794553]}, {"species": [{"element": "Te", "occu": 1}], "abc": [0.62322663, 0.52985562, 0.89772827], "properties": {"magmom": 0.0}, "label": "Te", "xyz": [2.746735115686883, 2.5809044127998413, 7.835831761979455]}, {"species": [{"element": "Te", "occu": 1}], "abc": [0.12322663, 0.97014438, 0.10227173], "properties": {"magmom": 0.0}, "label": "Te", "xyz": [0.5430944306868831, 4.725532422200158, 0.8926799980205449]}, {"species": [{"element": "O", "occu": 1}], "abc": [0.77162367, 0.14245928, 0.53909558], "properties": {"magmom": -0.0}, "label": "O", "xyz": [3.400762625442028, 0.6939131539197191, 4.705502109794021]}, {"species": [{"element": "O", "occu": 1}], "abc": [0.27162367, 0.35754072000000003, 0.46090442000000004], "properties": {"magmom": -0.0}, "label": "O", "xyz": [1.1971219404420277, 1.7415657910802809, 4.02300965020598]}, {"species": [{"element": "O", "occu": 1}], "abc": [0.22837633000000002, 0.64245928, 0.96090442], "properties": {"magmom": -0.0}, "label": "O", "xyz": [1.0065187445579722, 3.129392098919719, 8.38726553020598]}, {"species": [{"element": "O", "occu": 1}], "abc": [0.72837633, 0.85754072, 0.03909558], "properties": {"magmom": -0.0}, "label": "O", "xyz": [3.210159429557972, 4.177044736080281, 0.3412462297940208]}, {"species": [{"element": "O", "occu": 1}], "abc": [0.171946699999999, 0.75738133, 0.27736095], "properties": {"magmom": -0.0}, "label": "O", "xyz": [0.7578174875429746, 3.689172565102193, 2.420948313839772]}, {"species": [{"element": "O", "occu": 1}], "abc": [0.6719467, 0.74261867, 0.7226390500000001], "properties": {"magmom": -0.0}, "label": "O", "xyz": [2.961458172542979, 3.6172642698978064, 6.307563446160229]}, {"species": [{"element": "O", "occu": 1}], "abc": [0.8280533, 0.25738133, 0.22263905], "properties": {"magmom": -0.0}, "label": "O", "xyz": [3.6494638824570207, 1.2536936201021938, 1.943307566160228]}, {"species": [{"element": "O", "occu": 1}], "abc": [0.3280533, 0.24261867, 0.77736095], "properties": {"magmom": -0.0}, "label": "O", "xyz": [1.4458231974570208, 1.1817853248978063, 6.785204193839772]}]}, "task_ids": null, "uncorrected_energy_per_atom": null, "energy_per_atom": -5.841469304999998, "formation_energy_per_atom": -1.4950600038888862, "energy_above_hull": 0.0, "is_stable": true, "equilibrium_reaction_energy_per_atom": null, "decomposes_to": null, "xas": null, "grain_boundaries": null, "band_gap": 3.0604, "cbm": null, "vbm": null, "efermi": 3.53848789, "is_gap_direct": null, "is_metal": null, "es_source_calc_id": null, "bandstructure": null, "dos": null, "dos_energy_up": null, "dos_energy_down": null, "is_magnetic": null, "ordering": null, "total_magnetization": 0.0, "total_magnetization_normalized_vol": null, "total_magnetization_normalized_formula_units": null, "num_magnetic_sites": null, "num_unique_magnetic_sites": null, "types_of_magnetic_species": null, "bulk_modulus": null, "shear_modulus": null, "universal_anisotropy": null, "homogeneous_poisson": null, "e_total": null, "e_ionic": null, "e_electronic": null, "n": null, "e_ij_max": null, "weighted_surface_energy_EV_PER_ANG2": null, "weighted_surface_energy": null, "weighted_work_function": null, "surface_anisotropy": null, "shape_factor": null, "has_reconstructed": null, "possible_species": null, "has_props": null, "theoretical": null, "database_IDs": null, "fields_not_requested": ["builder_meta", "nsites", "elements", "nelements", "composition", "composition_reduced", "chemsys", "symmetry", "property_name", "deprecated", "deprecation_reasons", "last_updated", "origins", "warnings", "task_ids", "uncorrected_energy_per_atom", "equilibrium_reaction_energy_per_atom", "decomposes_to", "xas", "grain_boundaries", "cbm", "vbm", "is_gap_direct", "is_metal", "es_source_calc_id", "bandstructure", "dos", "dos_energy_up", "dos_energy_down", "is_magnetic", "ordering", "total_magnetization_normalized_vol", "total_magnetization_normalized_formula_units", "num_magnetic_sites", "num_unique_magnetic_sites", "types_of_magnetic_species", "bulk_modulus", "shear_modulus", "universal_anisotropy", "homogeneous_poisson", "e_total", "e_ionic", "e_electronic", "n", "e_ij_max", "weighted_surface_energy_EV_PER_ANG2", "weighted_surface_energy", "weighted_work_function", "surface_anisotropy", "shape_factor", "has_reconstructed", "possible_species", "has_props", "theoretical", "database_IDs"]}