{
  "builder_meta": null,
  "nsites": null,
  "elements": null,
  "nelements": null,
  "composition": null,
  "composition_reduced": null,
  "formula_pretty": "TeO3",
  "formula_anonymous": "AB3",
  "chemsys": null,
  "volume": 222.12271245320855,
  "density": 5.250929414722769,
  "density_atomic": 13.882669528325534,
  "symmetry": null,
  "property_name": null,
  "material_id": "mp-1101301",
  "deprecated": null,
  "deprecation_reasons": null,
  "last_updated": null,
  "origins": null,
  "warnings": null,
  "structure": {
    "@module": "pymatgen.core.structure",
    "@class": "Structure",
    "charge": 0,
    "lattice": {
      "matrix": [
        [2.58236177, 4.47419041, -0.10715199],
        [-2.58236177, 4.47419041, 0.10715199],
        [-1.49337464, 0.0, 9.67435674]
      ],
      "pbc": [true, true, true],
      "a": 5.167054643126436,
      "b": 5.167054643126436,
      "c": 9.788939991039815,
      "alpha": 84.44857866470069,
      "beta": 95.55142133529931,
      "gamma": 60.02705853309687,
      "volume": 222.12271245320855
    },
    "properties": {},
    "sites": [
      {
        "species": [{ "element": "Te", "occu": 1 }],
        "abc": [0.16643181, 0.6664705, 0.49995098],
        "properties": { "magmom": -0.0 },
        "label": "Te",
        "xyz": [-2.037894911352028, 3.7265635278688474, 4.890284273743099]
      },
      {
        "species": [{ "element": "Te", "occu": 1 }],
        "abc": [0.3335295, 0.83356819, 0.99995098],
        "properties": { "magmom": -0.0 },
        "label": "Te",
        "xyz": [-2.7845822313520285, 5.221817292131153, 9.727462643743099]
      },
      {
        "species": [{ "element": "Te", "occu": 1 }],
        "abc": [0.6664705, 0.16643181, 4.9020000000000015e-5],
        "properties": { "magmom": -0.0 },
        "label": "Te",
        "xyz": [1.2912075913520282, 3.7265635278688474, -0.053105903743098294]
      },
      {
        "species": [{ "element": "Te", "occu": 1 }],
        "abc": [0.83356819, 0.3335295, 0.50004902],
        "properties": { "magmom": -0.0 },
        "label": "Te",
        "xyz": [0.5445202713520285, 5.221817292131153, 4.784072466256902]
      },
      {
        "species": [{ "element": "O", "occu": 1 }],
        "abc": [0.16222571, 0.95875116, 0.61214979],
        "properties": { "magmom": 0.0 },
        "label": "O",
        "xyz": [-2.9710858431793725, 5.015463961585817, 6.00750473382923]
      },
      {
        "species": [{ "element": "O", "occu": 1 }],
        "abc": [0.57844268, 0.92156604, 0.8871808],
        "properties": { "magmom": 0.0 },
        "label": "O",
        "xyz": [-2.210961955072859, 6.711324629940375, 8.619669902918078]
      },
      {
        "species": [{ "element": "O", "occu": 1 }],
        "abc": [0.33745869, 0.54108948, 0.88799262],
        "properties": { "magmom": 0.0 },
        "label": "O",
        "xyz": [-1.8519540265060552, 3.9307917969370503, 8.61257683274103]
      },
      {
        "species": [{ "element": "O", "occu": 1 }],
        "abc": [0.04124884, 0.83777429, 0.11214979],
        "properties": { "magmom": 0.0 },
        "label": "O",
        "xyz": [-2.2243985231793717, 3.932916858414184, 1.1703263638292303]
      },
      {
        "species": [{ "element": "O", "occu": 1 }],
        "abc": [0.07843396, 0.42155732, 0.3871808],
        "properties": { "magmom": 0.0 },
        "label": "O",
        "xyz": [-1.4642746350728593, 2.237056190059625, 3.7824915329180784]
      },
      {
        "species": [{ "element": "O", "occu": 1 }],
        "abc": [0.45891052, 0.66254131, 0.38799262],
        "properties": { "magmom": 0.0 },
        "label": "O",
        "xyz": [-1.1052667065060553, 5.017589023062951, 3.7753984627410313]
      },
      {
        "species": [{ "element": "O", "occu": 1 }],
        "abc": [0.54108948, 0.33745869, 0.61200738],
        "properties": { "magmom": 0.0 },
        "label": "O",
        "xyz": [-0.3881079334939449, 3.9307917969370503, 5.898958277258969]
      },
      {
        "species": [{ "element": "O", "occu": 1 }],
        "abc": [0.92156604, 0.57844268, 0.6128192],
        "properties": { "magmom": 0.0 },
        "label": "O",
        "xyz": [-0.02910000492714071, 6.711324629940375, 5.8918652070819215]
      },
      {
        "species": [{ "element": "O", "occu": 1 }],
        "abc": [0.95875116, 0.16222571, 0.88785021],
        "properties": { "magmom": 0.0 },
        "label": "O",
        "xyz": [0.7310238831793723, 5.015463961585817, 8.504030376170771]
      },
      {
        "species": [{ "element": "O", "occu": 1 }],
        "abc": [0.66254131, 0.45891052, 0.11200738],
        "properties": { "magmom": 0.0 },
        "label": "O",
        "xyz": [0.35857938650605525, 5.017589023062951, 1.0617799072589693]
      },
      {
        "species": [{ "element": "O", "occu": 1 }],
        "abc": [0.42155732, 0.07843396, 0.1128192],
        "properties": { "magmom": 0.0 },
        "label": "O",
        "xyz": [0.7175873150728593, 2.237056190059625, 1.0546868370819216]
      },
      {
        "species": [{ "element": "O", "occu": 1 }],
        "abc": [0.83777429, 0.04124884, 0.38785021000000003],
        "properties": { "magmom": 0.0 },
        "label": "O",
        "xyz": [1.4777112031793718, 3.932916858414184, 3.66685200617077]
      }
    ]
  },
  "task_ids": null,
  "uncorrected_energy_per_atom": null,
  "energy_per_atom": -5.83847837125,
  "formation_energy_per_atom": -1.341681144166666,
  "energy_above_hull": 0.0,
  "is_stable": true,
  "equilibrium_reaction_energy_per_atom": null,
  "decomposes_to": null,
  "xas": null,
  "grain_boundaries": null,
  "band_gap": 2.1595,
  "cbm": null,
  "vbm": null,
  "efermi": 1.05276267,
  "is_gap_direct": null,
  "is_metal": null,
  "es_source_calc_id": null,
  "bandstructure": null,
  "dos": null,
  "dos_energy_up": null,
  "dos_energy_down": null,
  "is_magnetic": null,
  "ordering": null,
  "total_magnetization": 0.0,
  "total_magnetization_normalized_vol": null,
  "total_magnetization_normalized_formula_units": null,
  "num_magnetic_sites": null,
  "num_unique_magnetic_sites": null,
  "types_of_magnetic_species": null,
  "bulk_modulus": null,
  "shear_modulus": null,
  "universal_anisotropy": null,
  "homogeneous_poisson": null,
  "e_total": null,
  "e_ionic": null,
  "e_electronic": null,
  "n": null,
  "e_ij_max": null,
  "weighted_surface_energy_EV_PER_ANG2": null,
  "weighted_surface_energy": null,
  "weighted_work_function": null,
  "surface_anisotropy": null,
  "shape_factor": null,
  "has_reconstructed": null,
  "possible_species": null,
  "has_props": null,
  "theoretical": null,
  "database_IDs": null,
  "fields_not_requested": [
    "builder_meta",
    "nsites",
    "elements",
    "nelements",
    "composition",
    "composition_reduced",
    "chemsys",
    "symmetry",
    "property_name",
    "deprecated",
    "deprecation_reasons",
    "last_updated",
    "origins",
    "warnings",
    "task_ids",
    "uncorrected_energy_per_atom",
    "equilibrium_reaction_energy_per_atom",
    "decomposes_to",
    "xas",
    "grain_boundaries",
    "cbm",
    "vbm",
    "is_gap_direct",
    "is_metal",
    "es_source_calc_id",
    "bandstructure",
    "dos",
    "dos_energy_up",
    "dos_energy_down",
    "is_magnetic",
    "ordering",
    "total_magnetization_normalized_vol",
    "total_magnetization_normalized_formula_units",
    "num_magnetic_sites",
    "num_unique_magnetic_sites",
    "types_of_magnetic_species",
    "bulk_modulus",
    "shear_modulus",
    "universal_anisotropy",
    "homogeneous_poisson",
    "e_total",
    "e_ionic",
    "e_electronic",
    "n",
    "e_ij_max",
    "weighted_surface_energy_EV_PER_ANG2",
    "weighted_surface_energy",
    "weighted_work_function",
    "surface_anisotropy",
    "shape_factor",
    "has_reconstructed",
    "possible_species",
    "has_props",
    "theoretical",
    "database_IDs"
  ]
}
