{"builder_meta": null, "nsites": null, "elements": null, "nelements": null, "composition": null, "composition_reduced": null, "formula_pretty": "TeO4", "formula_anonymous": "AB4", "chemsys": null, "volume": 136.76989907153924, "density": 4.6524169722518405, "density_atomic": 13.676989907153924, "symmetry": null, "property_name": null, "material_id": "mp-1178951", "deprecated": null, "deprecation_reasons": null, "last_updated": null, "origins": null, "warnings": null, "structure": {"@module": "pymatgen.core.structure", "@class": "Structure", "charge": 0, "lattice": {"matrix": [[4.964466, 0.0, 0.0], [0.0, 5.235457, 0.0], [0.0, 2.361606, 5.262152]], "pbc": [true, true, true], "a": 4.964466, "b": 5.235457, "c": 5.767792174683482, "alpha": 65.8298903763332, "beta": 90.0, "gamma": 90.0, "volume": 136.76989907153924}, "properties": {}, "sites": [{"species": [{"element": "Te", "occu": 1}], "abc": [0.5, 0.5, 0.0], "properties": {"magmom": -0.04}, "label": "Te", "xyz": [2.482233, 2.6177285, 0.0]}, {"species": [{"element": "Te", "occu": 1}], "abc": [0.0, 0.0, 0.0], "properties": {"magmom": -0.04}, "label": "Te", "xyz": [0.0, 0.0, 0.0]}, {"species": [{"element": "O", "occu": 1}], "abc": [0.647977999999999, 0.370866, 0.34213000000000005], "properties": {"magmom": 0.739}, "label": "O", "xyz": [3.2168647497479954, 2.749629256542, 1.8003400637600004]}, {"species": [{"element": "O", "occu": 1}], "abc": [0.147978, 0.129134, 0.6578700000000001], "properties": {"magmom": 0.739}, "label": "O", "xyz": [0.7346317497479999, 2.2297052434580005, 3.4618119362400006]}, {"species": [{"element": "O", "occu": 1}], "abc": [0.352022, 0.629134, 0.6578700000000001], "properties": {"magmom": 0.739}, "label": "O", "xyz": [1.747601250252, 4.847433743458, 3.4618119362400006]}, {"species": [{"element": "O", "occu": 1}], "abc": [0.852022, 0.870865999999999, 0.34213000000000005], "properties": {"magmom": 0.739}, "label": "O", "xyz": [4.229834250252, 5.367357756541995, 1.8003400637600004]}, {"species": [{"element": "O", "occu": 1}], "abc": [0.8195600000000001, 0.363743, 0.88575], "properties": {"magmom": 0.105}, "label": "O", "xyz": [4.06867775496, 3.9961533500510003, 4.660951134]}, {"species": [{"element": "O", "occu": 1}], "abc": [0.31956, 0.136257, 0.11425], "properties": {"magmom": 0.105}, "label": "O", "xyz": [1.58644475496, 0.983181149949, 0.6012008660000001]}, {"species": [{"element": "O", "occu": 1}], "abc": [0.18044000000000002, 0.636257, 0.11425], "properties": {"magmom": 0.105}, "label": "O", "xyz": [0.8957882450400001, 3.6009096499489996, 0.6012008660000001]}, {"species": [{"element": "O", "occu": 1}], "abc": [0.68044, 0.863742999999999, 0.88575], "properties": {"magmom": 0.105}, "label": "O", "xyz": [3.3780212450400002, 6.613881850050996, 4.660951134]}]}, "task_ids": null, "uncorrected_energy_per_atom": null, "energy_per_atom": -5.223321801, "formation_energy_per_atom": -0.636291818333333, "energy_above_hull": 0.43705309699999906, "is_stable": false, "equilibrium_reaction_energy_per_atom": null, "decomposes_to": null, "xas": null, "grain_boundaries": null, "band_gap": 0.0, "cbm": null, "vbm": null, "efermi": 1.811570479999999, "is_gap_direct": null, "is_metal": null, "es_source_calc_id": null, "bandstructure": null, "dos": null, "dos_energy_up": null, "dos_energy_down": null, "is_magnetic": null, "ordering": null, "total_magnetization": 4.0000985, "total_magnetization_normalized_vol": null, "total_magnetization_normalized_formula_units": null, "num_magnetic_sites": null, "num_unique_magnetic_sites": null, "types_of_magnetic_species": null, "bulk_modulus": null, "shear_modulus": null, "universal_anisotropy": null, "homogeneous_poisson": null, "e_total": null, "e_ionic": null, "e_electronic": null, "n": null, "e_ij_max": null, "weighted_surface_energy_EV_PER_ANG2": null, "weighted_surface_energy": null, "weighted_work_function": null, "surface_anisotropy": null, "shape_factor": null, "has_reconstructed": null, "possible_species": null, "has_props": null, "theoretical": null, "database_IDs": null, "fields_not_requested": ["builder_meta", "nsites", "elements", "nelements", "composition", "composition_reduced", "chemsys", "symmetry", "property_name", "deprecated", "deprecation_reasons", "last_updated", "origins", "warnings", "task_ids", "uncorrected_energy_per_atom", "equilibrium_reaction_energy_per_atom", "decomposes_to", "xas", "grain_boundaries", "cbm", "vbm", "is_gap_direct", "is_metal", "es_source_calc_id", "bandstructure", "dos", "dos_energy_up", "dos_energy_down", "is_magnetic", "ordering", "total_magnetization_normalized_vol", "total_magnetization_normalized_formula_units", "num_magnetic_sites", "num_unique_magnetic_sites", "types_of_magnetic_species", "bulk_modulus", "shear_modulus", "universal_anisotropy", "homogeneous_poisson", "e_total", "e_ionic", "e_electronic", "n", "e_ij_max", "weighted_surface_energy_EV_PER_ANG2", "weighted_surface_energy", "weighted_work_function", "surface_anisotropy", "shape_factor", "has_reconstructed", "possible_species", "has_props", "theoretical", "database_IDs"]}