{"builder_meta": null, "nsites": null, "elements": null, "nelements": null, "composition": null, "composition_reduced": null, "formula_pretty": "TeO6", "formula_anonymous": "AB6", "chemsys": null, "volume": 749.118644254375, "density": 3.965092154081191, "density_atomic": 13.377118647399554, "symmetry": null, "property_name": null, "material_id": "mp-1201116", "deprecated": null, "deprecation_reasons": null, "last_updated": null, "origins": null, "warnings": null, "structure": {"@module": "pymatgen.core.structure", "@class": "Structure", "charge": 0, "lattice": {"matrix": [[0.0, 7.208422, 7.208422], [7.208422, 0.0, 7.208422], [7.208422, 7.208422, 0.0]], "pbc": [true, true, true], "a": 10.194248155708589, "b": 10.194248155708589, "c": 10.194248155708589, "alpha": 59.99999999999999, "beta": 59.99999999999999, "gamma": 59.99999999999999, "volume": 749.118644254375}, "properties": {}, "sites": [{"species": [{"element": "Te", "occu": 1}], "abc": [0.875, 0.375, 0.375], "properties": {"magmom": -0.021}, "label": "Te", "xyz": [5.4063165, 9.0105275, 9.0105275]}, {"species": [{"element": "Te", "occu": 1}], "abc": [0.375, 0.875, 0.375], "properties": {"magmom": -0.021}, "label": "Te", "xyz": [9.0105275, 5.4063165, 9.0105275]}, {"species": [{"element": "Te", "occu": 1}], "abc": [0.375, 0.375, 0.875], "properties": {"magmom": -0.021}, "label": "Te", "xyz": [9.0105275, 9.0105275, 5.4063165]}, {"species": [{"element": "Te", "occu": 1}], "abc": [0.375, 0.375, 0.375], "properties": {"magmom": -0.021}, "label": "Te", "xyz": [5.4063165, 5.4063165, 5.4063165]}, {"species": [{"element": "Te", "occu": 1}], "abc": [0.375, 0.875, 0.875], "properties": {"magmom": -0.021}, "label": "Te", "xyz": [12.6147385, 9.0105275, 9.0105275]}, {"species": [{"element": "Te", "occu": 1}], "abc": [0.875, 0.875, 0.375], "properties": {"magmom": -0.021}, "label": "Te", "xyz": [9.0105275, 9.0105275, 12.6147385]}, {"species": [{"element": "Te", "occu": 1}], "abc": [0.875, 0.375, 0.875], "properties": {"magmom": -0.021}, "label": "Te", "xyz": [9.0105275, 12.6147385, 9.0105275]}, {"species": [{"element": "Te", "occu": 1}], "abc": [0.875, 0.875, 0.875], "properties": {"magmom": -0.021}, "label": "Te", "xyz": [12.6147385, 12.6147385, 12.6147385]}, {"species": [{"element": "O", "occu": 1}], "abc": [0.860625, 0.629066, 0.545307], "properties": {"magmom": 0.209}, "label": "O", "xyz": [8.465376169406, 10.134551159304, 10.738321377601999]}, {"species": [{"element": "O", "occu": 1}], "abc": [0.629066, 0.860625, 0.9650029999999991], "properties": {"magmom": 0.21}, "label": "O", "xyz": [13.159897039015991, 11.490722049117993, 10.738321377601999]}, {"species": [{"element": "O", "occu": 1}], "abc": [0.545307, 0.9650029999999991, 0.860625], "properties": {"magmom": 0.209}, "label": "O", "xyz": [13.159897039015991, 10.134551159304, 10.886951830819992]}, {"species": [{"element": "O", "occu": 1}], "abc": [0.9650029999999991, 0.545307, 0.629066], "properties": {"magmom": 0.209}, "label": "O", "xyz": [8.465376169406, 11.490722049117993, 10.886951830819992]}, {"species": [{"element": "O", "occu": 1}], "abc": [0.629066, 0.545307, 0.860625], "properties": {"magmom": 0.21}, "label": "O", "xyz": [10.134551159304, 10.738321377601999, 8.465376169406]}, {"species": [{"element": "O", "occu": 1}], "abc": [0.860625, 0.9650029999999991, 0.629066], "properties": {"magmom": 0.209}, "label": "O", "xyz": [11.490722049117993, 10.738321377601999, 13.159897039015991]}, {"species": [{"element": "O", "occu": 1}], "abc": [0.9650029999999991, 0.860625, 0.545307], "properties": {"magmom": 0.21}, "label": "O", "xyz": [10.134551159304, 10.886951830819992, 13.159897039015991]}, {"species": [{"element": "O", "occu": 1}], "abc": [0.545307, 0.629066, 0.9650029999999991], "properties": {"magmom": 0.21}, "label": "O", "xyz": [11.490722049117993, 10.886951830819992, 8.465376169406]}, {"species": [{"element": "O", "occu": 1}], "abc": [0.545307, 0.860625, 0.629066], "properties": {"magmom": 0.209}, "label": "O", "xyz": [10.738321377601999, 8.465376169406, 10.134551159304]}, {"species": [{"element": "O", "occu": 1}], "abc": [0.9650029999999991, 0.629066, 0.860625], "properties": {"magmom": 0.209}, "label": "O", "xyz": [10.738321377601999, 13.159897039015991, 11.490722049117993]}, {"species": [{"element": "O", "occu": 1}], "abc": [0.860625, 0.545307, 0.9650029999999991], "properties": {"magmom": 0.209}, "label": "O", "xyz": [10.886951830819992, 13.159897039015991, 10.134551159304]}, {"species": [{"element": "O", "occu": 1}], "abc": [0.629066, 0.9650029999999991, 0.545307], "properties": {"magmom": 0.21}, "label": "O", "xyz": [10.886951830819992, 8.465376169406, 11.490722049117993]}, {"species": [{"element": "O", "occu": 1}], "abc": [0.889374999999999, 0.120934, 0.20469299999999901], "properties": {"magmom": 0.209}, "label": "O", "xyz": [2.347256830593993, 7.886503840695985, 7.282733622397992]}, {"species": [{"element": "O", "occu": 1}], "abc": [0.120934, 0.889374999999999, 0.784997], "properties": {"magmom": 0.21}, "label": "O", "xyz": [12.069579960983992, 6.530332950881999, 7.282733622397992]}, {"species": [{"element": "O", "occu": 1}], "abc": [0.20469299999999901, 0.784997, 0.889374999999999], "properties": {"magmom": 0.21}, "label": "O", "xyz": [12.069579960983992, 7.886503840695985, 7.134103169179992]}, {"species": [{"element": "O", "occu": 1}], "abc": [0.784997, 0.20469299999999901, 0.120934], "properties": {"magmom": 0.209}, "label": "O", "xyz": [2.347256830593993, 6.530332950881999, 7.134103169179992]}, {"species": [{"element": "O", "occu": 1}], "abc": [0.120934, 0.20469299999999901, 0.889374999999999], "properties": {"magmom": 0.21}, "label": "O", "xyz": [7.886503840695985, 7.282733622397992, 2.347256830593993]}, {"species": [{"element": "O", "occu": 1}], "abc": [0.889374999999999, 0.784997, 0.120934], "properties": {"magmom": 0.21}, "label": "O", "xyz": [6.530332950881999, 7.282733622397992, 12.069579960983992]}, {"species": [{"element": "O", "occu": 1}], "abc": [0.784997, 0.889374999999999, 0.20469299999999901], "properties": {"magmom": 0.21}, "label": "O", "xyz": [7.886503840695985, 7.134103169179992, 12.069579960983992]}, {"species": [{"element": "O", "occu": 1}], "abc": [0.20469299999999901, 0.120934, 0.784997], "properties": {"magmom": 0.21}, "label": "O", "xyz": [6.530332950881999, 7.134103169179992, 2.347256830593993]}, {"species": [{"element": "O", "occu": 1}], "abc": [0.20469299999999901, 0.889374999999999, 0.120934], "properties": {"magmom": 0.21}, "label": "O", "xyz": [7.282733622397992, 2.347256830593993, 7.886503840695985]}, {"species": [{"element": "O", "occu": 1}], "abc": [0.784997, 0.120934, 0.889374999999999], "properties": {"magmom": 0.209}, "label": "O", "xyz": [7.282733622397992, 12.069579960983992, 6.530332950881999]}, {"species": [{"element": "O", "occu": 1}], "abc": [0.889374999999999, 0.20469299999999901, 0.784997], "properties": {"magmom": 0.209}, "label": "O", "xyz": [7.134103169179992, 12.069579960983992, 7.886503840695985]}, {"species": [{"element": "O", "occu": 1}], "abc": [0.120934, 0.784997, 0.20469299999999901], "properties": {"magmom": 0.21}, "label": "O", "xyz": [7.134103169179992, 2.347256830593993, 6.530332950881999]}, {"species": [{"element": "O", "occu": 1}], "abc": [0.360625, 0.045307, 0.129066], "properties": {"magmom": 0.21}, "label": "O", "xyz": [1.2569541694059998, 3.529899377602, 2.9261291593039997]}, {"species": [{"element": "O", "occu": 1}], "abc": [0.129066, 0.465003, 0.360625], "properties": {"magmom": 0.211}, "label": "O", "xyz": [5.951475039016, 3.529899377602, 4.282300049118]}, {"species": [{"element": "O", "occu": 1}], "abc": [0.045307, 0.360625, 0.465003], "properties": {"magmom": 0.211}, "label": "O", "xyz": [5.951475039016, 3.6785298308199996, 2.9261291593039997]}, {"species": [{"element": "O", "occu": 1}], "abc": [0.465003, 0.129066, 0.045307], "properties": {"magmom": 0.21}, "label": "O", "xyz": [1.2569541694059998, 3.6785298308199996, 4.282300049118]}, {"species": [{"element": "O", "occu": 1}], "abc": [0.129066, 0.360625, 0.045307], "properties": {"magmom": 0.211}, "label": "O", "xyz": [2.9261291593039997, 1.2569541694059998, 3.529899377602]}, {"species": [{"element": "O", "occu": 1}], "abc": [0.360625, 0.129066, 0.465003], "properties": {"magmom": 0.211}, "label": "O", "xyz": [4.282300049118, 5.951475039016, 3.529899377602]}, {"species": [{"element": "O", "occu": 1}], "abc": [0.465003, 0.045307, 0.360625], "properties": {"magmom": 0.211}, "label": "O", "xyz": [2.9261291593039997, 5.951475039016, 3.6785298308199996]}, {"species": [{"element": "O", "occu": 1}], "abc": [0.045307, 0.465003, 0.129066], "properties": {"magmom": 0.211}, "label": "O", "xyz": [4.282300049118, 1.2569541694059998, 3.6785298308199996]}, {"species": [{"element": "O", "occu": 1}], "abc": [0.045307, 0.129066, 0.360625], "properties": {"magmom": 0.21}, "label": "O", "xyz": [3.529899377602, 2.9261291593039997, 1.2569541694059998]}, {"species": [{"element": "O", "occu": 1}], "abc": [0.465003, 0.360625, 0.129066], "properties": {"magmom": 0.21}, "label": "O", "xyz": [3.529899377602, 4.282300049118, 5.951475039016]}, {"species": [{"element": "O", "occu": 1}], "abc": [0.360625, 0.465003, 0.045307], "properties": {"magmom": 0.21}, "label": "O", "xyz": [3.6785298308199996, 2.9261291593039997, 5.951475039016]}, {"species": [{"element": "O", "occu": 1}], "abc": [0.129066, 0.045307, 0.465003], "properties": {"magmom": 0.211}, "label": "O", "xyz": [3.6785298308199996, 4.282300049118, 1.2569541694059998]}, {"species": [{"element": "O", "occu": 1}], "abc": [0.389374999999999, 0.704693, 0.620934], "properties": {"magmom": 0.21}, "label": "O", "xyz": [9.555678830594001, 7.282733622397993, 7.886503840695993]}, {"species": [{"element": "O", "occu": 1}], "abc": [0.620934, 0.284997, 0.389374999999999], "properties": {"magmom": 0.21}, "label": "O", "xyz": [4.861157960983993, 7.282733622397993, 6.530332950882]}, {"species": [{"element": "O", "occu": 1}], "abc": [0.704693, 0.389374999999999, 0.284997], "properties": {"magmom": 0.21}, "label": "O", "xyz": [4.861157960983993, 7.134103169179999, 7.886503840695993]}, {"species": [{"element": "O", "occu": 1}], "abc": [0.284997, 0.620934, 0.704693], "properties": {"magmom": 0.21}, "label": "O", "xyz": [9.555678830594001, 7.134103169179999, 6.530332950882]}, {"species": [{"element": "O", "occu": 1}], "abc": [0.620934, 0.389374999999999, 0.704693], "properties": {"magmom": 0.211}, "label": "O", "xyz": [7.886503840695993, 9.555678830594001, 7.282733622397993]}, {"species": [{"element": "O", "occu": 1}], "abc": [0.389374999999999, 0.620934, 0.284997], "properties": {"magmom": 0.211}, "label": "O", "xyz": [6.530332950882, 4.861157960983993, 7.282733622397993]}, {"species": [{"element": "O", "occu": 1}], "abc": [0.284997, 0.704693, 0.389374999999999], "properties": {"magmom": 0.211}, "label": "O", "xyz": [7.886503840695993, 4.861157960983993, 7.134103169179999]}, {"species": [{"element": "O", "occu": 1}], "abc": [0.704693, 0.284997, 0.620934], "properties": {"magmom": 0.211}, "label": "O", "xyz": [6.530332950882, 9.555678830594001, 7.134103169179999]}, {"species": [{"element": "O", "occu": 1}], "abc": [0.704693, 0.620934, 0.389374999999999], "properties": {"magmom": 0.21}, "label": "O", "xyz": [7.282733622397993, 7.886503840695993, 9.555678830594001]}, {"species": [{"element": "O", "occu": 1}], "abc": [0.284997, 0.389374999999999, 0.620934], "properties": {"magmom": 0.21}, "label": "O", "xyz": [7.282733622397993, 6.530332950882, 4.861157960983993]}, {"species": [{"element": "O", "occu": 1}], "abc": [0.389374999999999, 0.284997, 0.704693], "properties": {"magmom": 0.21}, "label": "O", "xyz": [7.134103169179999, 7.886503840695993, 4.861157960983993]}, {"species": [{"element": "O", "occu": 1}], "abc": [0.620934, 0.704693, 0.284997], "properties": {"magmom": 0.21}, "label": "O", "xyz": [7.134103169179999, 6.530332950882, 9.555678830594001]}]}, "task_ids": null, "uncorrected_energy_per_atom": null, "energy_per_atom": -4.696627005000001, "formation_energy_per_atom": -0.006473873095238, "energy_above_hull": 0.7602010664285701, "is_stable": false, "equilibrium_reaction_energy_per_atom": null, "decomposes_to": null, "xas": null, "grain_boundaries": null, "band_gap": 0.0, "cbm": null, "vbm": null, "efermi": 2.64853675, "is_gap_direct": null, "is_metal": null, "es_source_calc_id": null, "bandstructure": null, "dos": null, "dos_energy_up": null, "dos_energy_down": null, "is_magnetic": null, "ordering": null, "total_magnetization": 12.0011859, "total_magnetization_normalized_vol": null, "total_magnetization_normalized_formula_units": null, "num_magnetic_sites": null, "num_unique_magnetic_sites": null, "types_of_magnetic_species": null, "bulk_modulus": null, "shear_modulus": null, "universal_anisotropy": null, "homogeneous_poisson": null, "e_total": null, "e_ionic": null, "e_electronic": null, "n": null, "e_ij_max": null, "weighted_surface_energy_EV_PER_ANG2": null, "weighted_surface_energy": null, "weighted_work_function": null, "surface_anisotropy": null, "shape_factor": null, "has_reconstructed": null, "possible_species": null, "has_props": null, "theoretical": null, "database_IDs": null, "fields_not_requested": ["builder_meta", "nsites", "elements", "nelements", "composition", "composition_reduced", "chemsys", "symmetry", "property_name", "deprecated", "deprecation_reasons", "last_updated", "origins", "warnings", "task_ids", "uncorrected_energy_per_atom", "equilibrium_reaction_energy_per_atom", "decomposes_to", "xas", "grain_boundaries", "cbm", "vbm", "is_gap_direct", "is_metal", "es_source_calc_id", "bandstructure", "dos", "dos_energy_up", "dos_energy_down", "is_magnetic", "ordering", "total_magnetization_normalized_vol", "total_magnetization_normalized_formula_units", "num_magnetic_sites", "num_unique_magnetic_sites", "types_of_magnetic_species", "bulk_modulus", "shear_modulus", "universal_anisotropy", "homogeneous_poisson", "e_total", "e_ionic", "e_electronic", "n", "e_ij_max", "weighted_surface_energy_EV_PER_ANG2", "weighted_surface_energy", "weighted_work_function", "surface_anisotropy", "shape_factor", "has_reconstructed", "possible_species", "has_props", "theoretical", "database_IDs"]}