{
  "builder_meta": null,
  "nsites": null,
  "elements": null,
  "nelements": null,
  "composition": null,
  "composition_reduced": null,
  "formula_pretty": "TePb3",
  "formula_anonymous": "AB3",
  "chemsys": null,
  "volume": 257.9411605058992,
  "density": 9.646198894792269,
  "density_atomic": 32.2426450632374,
  "symmetry": null,
  "property_name": null,
  "material_id": "mp-1187534",
  "deprecated": null,
  "deprecation_reasons": null,
  "last_updated": null,
  "origins": null,
  "warnings": null,
  "structure": {
    "@module": "pymatgen.core.structure",
    "@class": "Structure",
    "charge": 0,
    "lattice": {
      "matrix": [
        [3.533654, -6.120467, 0.0],
        [3.533654, 6.120467, 0.0],
        [0.0, 0.0, 5.963237]
      ],
      "pbc": [true, true, true],
      "a": 7.06730690502436,
      "b": 7.06730690502436,
      "c": 5.963237,
      "alpha": 90.0,
      "beta": 90.0,
      "gamma": 119.99998974955977,
      "volume": 257.9411605058992
    },
    "properties": {},
    "sites": [
      {
        "species": [{ "element": "Te", "occu": 1 }],
        "abc": [0.333333, 0.666667, 0.75],
        "properties": { "magmom": 0.0 },
        "label": "Te",
        "xyz": [3.5336540000000003, 2.0401597469780004, 4.4724277500000005]
      },
      {
        "species": [{ "element": "Te", "occu": 1 }],
        "abc": [0.666667, 0.333333, 0.25],
        "properties": { "magmom": 0.0 },
        "label": "Te",
        "xyz": [3.5336540000000003, -2.0401597469780004, 1.49080925]
      },
      {
        "species": [{ "element": "Pb", "occu": 1 }],
        "abc": [0.167412, 0.334824, 0.25],
        "properties": { "magmom": -0.001 },
        "label": "Pb",
        "xyz": [1.7747282503439998, 1.024639621404, 1.49080925]
      },
      {
        "species": [{ "element": "Pb", "occu": 1 }],
        "abc": [0.665176, 0.832588, 0.25],
        "properties": { "magmom": 0.001 },
        "label": "Pb",
        "xyz": [5.292579749655999, 1.024639621404, 1.49080925]
      },
      {
        "species": [{ "element": "Pb", "occu": 1 }],
        "abc": [0.167412, 0.832588, 0.25],
        "properties": { "magmom": 0.0 },
        "label": "Pb",
        "xyz": [3.533654, 4.071187757192, 1.49080925]
      },
      {
        "species": [{ "element": "Pb", "occu": 1 }],
        "abc": [0.832588, 0.665176, 0.75],
        "properties": { "magmom": -0.001 },
        "label": "Pb",
        "xyz": [5.292579749655999, -1.024639621404, 4.4724277500000005]
      },
      {
        "species": [{ "element": "Pb", "occu": 1 }],
        "abc": [0.334824, 0.167412, 0.75],
        "properties": { "magmom": 0.001 },
        "label": "Pb",
        "xyz": [1.7747282503439998, -1.024639621404, 4.4724277500000005]
      },
      {
        "species": [{ "element": "Pb", "occu": 1 }],
        "abc": [0.832588, 0.167412, 0.75],
        "properties": { "magmom": 0.0 },
        "label": "Pb",
        "xyz": [3.533654, -4.071187757192, 4.4724277500000005]
      }
    ]
  },
  "task_ids": null,
  "uncorrected_energy_per_atom": null,
  "energy_per_atom": -48.52017434,
  "formation_energy_per_atom": 0.047982320000002,
  "energy_above_hull": 0.29989727000000205,
  "is_stable": false,
  "equilibrium_reaction_energy_per_atom": null,
  "decomposes_to": null,
  "xas": null,
  "grain_boundaries": null,
  "band_gap": 0.0,
  "cbm": null,
  "vbm": null,
  "efermi": 6.7045572,
  "is_gap_direct": null,
  "is_metal": null,
  "es_source_calc_id": null,
  "bandstructure": null,
  "dos": null,
  "dos_energy_up": null,
  "dos_energy_down": null,
  "is_magnetic": null,
  "ordering": null,
  "total_magnetization": 0.0019922,
  "total_magnetization_normalized_vol": null,
  "total_magnetization_normalized_formula_units": null,
  "num_magnetic_sites": null,
  "num_unique_magnetic_sites": null,
  "types_of_magnetic_species": null,
  "bulk_modulus": null,
  "shear_modulus": null,
  "universal_anisotropy": null,
  "homogeneous_poisson": null,
  "e_total": null,
  "e_ionic": null,
  "e_electronic": null,
  "n": null,
  "e_ij_max": null,
  "weighted_surface_energy_EV_PER_ANG2": null,
  "weighted_surface_energy": null,
  "weighted_work_function": null,
  "surface_anisotropy": null,
  "shape_factor": null,
  "has_reconstructed": null,
  "possible_species": null,
  "has_props": null,
  "theoretical": null,
  "database_IDs": null,
  "fields_not_requested": [
    "builder_meta",
    "nsites",
    "elements",
    "nelements",
    "composition",
    "composition_reduced",
    "chemsys",
    "symmetry",
    "property_name",
    "deprecated",
    "deprecation_reasons",
    "last_updated",
    "origins",
    "warnings",
    "task_ids",
    "uncorrected_energy_per_atom",
    "equilibrium_reaction_energy_per_atom",
    "decomposes_to",
    "xas",
    "grain_boundaries",
    "cbm",
    "vbm",
    "is_gap_direct",
    "is_metal",
    "es_source_calc_id",
    "bandstructure",
    "dos",
    "dos_energy_up",
    "dos_energy_down",
    "is_magnetic",
    "ordering",
    "total_magnetization_normalized_vol",
    "total_magnetization_normalized_formula_units",
    "num_magnetic_sites",
    "num_unique_magnetic_sites",
    "types_of_magnetic_species",
    "bulk_modulus",
    "shear_modulus",
    "universal_anisotropy",
    "homogeneous_poisson",
    "e_total",
    "e_ionic",
    "e_electronic",
    "n",
    "e_ij_max",
    "weighted_surface_energy_EV_PER_ANG2",
    "weighted_surface_energy",
    "weighted_work_function",
    "surface_anisotropy",
    "shape_factor",
    "has_reconstructed",
    "possible_species",
    "has_props",
    "theoretical",
    "database_IDs"
  ]
}
