{
  "builder_meta": null,
  "nsites": null,
  "elements": null,
  "nelements": null,
  "composition": null,
  "composition_reduced": null,
  "formula_pretty": "TePd4",
  "formula_anonymous": "AB4",
  "chemsys": null,
  "volume": 489.20221904595667,
  "density": 9.390217572604053,
  "density_atomic": 19.56808876183827,
  "symmetry": null,
  "property_name": null,
  "material_id": "mp-1190964",
  "deprecated": null,
  "deprecation_reasons": null,
  "last_updated": null,
  "origins": null,
  "warnings": null,
  "structure": {
    "@module": "pymatgen.core.structure",
    "@class": "Structure",
    "charge": 0,
    "lattice": {
      "matrix": [
        [-6.253927, -6.253927, 0.0],
        [-6.253927, 0.0, -6.253927],
        [0.0, -6.253927, -6.253927]
      ],
      "pbc": [true, true, true],
      "a": 8.844388381491283,
      "b": 8.844388381491283,
      "c": 8.844388381491283,
      "alpha": 59.99999999999999,
      "beta": 59.99999999999999,
      "gamma": 59.99999999999999,
      "volume": 489.20221904595667
    },
    "properties": {},
    "sites": [
      {
        "species": [{ "element": "Te", "occu": 1 }],
        "abc": [0.75, 0.75, 0.75],
        "properties": { "magmom": -0.0 },
        "label": "Te",
        "xyz": [-9.3808905, -9.3808905, -9.3808905]
      },
      {
        "species": [{ "element": "Te", "occu": 1 }],
        "abc": [0.883875, 0.372042, 0.372042],
        "properties": { "magmom": -0.002 },
        "label": "Te",
        "xyz": [-7.854413236058999, -7.854413236058999, -4.653447017867999]
      },
      {
        "species": [{ "element": "Te", "occu": 1 }],
        "abc": [0.372042, 0.883875, 0.372042],
        "properties": { "magmom": -0.002 },
        "label": "Te",
        "xyz": [-7.854413236058999, -4.653447017867999, -7.854413236058999]
      },
      {
        "species": [{ "element": "Te", "occu": 1 }],
        "abc": [0.372042, 0.372042, 0.883875],
        "properties": { "magmom": -0.002 },
        "label": "Te",
        "xyz": [-4.653447017867999, -7.854413236058999, -7.854413236058999]
      },
      {
        "species": [{ "element": "Te", "occu": 1 }],
        "abc": [0.372042, 0.372042, 0.372042],
        "properties": { "magmom": -0.002 },
        "label": "Te",
        "xyz": [-4.653447017867999, -4.653447017867999, -4.653447017867999]
      },
      {
        "species": [{ "element": "Pd", "occu": 1 }],
        "abc": [0.097915999999999, 0.634027999999999, 0.634027999999999],
        "properties": { "magmom": -0.003 },
        "label": "Pd",
        "xyz": [-4.577524344087988, -4.577524344087988, -7.930329655911988]
      },
      {
        "species": [{ "element": "Pd", "occu": 1 }],
        "abc": [0.634027999999999, 0.097915999999999, 0.634027999999999],
        "properties": { "magmom": -0.003 },
        "label": "Pd",
        "xyz": [-4.577524344087988, -7.930329655911988, -4.577524344087988]
      },
      {
        "species": [{ "element": "Pd", "occu": 1 }],
        "abc": [0.634027999999999, 0.634027999999999, 0.097915999999999],
        "properties": { "magmom": -0.003 },
        "label": "Pd",
        "xyz": [-7.930329655911988, -4.577524344087988, -4.577524344087988]
      },
      {
        "species": [{ "element": "Pd", "occu": 1 }],
        "abc": [0.634027999999999, 0.634027999999999, 0.634027999999999],
        "properties": { "magmom": -0.003 },
        "label": "Pd",
        "xyz": [-7.930329655911988, -7.930329655911988, -7.930329655911988]
      },
      {
        "species": [{ "element": "Pd", "occu": 1 }],
        "abc": [0.759834, 0.080055, 0.080055],
        "properties": { "magmom": -0.005 },
        "label": "Pd",
        "xyz": [-5.252604494103, -5.252604494103, -1.00131625197]
      },
      {
        "species": [{ "element": "Pd", "occu": 1 }],
        "abc": [0.080055, 0.759834, 0.080055],
        "properties": { "magmom": -0.005 },
        "label": "Pd",
        "xyz": [-5.252604494103, -1.00131625197, -5.252604494103]
      },
      {
        "species": [{ "element": "Pd", "occu": 1 }],
        "abc": [0.080055, 0.080055, 0.759834],
        "properties": { "magmom": -0.005 },
        "label": "Pd",
        "xyz": [-1.00131625197, -5.252604494103, -5.252604494103]
      },
      {
        "species": [{ "element": "Pd", "occu": 1 }],
        "abc": [0.080055, 0.080055, 0.080055],
        "properties": { "magmom": -0.005 },
        "label": "Pd",
        "xyz": [-1.00131625197, -1.00131625197, -1.00131625197]
      },
      {
        "species": [{ "element": "Pd", "occu": 1 }],
        "abc": [0.262241, 0.737758999999999, 0.737758999999999],
        "properties": { "magmom": -0.007 },
        "label": "Pd",
        "xyz": [-6.253926999999994, -6.253926999999994, -9.227781859185988]
      },
      {
        "species": [{ "element": "Pd", "occu": 1 }],
        "abc": [0.262241, 0.737758999999999, 0.262241],
        "properties": { "magmom": -0.007 },
        "label": "Pd",
        "xyz": [-6.253926999999994, -3.280072140814, -6.253926999999994]
      },
      {
        "species": [{ "element": "Pd", "occu": 1 }],
        "abc": [0.262241, 0.262241, 0.737758999999999],
        "properties": { "magmom": -0.007 },
        "label": "Pd",
        "xyz": [-3.280072140814, -6.253926999999994, -6.253926999999994]
      },
      {
        "species": [{ "element": "Pd", "occu": 1 }],
        "abc": [0.737758999999999, 0.262241, 0.262241],
        "properties": { "magmom": -0.007 },
        "label": "Pd",
        "xyz": [-6.253926999999994, -6.253926999999994, -3.280072140814]
      },
      {
        "species": [{ "element": "Pd", "occu": 1 }],
        "abc": [0.737758999999999, 0.262241, 0.737758999999999],
        "properties": { "magmom": -0.007 },
        "label": "Pd",
        "xyz": [-6.253926999999994, -9.227781859185988, -6.253926999999994]
      },
      {
        "species": [{ "element": "Pd", "occu": 1 }],
        "abc": [0.737758999999999, 0.737758999999999, 0.262241],
        "properties": { "magmom": -0.007 },
        "label": "Pd",
        "xyz": [-9.227781859185988, -6.253926999999994, -6.253926999999994]
      },
      {
        "species": [{ "element": "Pd", "occu": 1 }],
        "abc": [0.490006, 0.009994, 0.009994],
        "properties": { "magmom": -0.003 },
        "label": "Pd",
        "xyz": [-3.1269635, -3.1269635, -0.125003492876]
      },
      {
        "species": [{ "element": "Pd", "occu": 1 }],
        "abc": [0.490006, 0.009994, 0.490006],
        "properties": { "magmom": -0.003 },
        "label": "Pd",
        "xyz": [-3.1269635, -6.128923507124, -3.1269635]
      },
      {
        "species": [{ "element": "Pd", "occu": 1 }],
        "abc": [0.490006, 0.490006, 0.009994],
        "properties": { "magmom": -0.003 },
        "label": "Pd",
        "xyz": [-6.128923507124, -3.1269635, -3.1269635]
      },
      {
        "species": [{ "element": "Pd", "occu": 1 }],
        "abc": [0.009994, 0.490006, 0.490006],
        "properties": { "magmom": -0.003 },
        "label": "Pd",
        "xyz": [-3.1269635, -3.1269635, -6.128923507124]
      },
      {
        "species": [{ "element": "Pd", "occu": 1 }],
        "abc": [0.009994, 0.490006, 0.009994],
        "properties": { "magmom": -0.003 },
        "label": "Pd",
        "xyz": [-3.1269635, -0.125003492876, -3.1269635]
      },
      {
        "species": [{ "element": "Pd", "occu": 1 }],
        "abc": [0.009994, 0.009994, 0.490006],
        "properties": { "magmom": -0.003 },
        "label": "Pd",
        "xyz": [-0.125003492876, -3.1269635, -3.1269635]
      }
    ]
  },
  "task_ids": null,
  "uncorrected_energy_per_atom": null,
  "energy_per_atom": -23.45090010069677,
  "formation_energy_per_atom": 0.0009076493032300001,
  "energy_above_hull": 0.225477226400002,
  "is_stable": false,
  "equilibrium_reaction_energy_per_atom": null,
  "decomposes_to": null,
  "xas": null,
  "grain_boundaries": null,
  "band_gap": 0.0,
  "cbm": null,
  "vbm": null,
  "efermi": 4.80611361,
  "is_gap_direct": null,
  "is_metal": null,
  "es_source_calc_id": null,
  "bandstructure": null,
  "dos": null,
  "dos_energy_up": null,
  "dos_energy_down": null,
  "is_magnetic": null,
  "ordering": null,
  "total_magnetization": 0.1572516,
  "total_magnetization_normalized_vol": null,
  "total_magnetization_normalized_formula_units": null,
  "num_magnetic_sites": null,
  "num_unique_magnetic_sites": null,
  "types_of_magnetic_species": null,
  "bulk_modulus": null,
  "shear_modulus": null,
  "universal_anisotropy": null,
  "homogeneous_poisson": null,
  "e_total": null,
  "e_ionic": null,
  "e_electronic": null,
  "n": null,
  "e_ij_max": null,
  "weighted_surface_energy_EV_PER_ANG2": null,
  "weighted_surface_energy": null,
  "weighted_work_function": null,
  "surface_anisotropy": null,
  "shape_factor": null,
  "has_reconstructed": null,
  "possible_species": null,
  "has_props": null,
  "theoretical": null,
  "database_IDs": null,
  "fields_not_requested": [
    "builder_meta",
    "nsites",
    "elements",
    "nelements",
    "composition",
    "composition_reduced",
    "chemsys",
    "symmetry",
    "property_name",
    "deprecated",
    "deprecation_reasons",
    "last_updated",
    "origins",
    "warnings",
    "task_ids",
    "uncorrected_energy_per_atom",
    "equilibrium_reaction_energy_per_atom",
    "decomposes_to",
    "xas",
    "grain_boundaries",
    "cbm",
    "vbm",
    "is_gap_direct",
    "is_metal",
    "es_source_calc_id",
    "bandstructure",
    "dos",
    "dos_energy_up",
    "dos_energy_down",
    "is_magnetic",
    "ordering",
    "total_magnetization_normalized_vol",
    "total_magnetization_normalized_formula_units",
    "num_magnetic_sites",
    "num_unique_magnetic_sites",
    "types_of_magnetic_species",
    "bulk_modulus",
    "shear_modulus",
    "universal_anisotropy",
    "homogeneous_poisson",
    "e_total",
    "e_ionic",
    "e_electronic",
    "n",
    "e_ij_max",
    "weighted_surface_energy_EV_PER_ANG2",
    "weighted_surface_energy",
    "weighted_work_function",
    "surface_anisotropy",
    "shape_factor",
    "has_reconstructed",
    "possible_species",
    "has_props",
    "theoretical",
    "database_IDs"
  ]
}
