{"builder_meta": null, "nsites": null, "elements": null, "nelements": null, "composition": null, "composition_reduced": null, "formula_pretty": "TeSe2", "formula_anonymous": "AB2", "chemsys": null, "volume": 93.40362394518606, "density": 5.076003416889559, "density_atomic": 31.13454131506202, "symmetry": null, "property_name": null, "material_id": "mp-1217269", "deprecated": null, "deprecation_reasons": null, "last_updated": null, "origins": null, "warnings": null, "structure": {"@module": "pymatgen.core.structure", "@class": "Structure", "charge": 0, "lattice": {"matrix": [[-2.18566192, -4.0435734, -0.05612708], [-2.18566192, 4.0435734, 0.05612708], [0.0, -0.07312074, -5.28529]], "pbc": [true, true, true], "a": 4.596820000699936, "b": 4.596820000699936, "c": 5.285795779891439, "alpha": 91.39685702265949, "beta": 88.60314297734051, "gamma": 123.21975021022214, "volume": 93.40362394518606}, "properties": {}, "sites": [{"species": [{"element": "Te", "occu": 1}], "abc": [0.75377846, 0.75377846, 0.666632999999999], "properties": {"magmom": 0.0}, "label": "Te", "xyz": [-3.2950097522764863, -0.04874469826841993, -3.523348728569995]}, {"species": [{"element": "Se", "occu": 1}], "abc": [0.23213708, 0.014085460000000001, 0.00687508], "properties": {"magmom": -0.0}, "label": "Se", "xyz": [-0.5381592295236767, -0.8822104413960671, -0.048575392293069605]}, {"species": [{"element": "Se", "occu": 1}], "abc": [0.014085460000000001, 0.23213708, 0.32639192], "properties": {"magmom": -0.0}, "label": "Se", "xyz": [-0.5381592295236767, 0.8578417117384871, -1.7128373501369303]}]}, "task_ids": null, "uncorrected_energy_per_atom": null, "energy_per_atom": -18.023633856666667, "formation_energy_per_atom": -0.010185599374999, "energy_above_hull": 0.0, "is_stable": true, "equilibrium_reaction_energy_per_atom": null, "decomposes_to": null, "xas": null, "grain_boundaries": null, "band_gap": 0.6533000000000001, "cbm": null, "vbm": null, "efermi": 3.59545586, "is_gap_direct": null, "is_metal": null, "es_source_calc_id": null, "bandstructure": null, "dos": null, "dos_energy_up": null, "dos_energy_down": null, "is_magnetic": null, "ordering": null, "total_magnetization": 0.0, "total_magnetization_normalized_vol": null, "total_magnetization_normalized_formula_units": null, "num_magnetic_sites": null, "num_unique_magnetic_sites": null, "types_of_magnetic_species": null, "bulk_modulus": null, "shear_modulus": null, "universal_anisotropy": null, "homogeneous_poisson": null, "e_total": null, "e_ionic": null, "e_electronic": null, "n": null, "e_ij_max": null, "weighted_surface_energy_EV_PER_ANG2": null, "weighted_surface_energy": null, "weighted_work_function": null, "surface_anisotropy": null, "shape_factor": null, "has_reconstructed": null, "possible_species": null, "has_props": null, "theoretical": null, "database_IDs": null, "fields_not_requested": ["builder_meta", "nsites", "elements", "nelements", "composition", "composition_reduced", "chemsys", "symmetry", "property_name", "deprecated", "deprecation_reasons", "last_updated", "origins", "warnings", "task_ids", "uncorrected_energy_per_atom", "equilibrium_reaction_energy_per_atom", "decomposes_to", "xas", "grain_boundaries", "cbm", "vbm", "is_gap_direct", "is_metal", "es_source_calc_id", "bandstructure", "dos", "dos_energy_up", "dos_energy_down", "is_magnetic", "ordering", "total_magnetization_normalized_vol", "total_magnetization_normalized_formula_units", "num_magnetic_sites", "num_unique_magnetic_sites", "types_of_magnetic_species", "bulk_modulus", "shear_modulus", "universal_anisotropy", "homogeneous_poisson", "e_total", "e_ionic", "e_electronic", "n", "e_ij_max", "weighted_surface_energy_EV_PER_ANG2", "weighted_surface_energy", "weighted_work_function", "surface_anisotropy", "shape_factor", "has_reconstructed", "possible_species", "has_props", "theoretical", "database_IDs"]}