{"builder_meta": null, "nsites": null, "elements": null, "nelements": null, "composition": null, "composition_reduced": null, "formula_pretty": "TeSe", "formula_anonymous": "AB", "chemsys": null, "volume": 192.49977990130773, "density": 5.345475456222573, "density_atomic": 32.08329665021795, "symmetry": null, "property_name": null, "material_id": "mp-1217322", "deprecated": null, "deprecation_reasons": null, "last_updated": null, "origins": null, "warnings": null, "structure": {"@module": "pymatgen.core.structure", "@class": "Structure", "charge": 0, "lattice": {"matrix": [[-2.35306507, -3.87304108, 0.050303560000000004], [-4.59962118, -0.06212344, 0.02531725], [0.06289026, 0.10215958, -10.89651249]], "pbc": [true, true, true], "a": 4.532095859441893, "b": 4.600110355681654, "c": 10.89717285397064, "alpha": 90.65321593007872, "beta": 91.26672634547883, "gamma": 57.9440602186902, "volume": 192.49977990130773}, "properties": {}, "sites": [{"species": [{"element": "Te", "occu": 1}], "abc": [0.26845084, 0.9877875700000001, 0.99658745], "properties": {"magmom": 0.0}, "label": "Te", "xyz": [-5.112455279085654, -0.999274937792877, -10.820815498508678]}, {"species": [{"element": "Te", "occu": 1}], "abc": [0.74831833, 0.24992026, 0.17519089000000002], "properties": {"magmom": 0.0}, "label": "Te", "xyz": [-2.8993624441491086, -2.895896111541665, -1.8649993513044762]}, {"species": [{"element": "Te", "occu": 1}], "abc": [0.7467023500000001, 0.24344158000000002, 0.66157666], "properties": {"magmom": -0.0}, "label": "Te", "xyz": [-2.8351715367752472, -2.8395459107477707, -7.165153280975862]}, {"species": [{"element": "Se", "occu": 1}], "abc": [0.00433843, 0.76718732, 0.34190776], "properties": {"magmom": -0.0}, "label": "Se", "xyz": [-3.51747698626866, -0.029534079895144408, -3.705960865616841]}, {"species": [{"element": "Se", "occu": 1}], "abc": [0.01111988, 0.76532657, 0.82818801], "properties": {"magmom": 0.0}, "label": "Se", "xyz": [-3.494293142921561, -0.006005132033835417, -9.00442566137814]}, {"species": [{"element": "Se", "occu": 1}], "abc": [0.22107218, 0.9863347100000001, 0.49644922], "properties": {"magmom": 0.0}, "label": "Se", "xyz": [-5.025741426869313, -0.8667790961552292, -5.3734731262730495]}]}, "task_ids": null, "uncorrected_energy_per_atom": null, "energy_per_atom": -19.875322996666664, "formation_energy_per_atom": -0.010930726197914001, "energy_above_hull": 0.0, "is_stable": true, "equilibrium_reaction_energy_per_atom": null, "decomposes_to": null, "xas": null, "grain_boundaries": null, "band_gap": 0.7062, "cbm": null, "vbm": null, "efermi": 4.14394815, "is_gap_direct": null, "is_metal": null, "es_source_calc_id": null, "bandstructure": null, "dos": null, "dos_energy_up": null, "dos_energy_down": null, "is_magnetic": null, "ordering": null, "total_magnetization": 0.0, "total_magnetization_normalized_vol": null, "total_magnetization_normalized_formula_units": null, "num_magnetic_sites": null, "num_unique_magnetic_sites": null, "types_of_magnetic_species": null, "bulk_modulus": null, "shear_modulus": null, "universal_anisotropy": null, "homogeneous_poisson": null, "e_total": null, "e_ionic": null, "e_electronic": null, "n": null, "e_ij_max": null, "weighted_surface_energy_EV_PER_ANG2": null, "weighted_surface_energy": null, "weighted_work_function": null, "surface_anisotropy": null, "shape_factor": null, "has_reconstructed": null, "possible_species": null, "has_props": null, "theoretical": null, "database_IDs": null, "fields_not_requested": ["builder_meta", "nsites", "elements", "nelements", "composition", "composition_reduced", "chemsys", "symmetry", "property_name", "deprecated", "deprecation_reasons", "last_updated", "origins", "warnings", "task_ids", "uncorrected_energy_per_atom", "equilibrium_reaction_energy_per_atom", "decomposes_to", "xas", "grain_boundaries", "cbm", "vbm", "is_gap_direct", "is_metal", "es_source_calc_id", "bandstructure", "dos", "dos_energy_up", "dos_energy_down", "is_magnetic", "ordering", "total_magnetization_normalized_vol", "total_magnetization_normalized_formula_units", "num_magnetic_sites", "num_unique_magnetic_sites", "types_of_magnetic_species", "bulk_modulus", "shear_modulus", "universal_anisotropy", "homogeneous_poisson", "e_total", "e_ionic", "e_electronic", "n", "e_ij_max", "weighted_surface_energy_EV_PER_ANG2", "weighted_surface_energy", "weighted_work_function", "surface_anisotropy", "shape_factor", "has_reconstructed", "possible_species", "has_props", "theoretical", "database_IDs"]}