{
  "builder_meta": null,
  "nsites": null,
  "elements": null,
  "nelements": null,
  "composition": null,
  "composition_reduced": null,
  "formula_pretty": "Th2Al",
  "formula_anonymous": "AB2",
  "chemsys": null,
  "volume": 169.35295079964004,
  "density": 9.62983428642046,
  "density_atomic": 28.225491799940006,
  "symmetry": null,
  "property_name": null,
  "material_id": "mp-1651",
  "deprecated": null,
  "deprecation_reasons": null,
  "last_updated": null,
  "origins": null,
  "warnings": null,
  "structure": {
    "@module": "pymatgen.core.structure",
    "@class": "Structure",
    "charge": 0,
    "lattice": {
      "matrix": [
        [5.01987808, 1e-8, 2.73163602],
        [2.50993955, 5.44363439, 1.36581801],
        [-0.091999199999999, -0.0, 6.14735338]
      ],
      "pbc": [true, true, true],
      "a": 5.71498130214141,
      "b": 6.14804121270224,
      "c": 6.148041755827466,
      "alpha": 77.5245623845405,
      "beta": 62.3039722231723,
      "gamma": 62.30396753397587,
      "volume": 169.35295079964
    },
    "properties": {},
    "sites": [
      {
        "species": [{ "element": "Th", "occu": 1 }],
        "abc": [0.15751409, 0.5, 0.18496983],
        "properties": { "magmom": -0.0 },
        "label": "Th",
        "xyz": [2.0286542262980114, 2.7218171965751408, 2.2502550765500473]
      },
      {
        "species": [{ "element": "Th", "occu": 1 }],
        "abc": [0.34248591, 0.81503017, 0.5],
        "properties": { "magmom": -0.0 },
        "label": "Th",
        "xyz": [3.7189143704440766, 4.436726265724405, 5.12240642297784]
      },
      {
        "species": [{ "element": "Th", "occu": 1 }],
        "abc": [0.65751409, 0.18496983, 0.5],
        "properties": { "magmom": -0.0 },
        "label": "Th",
        "xyz": [3.7189040595559244, 1.0069081342755946, 5.122400987022161]
      },
      {
        "species": [{ "element": "Th", "occu": 1 }],
        "abc": [0.8424859100000001, 0.5, 0.81503017],
        "properties": { "magmom": -0.0 },
        "label": "Th",
        "xyz": [5.40916420370199, 2.721817203424859, 7.994552333449953]
      },
      {
        "species": [{ "element": "Al", "occu": 1 }],
        "abc": [0.25, 0.0, -0.0],
        "properties": { "magmom": -0.0 },
        "label": "Al",
        "xyz": [1.25496952, 2.5e-9, 0.682909005]
      },
      {
        "species": [{ "element": "Al", "occu": 1 }],
        "abc": [0.75, -0.0, -0.0],
        "properties": { "magmom": -0.0 },
        "label": "Al",
        "xyz": [3.76490856, 7.500000000000001e-9, 2.048727015]
      }
    ]
  },
  "task_ids": null,
  "uncorrected_energy_per_atom": null,
  "energy_per_atom": -51.48995543666666,
  "formation_energy_per_atom": -0.26241455999998603,
  "energy_above_hull": 0.0,
  "is_stable": true,
  "equilibrium_reaction_energy_per_atom": null,
  "decomposes_to": null,
  "xas": null,
  "grain_boundaries": null,
  "band_gap": 0.0,
  "cbm": null,
  "vbm": null,
  "efermi": 7.06791568,
  "is_gap_direct": null,
  "is_metal": null,
  "es_source_calc_id": null,
  "bandstructure": null,
  "dos": null,
  "dos_energy_up": null,
  "dos_energy_down": null,
  "is_magnetic": null,
  "ordering": null,
  "total_magnetization": 3e-7,
  "total_magnetization_normalized_vol": null,
  "total_magnetization_normalized_formula_units": null,
  "num_magnetic_sites": null,
  "num_unique_magnetic_sites": null,
  "types_of_magnetic_species": null,
  "bulk_modulus": null,
  "shear_modulus": null,
  "universal_anisotropy": null,
  "homogeneous_poisson": null,
  "e_total": null,
  "e_ionic": null,
  "e_electronic": null,
  "n": null,
  "e_ij_max": null,
  "weighted_surface_energy_EV_PER_ANG2": null,
  "weighted_surface_energy": null,
  "weighted_work_function": null,
  "surface_anisotropy": null,
  "shape_factor": null,
  "has_reconstructed": null,
  "possible_species": null,
  "has_props": null,
  "theoretical": null,
  "database_IDs": null,
  "fields_not_requested": [
    "builder_meta",
    "nsites",
    "elements",
    "nelements",
    "composition",
    "composition_reduced",
    "chemsys",
    "symmetry",
    "property_name",
    "deprecated",
    "deprecation_reasons",
    "last_updated",
    "origins",
    "warnings",
    "task_ids",
    "uncorrected_energy_per_atom",
    "equilibrium_reaction_energy_per_atom",
    "decomposes_to",
    "xas",
    "grain_boundaries",
    "cbm",
    "vbm",
    "is_gap_direct",
    "is_metal",
    "es_source_calc_id",
    "bandstructure",
    "dos",
    "dos_energy_up",
    "dos_energy_down",
    "is_magnetic",
    "ordering",
    "total_magnetization_normalized_vol",
    "total_magnetization_normalized_formula_units",
    "num_magnetic_sites",
    "num_unique_magnetic_sites",
    "types_of_magnetic_species",
    "bulk_modulus",
    "shear_modulus",
    "universal_anisotropy",
    "homogeneous_poisson",
    "e_total",
    "e_ionic",
    "e_electronic",
    "n",
    "e_ij_max",
    "weighted_surface_energy_EV_PER_ANG2",
    "weighted_surface_energy",
    "weighted_work_function",
    "surface_anisotropy",
    "shape_factor",
    "has_reconstructed",
    "possible_species",
    "has_props",
    "theoretical",
    "database_IDs"
  ]
}
