{"builder_meta": null, "nsites": null, "elements": null, "nelements": null, "composition": null, "composition_reduced": null, "formula_pretty": "Th2Al7", "formula_anonymous": "A2B7", "chemsys": null, "volume": 371.16182331666164, "density": 5.84243179917264, "density_atomic": 20.62010129537009, "symmetry": null, "property_name": null, "material_id": "mp-30334", "deprecated": null, "deprecation_reasons": null, "last_updated": null, "origins": null, "warnings": null, "structure": {"@module": "pymatgen.core.structure", "@class": "Structure", "charge": 0, "lattice": {"matrix": [[5.53675725, 0.0, 0.0], [0.0, 5.85341097, -0.00011299], [0.0, -0.00022073, 11.45246042]], "pbc": [true, true, true], "a": 5.53675725, "b": 5.853410971090538, "c": 11.45246042212713, "alpha": 90.0022102914018, "beta": 90.0, "gamma": 90.0, "volume": 371.16182331666164}, "properties": {}, "sites": [{"species": [{"element": "Th", "occu": 1}], "abc": [-0.0, 0.85608867, 0.85317783], "properties": {"magmom": 0.0}, "label": "Th", "xyz": [0.0, 5.010850490328294, 9.770888599837665]}, {"species": [{"element": "Th", "occu": 1}], "abc": [-0.0, 0.14391133, 0.14682217], "properties": {"magmom": 0.0}, "label": "Th", "xyz": [0.0, 0.842339749671706, 1.6814588301623348]}, {"species": [{"element": "Th", "occu": 1}], "abc": [-0.0, 0.35607531000000003, 0.64684055], "properties": {"magmom": 0.0}, "label": "Th", "xyz": [0.0, 2.0841123485855495, 7.407875563976753]}, {"species": [{"element": "Th", "occu": 1}], "abc": [-0.0, 0.64392469, 0.35315945], "properties": {"magmom": 0.0}, "label": "Th", "xyz": [0.0, 3.76907789141445, 4.044471866023246]}, {"species": [{"element": "Al", "occu": 1}], "abc": [0.5, -0.0, 0.0], "properties": {"magmom": 0.0}, "label": "Al", "xyz": [2.768378625, 0.0, 0.0]}, {"species": [{"element": "Al", "occu": 1}], "abc": [0.5, 0.5, 0.5], "properties": {"magmom": -0.0}, "label": "Al", "xyz": [2.768378625, 2.92659512, 5.726173715]}, {"species": [{"element": "Al", "occu": 1}], "abc": [0.5, 0.59592845, 0.7503458900000001], "properties": {"magmom": -0.0}, "label": "Al", "xyz": [2.768378625, 3.488048502716797, 8.59323927257911]}, {"species": [{"element": "Al", "occu": 1}], "abc": [0.5, 0.40407155, 0.24965411], "properties": {"magmom": -0.0}, "label": "Al", "xyz": [2.768378625, 2.365141737283203, 2.859108157420892]}, {"species": [{"element": "Al", "occu": 1}], "abc": [0.5, 0.09597536, 0.74960203], "properties": {"magmom": -0.0}, "label": "Al", "xyz": [2.768378625, 0.5616177654176172, 8.584776735070726]}, {"species": [{"element": "Al", "occu": 1}], "abc": [0.5, 0.90402464, 0.25039797], "properties": {"magmom": -0.0}, "label": "Al", "xyz": [2.768378625, 5.291572474582383, 2.867570694929274]}, {"species": [{"element": "Al", "occu": 1}], "abc": [0.76161271, 0.8523435500000001, 0.59140709], "properties": {"magmom": -0.0}, "label": "Al", "xyz": [4.216864693784648, 4.988986544491768, 6.772969984034663]}, {"species": [{"element": "Al", "occu": 1}], "abc": [0.76161271, 0.14765645, 0.40859291000000003], "properties": {"magmom": -0.0}, "label": "Al", "xyz": [4.216864693784648, 0.8642036955082321, 4.679377445965337]}, {"species": [{"element": "Al", "occu": 1}], "abc": [0.23839312000000001, 0.352346699999999, 0.90857214], "properties": {"magmom": -0.0}, "label": "Al", "xyz": [1.31992483551012, 2.062229489894831, 10.405346660411066]}, {"species": [{"element": "Al", "occu": 1}], "abc": [0.23839312000000001, 0.6476533, 0.09142786], "properties": {"magmom": -0.0}, "label": "Al", "xyz": [1.31992483551012, 3.790960750105163, 1.047000769588934]}, {"species": [{"element": "Al", "occu": 1}], "abc": [0.23838729, 0.14765645, 0.40859291000000003], "properties": {"magmom": -0.0}, "label": "Al", "xyz": [1.3198925562153525, 0.8642036955082321, 4.679377445965337]}, {"species": [{"element": "Al", "occu": 1}], "abc": [0.23838729, 0.8523435500000001, 0.59140709], "properties": {"magmom": -0.0}, "label": "Al", "xyz": [1.3198925562153525, 4.988986544491768, 6.772969984034663]}, {"species": [{"element": "Al", "occu": 1}], "abc": [0.76160688, 0.6476533, 0.09142786], "properties": {"magmom": -0.0}, "label": "Al", "xyz": [4.21683241448988, 3.790960750105163, 1.047000769588934]}, {"species": [{"element": "Al", "occu": 1}], "abc": [0.76160688, 0.352346699999999, 0.90857214], "properties": {"magmom": -0.0}, "label": "Al", "xyz": [4.21683241448988, 2.062229489894831, 10.405346660411066]}]}, "task_ids": null, "uncorrected_energy_per_atom": null, "energy_per_atom": -21.93038625277778, "formation_energy_per_atom": -0.36647374055555304, "energy_above_hull": 0.021998454999994, "is_stable": false, "equilibrium_reaction_energy_per_atom": null, "decomposes_to": null, "xas": null, "grain_boundaries": null, "band_gap": 0.0, "cbm": null, "vbm": null, "efermi": 7.3811996, "is_gap_direct": null, "is_metal": null, "es_source_calc_id": null, "bandstructure": null, "dos": null, "dos_energy_up": null, "dos_energy_down": null, "is_magnetic": null, "ordering": null, "total_magnetization": 7e-07, "total_magnetization_normalized_vol": null, "total_magnetization_normalized_formula_units": null, "num_magnetic_sites": null, "num_unique_magnetic_sites": null, "types_of_magnetic_species": null, "bulk_modulus": null, "shear_modulus": null, "universal_anisotropy": null, "homogeneous_poisson": null, "e_total": null, "e_ionic": null, "e_electronic": null, "n": null, "e_ij_max": null, "weighted_surface_energy_EV_PER_ANG2": null, "weighted_surface_energy": null, "weighted_work_function": null, "surface_anisotropy": null, "shape_factor": null, "has_reconstructed": null, "possible_species": null, "has_props": null, "theoretical": null, "database_IDs": null, "fields_not_requested": ["builder_meta", "nsites", "elements", "nelements", "composition", "composition_reduced", "chemsys", "symmetry", "property_name", "deprecated", "deprecation_reasons", "last_updated", "origins", "warnings", "task_ids", "uncorrected_energy_per_atom", "equilibrium_reaction_energy_per_atom", "decomposes_to", "xas", "grain_boundaries", "cbm", "vbm", "is_gap_direct", "is_metal", "es_source_calc_id", "bandstructure", "dos", "dos_energy_up", "dos_energy_down", "is_magnetic", "ordering", "total_magnetization_normalized_vol", "total_magnetization_normalized_formula_units", "num_magnetic_sites", "num_unique_magnetic_sites", "types_of_magnetic_species", "bulk_modulus", "shear_modulus", "universal_anisotropy", "homogeneous_poisson", "e_total", "e_ionic", "e_electronic", "n", "e_ij_max", "weighted_surface_energy_EV_PER_ANG2", "weighted_surface_energy", "weighted_work_function", "surface_anisotropy", "shape_factor", "has_reconstructed", "possible_species", "has_props", "theoretical", "database_IDs"]}