{"builder_meta": null, "nsites": null, "elements": null, "nelements": null, "composition": null, "composition_reduced": null, "formula_pretty": "Th2Ag", "formula_anonymous": "AB2", "chemsys": null, "volume": 168.62064840482287, "density": 11.264763790966509, "density_atomic": 28.103441400803813, "symmetry": null, "property_name": null, "material_id": "mp-2233", "deprecated": null, "deprecation_reasons": null, "last_updated": null, "origins": null, "warnings": null, "structure": {"@module": "pymatgen.core.structure", "@class": "Structure", "charge": 0, "lattice": {"matrix": [[5.10128305, -0.0, 2.78647726], [2.55064153, 5.38599854, 1.39323811], [-0.03128186, -1e-08, 6.12003977]], "pbc": [true, true, true], "a": 5.81270541802304, "b": 6.1201196817218575, "c": 6.120119716243034, "alpha": 76.96679790915992, "beta": 61.64813753128865, "gamma": 61.648143418808004, "volume": 168.62064840482287}, "properties": {}, "sites": [{"species": [{"element": "Th", "occu": 1}], "abc": [0.65494942, 0.19010016, 0.5], "properties": {"magmom": -0.0}, "label": "Th", "xyz": [3.810318807808976, 1.0238791792137665, 5.149876337909287]}, {"species": [{"element": "Th", "occu": 1}], "abc": [0.84505058, 0.5, 0.80989984], "properties": {"magmom": -0.0}, "label": "Th", "xyz": [5.560827791737767, 2.6929992619010017, 8.007952510236446]}, {"species": [{"element": "Th", "occu": 1}], "abc": [0.34505058, 0.80989984, 0.5], "properties": {"magmom": -0.0}, "label": "Th", "xyz": [3.8103239121910244, 4.362119350786234, 5.149878802090713]}, {"species": [{"element": "Th", "occu": 1}], "abc": [0.15494942, 0.5, 0.19010016], "properties": {"magmom": -0.0}, "label": "Th", "xyz": [2.0598149282622336, 2.6929992680989985, 2.291802629763552]}, {"species": [{"element": "Ag", "occu": 1}], "abc": [0.75, -0.0, -0.0], "properties": {"magmom": -0.0}, "label": "Ag", "xyz": [3.8259622875000003, 0.0, 2.089857945]}, {"species": [{"element": "Ag", "occu": 1}], "abc": [0.25, 0.0, -0.0], "properties": {"magmom": -0.0}, "label": "Ag", "xyz": [1.2753207625, 0.0, 0.696619315]}]}, "task_ids": null, "uncorrected_energy_per_atom": null, "energy_per_atom": -5.954395609999996, "formation_energy_per_atom": -0.06417755055554801, "energy_above_hull": 0.018752311666671, "is_stable": false, "equilibrium_reaction_energy_per_atom": null, "decomposes_to": null, "xas": null, "grain_boundaries": null, "band_gap": 0.0, "cbm": null, "vbm": null, "efermi": 6.58620153, "is_gap_direct": null, "is_metal": null, "es_source_calc_id": null, "bandstructure": null, "dos": null, "dos_energy_up": null, "dos_energy_down": null, "is_magnetic": null, "ordering": null, "total_magnetization": 7.4e-06, "total_magnetization_normalized_vol": null, "total_magnetization_normalized_formula_units": null, "num_magnetic_sites": null, "num_unique_magnetic_sites": null, "types_of_magnetic_species": null, "bulk_modulus": null, "shear_modulus": null, "universal_anisotropy": null, "homogeneous_poisson": null, "e_total": null, "e_ionic": null, "e_electronic": null, "n": null, "e_ij_max": null, "weighted_surface_energy_EV_PER_ANG2": null, "weighted_surface_energy": null, "weighted_work_function": null, "surface_anisotropy": null, "shape_factor": null, "has_reconstructed": null, "possible_species": null, "has_props": null, "theoretical": null, "database_IDs": null, "fields_not_requested": ["builder_meta", "nsites", "elements", "nelements", "composition", "composition_reduced", "chemsys", "symmetry", "property_name", "deprecated", "deprecation_reasons", "last_updated", "origins", "warnings", "task_ids", "uncorrected_energy_per_atom", "equilibrium_reaction_energy_per_atom", "decomposes_to", "xas", "grain_boundaries", "cbm", "vbm", "is_gap_direct", "is_metal", "es_source_calc_id", "bandstructure", "dos", "dos_energy_up", "dos_energy_down", "is_magnetic", "ordering", "total_magnetization_normalized_vol", "total_magnetization_normalized_formula_units", "num_magnetic_sites", "num_unique_magnetic_sites", "types_of_magnetic_species", "bulk_modulus", "shear_modulus", "universal_anisotropy", "homogeneous_poisson", "e_total", "e_ionic", "e_electronic", "n", "e_ij_max", "weighted_surface_energy_EV_PER_ANG2", "weighted_surface_energy", "weighted_work_function", "surface_anisotropy", "shape_factor", "has_reconstructed", "possible_species", "has_props", "theoretical", "database_IDs"]}