{"builder_meta": null, "nsites": null, "elements": null, "nelements": null, "composition": null, "composition_reduced": null, "formula_pretty": "Th2Au", "formula_anonymous": "AB2", "chemsys": null, "volume": 167.8460718192168, "density": 13.079689001683734, "density_atomic": 27.9743453032028, "symmetry": null, "property_name": null, "material_id": "mp-1629", "deprecated": null, "deprecation_reasons": null, "last_updated": null, "origins": null, "warnings": null, "structure": {"@module": "pymatgen.core.structure", "@class": "Structure", "charge": 0, "lattice": {"matrix": [[5.21489344, 1e-08, 2.95694651], [2.60744724, 5.29133455, 1.47847377], [-0.0024762, 1e-08, 6.08135372]], "pbc": [true, true, true], "a": 5.994885007534024, "b": 6.081355697374175, "c": 6.081354224128395, "alpha": 75.93980132763694, "beta": 60.46924554433928, "gamma": 60.46924821434849, "volume": 167.8460718192168}, "properties": {}, "sites": [{"species": [{"element": "Th", "occu": 1}], "abc": [0.65762057, 0.18475687000000002, 0.5], "properties": {"magmom": 0.0}, "label": "Th", "xyz": [3.909926887254599, 0.9776104211570643, 5.258383895488011]}, {"species": [{"element": "Th", "occu": 1}], "abc": [0.84237943, 0.5, 0.81524313], "properties": {"magmom": 0.0}, "label": "Th", "xyz": [5.694623878459432, 2.6456672915762254, 8.187889641964233]}, {"species": [{"element": "Th", "occu": 1}], "abc": [0.34237943, 0.81524313, 0.5], "properties": {"magmom": 0.0}, "label": "Th", "xyz": [3.9099375927454, 4.313724148842937, 5.258390104511989]}, {"species": [{"element": "Th", "occu": 1}], "abc": [0.15762057000000002, 0.5, 0.18475687000000002], "properties": {"magmom": 0.0}, "label": "Th", "xyz": [2.125240601540567, 2.6456672784237747, 2.328884358035767]}, {"species": [{"element": "Au", "occu": 1}], "abc": [0.75, 0.0, -0.0], "properties": {"magmom": 0.0}, "label": "Au", "xyz": [3.9111700799999998, 7.500000000000001e-09, 2.2177098825]}, {"species": [{"element": "Au", "occu": 1}], "abc": [0.25, 0.0, -0.0], "properties": {"magmom": 0.0}, "label": "Au", "xyz": [1.30372336, 2.5e-09, 0.7392366275]}]}, "task_ids": null, "uncorrected_energy_per_atom": null, "energy_per_atom": -6.454430536666668, "formation_energy_per_atom": -0.420564369999998, "energy_above_hull": 0.0, "is_stable": true, "equilibrium_reaction_energy_per_atom": null, "decomposes_to": null, "xas": null, "grain_boundaries": null, "band_gap": 0.0, "cbm": null, "vbm": null, "efermi": 7.13224585, "is_gap_direct": null, "is_metal": null, "es_source_calc_id": null, "bandstructure": null, "dos": null, "dos_energy_up": null, "dos_energy_down": null, "is_magnetic": null, "ordering": null, "total_magnetization": 7.099999999999996e-06, "total_magnetization_normalized_vol": null, "total_magnetization_normalized_formula_units": null, "num_magnetic_sites": null, "num_unique_magnetic_sites": null, "types_of_magnetic_species": null, "bulk_modulus": null, "shear_modulus": null, "universal_anisotropy": null, "homogeneous_poisson": null, "e_total": null, "e_ionic": null, "e_electronic": null, "n": null, "e_ij_max": null, "weighted_surface_energy_EV_PER_ANG2": null, "weighted_surface_energy": null, "weighted_work_function": null, "surface_anisotropy": null, "shape_factor": null, "has_reconstructed": null, "possible_species": null, "has_props": null, "theoretical": null, "database_IDs": null, "fields_not_requested": ["builder_meta", "nsites", "elements", "nelements", "composition", "composition_reduced", "chemsys", "symmetry", "property_name", "deprecated", "deprecation_reasons", "last_updated", "origins", "warnings", "task_ids", "uncorrected_energy_per_atom", "equilibrium_reaction_energy_per_atom", "decomposes_to", "xas", "grain_boundaries", "cbm", "vbm", "is_gap_direct", "is_metal", "es_source_calc_id", "bandstructure", "dos", "dos_energy_up", "dos_energy_down", "is_magnetic", "ordering", "total_magnetization_normalized_vol", "total_magnetization_normalized_formula_units", "num_magnetic_sites", "num_unique_magnetic_sites", "types_of_magnetic_species", "bulk_modulus", "shear_modulus", "universal_anisotropy", "homogeneous_poisson", "e_total", "e_ionic", "e_electronic", "n", "e_ij_max", "weighted_surface_energy_EV_PER_ANG2", "weighted_surface_energy", "weighted_work_function", "surface_anisotropy", "shape_factor", "has_reconstructed", "possible_species", "has_props", "theoretical", "database_IDs"]}