{"builder_meta": null, "nsites": null, "elements": null, "nelements": null, "composition": null, "composition_reduced": null, "formula_pretty": "Th2Br5", "formula_anonymous": "A2B5", "chemsys": null, "volume": 768.94399990759, "density": 5.594822621139591, "density_atomic": 36.616380947980474, "symmetry": null, "property_name": null, "material_id": "mp-1191061", "deprecated": null, "deprecation_reasons": null, "last_updated": null, "origins": null, "warnings": null, "structure": {"@module": "pymatgen.core.structure", "@class": "Structure", "charge": 0, "lattice": {"matrix": [[-5.771361, 5.771361, 5.771361], [5.771361, -5.771361, 5.771361], [5.771361, 5.771361, -5.771361]], "pbc": [true, true, true], "a": 9.996290480821523, "b": 9.996290480821523, "c": 9.996290480821523, "alpha": 109.47122063449069, "beta": 109.47122063449069, "gamma": 109.47122063449069, "volume": 768.94399990759}, "properties": {}, "sites": [{"species": [{"element": "Th", "occu": 1}], "abc": [0.764347999999999, 0.764347999999999, 0.0], "properties": {"magmom": 0.41200000000000003}, "label": "Th", "xyz": [0.0, 0.0, 8.822656475255988]}, {"species": [{"element": "Th", "occu": 1}], "abc": [0.235652, 0.0, 0.235652], "properties": {"magmom": 0.41200000000000003}, "label": "Th", "xyz": [0.0, 2.7200655247439998, 0.0]}, {"species": [{"element": "Th", "occu": 1}], "abc": [0.0, 0.235652, 0.235652], "properties": {"magmom": 0.41200000000000003}, "label": "Th", "xyz": [2.7200655247439998, 0.0, 0.0]}, {"species": [{"element": "Th", "occu": 1}], "abc": [0.235652, 0.235652, 0.0], "properties": {"magmom": 0.41200000000000003}, "label": "Th", "xyz": [0.0, 0.0, 2.7200655247439998]}, {"species": [{"element": "Th", "occu": 1}], "abc": [0.764347999999999, 0.0, 0.764347999999999], "properties": {"magmom": 0.41200000000000003}, "label": "Th", "xyz": [0.0, 8.822656475255988, 0.0]}, {"species": [{"element": "Th", "occu": 1}], "abc": [0.0, 0.764347999999999, 0.764347999999999], "properties": {"magmom": 0.41200000000000003}, "label": "Th", "xyz": [8.822656475255988, 0.0, 0.0]}, {"species": [{"element": "Br", "occu": 1}], "abc": [0.746953, 0.0, 0.253046999999999], "properties": {"magmom": 0.003}, "label": "Br", "xyz": [-2.8505098260660056, 5.7713609999999935, 2.8505098260660056]}, {"species": [{"element": "Br", "occu": 1}], "abc": [0.0, 0.746953, 0.253046999999999], "properties": {"magmom": 0.003}, "label": "Br", "xyz": [5.7713609999999935, -2.8505098260660056, 2.8505098260660056]}, {"species": [{"element": "Br", "occu": 1}], "abc": [0.253046999999999, 0.253046999999999, 0.506093999999999], "properties": {"magmom": 0.003}, "label": "Br", "xyz": [2.920851173933994, 2.920851173933994, -5.773159728050814e-15]}, {"species": [{"element": "Br", "occu": 1}], "abc": [0.253046999999999, 0.506093999999999, 0.253046999999999], "properties": {"magmom": 0.003}, "label": "Br", "xyz": [2.920851173933994, -5.773159728050814e-15, 2.920851173933994]}, {"species": [{"element": "Br", "occu": 1}], "abc": [0.0, 0.253046999999999, 0.746953], "properties": {"magmom": 0.003}, "label": "Br", "xyz": [5.7713609999999935, 2.8505098260660056, -2.8505098260660056]}, {"species": [{"element": "Br", "occu": 1}], "abc": [0.746953, 0.253046999999999, 0.0], "properties": {"magmom": 0.003}, "label": "Br", "xyz": [-2.8505098260660056, 2.8505098260660056, 5.7713609999999935]}, {"species": [{"element": "Br", "occu": 1}], "abc": [0.253046999999999, 0.0, 0.746953], "properties": {"magmom": 0.003}, "label": "Br", "xyz": [2.8505098260660056, 5.7713609999999935, -2.8505098260660056]}, {"species": [{"element": "Br", "occu": 1}], "abc": [0.506093999999999, 0.253046999999999, 0.253046999999999], "properties": {"magmom": 0.003}, "label": "Br", "xyz": [-5.773159728050814e-15, 2.920851173933994, 2.920851173933994]}, {"species": [{"element": "Br", "occu": 1}], "abc": [0.253046999999999, 0.746953, 0.0], "properties": {"magmom": 0.003}, "label": "Br", "xyz": [2.8505098260660056, -2.8505098260660056, 5.7713609999999935]}, {"species": [{"element": "Br", "occu": 1}], "abc": [0.746953, 0.493905999999999, 0.746953], "properties": {"magmom": 0.003}, "label": "Br", "xyz": [2.850509826065994, 5.771361000000005, 2.850509826065994]}, {"species": [{"element": "Br", "occu": 1}], "abc": [0.493905999999999, 0.746953, 0.746953], "properties": {"magmom": 0.003}, "label": "Br", "xyz": [5.771361000000005, 2.850509826065994, 2.850509826065994]}, {"species": [{"element": "Br", "occu": 1}], "abc": [0.746953, 0.746953, 0.493905999999999], "properties": {"magmom": 0.003}, "label": "Br", "xyz": [2.850509826065994, 2.850509826065994, 5.771361000000005]}, {"species": [{"element": "Br", "occu": 1}], "abc": [0.5, 0.5, 0.0], "properties": {"magmom": 0.02}, "label": "Br", "xyz": [0.0, 0.0, 5.771361]}, {"species": [{"element": "Br", "occu": 1}], "abc": [0.5, 0.0, 0.5], "properties": {"magmom": 0.02}, "label": "Br", "xyz": [0.0, 5.771361, 0.0]}, {"species": [{"element": "Br", "occu": 1}], "abc": [0.0, 0.5, 0.5], "properties": {"magmom": 0.02}, "label": "Br", "xyz": [5.771361, 0.0, 0.0]}]}, "task_ids": null, "uncorrected_energy_per_atom": null, "energy_per_atom": -5.154306450952381, "formation_energy_per_atom": -1.8668137116666652, "energy_above_hull": 0.07176281333333101, "is_stable": false, "equilibrium_reaction_energy_per_atom": null, "decomposes_to": null, "xas": null, "grain_boundaries": null, "band_gap": 0.0, "cbm": null, "vbm": null, "efermi": 3.20922433, "is_gap_direct": null, "is_metal": null, "es_source_calc_id": null, "bandstructure": null, "dos": null, "dos_energy_up": null, "dos_energy_down": null, "is_magnetic": null, "ordering": null, "total_magnetization": 5.0017062, "total_magnetization_normalized_vol": null, "total_magnetization_normalized_formula_units": null, "num_magnetic_sites": null, "num_unique_magnetic_sites": null, "types_of_magnetic_species": null, "bulk_modulus": null, "shear_modulus": null, "universal_anisotropy": null, "homogeneous_poisson": null, "e_total": null, "e_ionic": null, "e_electronic": null, "n": null, "e_ij_max": null, "weighted_surface_energy_EV_PER_ANG2": null, "weighted_surface_energy": null, "weighted_work_function": null, "surface_anisotropy": null, "shape_factor": null, "has_reconstructed": null, "possible_species": null, "has_props": null, "theoretical": null, "database_IDs": null, "fields_not_requested": ["builder_meta", "nsites", "elements", "nelements", "composition", "composition_reduced", "chemsys", "symmetry", "property_name", "deprecated", "deprecation_reasons", "last_updated", "origins", "warnings", "task_ids", "uncorrected_energy_per_atom", "equilibrium_reaction_energy_per_atom", "decomposes_to", "xas", "grain_boundaries", "cbm", "vbm", "is_gap_direct", "is_metal", "es_source_calc_id", "bandstructure", "dos", "dos_energy_up", "dos_energy_down", "is_magnetic", "ordering", "total_magnetization_normalized_vol", "total_magnetization_normalized_formula_units", "num_magnetic_sites", "num_unique_magnetic_sites", "types_of_magnetic_species", "bulk_modulus", "shear_modulus", "universal_anisotropy", "homogeneous_poisson", "e_total", "e_ionic", "e_electronic", "n", "e_ij_max", "weighted_surface_energy_EV_PER_ANG2", "weighted_surface_energy", "weighted_work_function", "surface_anisotropy", "shape_factor", "has_reconstructed", "possible_species", "has_props", "theoretical", "database_IDs"]}