{
  "builder_meta": null,
  "nsites": null,
  "elements": null,
  "nelements": null,
  "composition": null,
  "composition_reduced": null,
  "formula_pretty": "Th2Cu",
  "formula_anonymous": "AB2",
  "chemsys": null,
  "volume": 153.46435028839687,
  "density": 11.418119465737002,
  "density_atomic": 25.577391714732812,
  "symmetry": null,
  "property_name": null,
  "material_id": "mp-1034",
  "deprecated": null,
  "deprecation_reasons": null,
  "last_updated": null,
  "origins": null,
  "warnings": null,
  "structure": {
    "@module": "pymatgen.core.structure",
    "@class": "Structure",
    "charge": 0,
    "lattice": {
      "matrix": [
        [5.01847145, 2e-8, 2.79793116],
        [2.5092367600000003, 5.1681008, 1.3989661],
        [-0.00741134, 1e-8, 5.91291571]
      ],
      "pbc": [true, true, true],
      "a": 5.745735328969134,
      "b": 5.912921540629907,
      "c": 5.9129203547422655,
      "alpha": 76.34572969429007,
      "beta": 60.93098743175271,
      "gamma": 60.93098132708656,
      "volume": 153.46435028839687
    },
    "properties": {},
    "sites": [
      {
        "species": [{ "element": "Th", "occu": 1 }],
        "abc": [0.16113955, 0.5, 0.17772291],
        "properties": { "magmom": 0.0 },
        "label": "Th",
        "xyz": [2.0619754462290483, 2.58405040500002, 2.2012010046192945]
      },
      {
        "species": [{ "element": "Th", "occu": 1 }],
        "abc": [0.33886045, 0.82227709, 0.5],
        "properties": { "magmom": 0.0 },
        "label": "Th",
        "xyz": [3.760143724992981, 4.249610898427882, 5.054903840663271]
      },
      {
        "species": [{ "element": "Th", "occu": 1 }],
        "abc": [0.66113955, 0.17772291, 0.5],
        "properties": { "magmom": 0.0 },
        "label": "Th",
        "xyz": [3.760153145007019, 0.9184899315721191, 5.054909129336729]
      },
      {
        "species": [{ "element": "Th", "occu": 1 }],
        "abc": [0.83886045, 0.5, 0.82227709],
        "properties": { "magmom": 0.0 },
        "label": "Th",
        "xyz": [5.458321423770951, 2.58405042499998, 7.908611965380706]
      },
      {
        "species": [{ "element": "Cu", "occu": 1 }],
        "abc": [0.25, -0.0, -0.0],
        "properties": { "magmom": 0.0 },
        "label": "Cu",
        "xyz": [1.2546178625, 5e-9, 0.69948279]
      },
      {
        "species": [{ "element": "Cu", "occu": 1 }],
        "abc": [0.75, -0.0, -0.0],
        "properties": { "magmom": 0.0 },
        "label": "Cu",
        "xyz": [3.7638535875, 1.5000000000000002e-8, 2.09844837]
      }
    ]
  },
  "task_ids": null,
  "uncorrected_energy_per_atom": null,
  "energy_per_atom": -6.404541821666669,
  "formation_energy_per_atom": -0.09556743166666501,
  "energy_above_hull": 0.0051136466666660005,
  "is_stable": false,
  "equilibrium_reaction_energy_per_atom": null,
  "decomposes_to": null,
  "xas": null,
  "grain_boundaries": null,
  "band_gap": 0.0,
  "cbm": null,
  "vbm": null,
  "efermi": 7.60575669,
  "is_gap_direct": null,
  "is_metal": null,
  "es_source_calc_id": null,
  "bandstructure": null,
  "dos": null,
  "dos_energy_up": null,
  "dos_energy_down": null,
  "is_magnetic": null,
  "ordering": null,
  "total_magnetization": 0.0001752,
  "total_magnetization_normalized_vol": null,
  "total_magnetization_normalized_formula_units": null,
  "num_magnetic_sites": null,
  "num_unique_magnetic_sites": null,
  "types_of_magnetic_species": null,
  "bulk_modulus": null,
  "shear_modulus": null,
  "universal_anisotropy": null,
  "homogeneous_poisson": null,
  "e_total": null,
  "e_ionic": null,
  "e_electronic": null,
  "n": null,
  "e_ij_max": null,
  "weighted_surface_energy_EV_PER_ANG2": null,
  "weighted_surface_energy": null,
  "weighted_work_function": null,
  "surface_anisotropy": null,
  "shape_factor": null,
  "has_reconstructed": null,
  "possible_species": null,
  "has_props": null,
  "theoretical": null,
  "database_IDs": null,
  "fields_not_requested": [
    "builder_meta",
    "nsites",
    "elements",
    "nelements",
    "composition",
    "composition_reduced",
    "chemsys",
    "symmetry",
    "property_name",
    "deprecated",
    "deprecation_reasons",
    "last_updated",
    "origins",
    "warnings",
    "task_ids",
    "uncorrected_energy_per_atom",
    "equilibrium_reaction_energy_per_atom",
    "decomposes_to",
    "xas",
    "grain_boundaries",
    "cbm",
    "vbm",
    "is_gap_direct",
    "is_metal",
    "es_source_calc_id",
    "bandstructure",
    "dos",
    "dos_energy_up",
    "dos_energy_down",
    "is_magnetic",
    "ordering",
    "total_magnetization_normalized_vol",
    "total_magnetization_normalized_formula_units",
    "num_magnetic_sites",
    "num_unique_magnetic_sites",
    "types_of_magnetic_species",
    "bulk_modulus",
    "shear_modulus",
    "universal_anisotropy",
    "homogeneous_poisson",
    "e_total",
    "e_ionic",
    "e_electronic",
    "n",
    "e_ij_max",
    "weighted_surface_energy_EV_PER_ANG2",
    "weighted_surface_energy",
    "weighted_work_function",
    "surface_anisotropy",
    "shape_factor",
    "has_reconstructed",
    "possible_species",
    "has_props",
    "theoretical",
    "database_IDs"
  ]
}
