{"builder_meta": null, "nsites": null, "elements": null, "nelements": null, "composition": null, "composition_reduced": null, "formula_pretty": "Th2Co7", "formula_anonymous": "A2B7", "chemsys": null, "volume": 265.09623038660175, "density": 10.981994224004701, "density_atomic": 14.727568354811208, "symmetry": null, "property_name": null, "material_id": "mp-1188546", "deprecated": null, "deprecation_reasons": null, "last_updated": null, "origins": null, "warnings": null, "structure": {"@module": "pymatgen.core.structure", "@class": "Structure", "charge": 0, "lattice": {"matrix": [[-2.482091999999999, -4.299109, 0.0], [-4.9641839999999995, 0.0, 0.0], [-2.482091999999999, -1.433036, -12.421591]], "pbc": [true, true, true], "a": 4.964183607638319, "b": 4.9641839999999995, "c": 12.747952613852979, "alpha": 78.77250032325982, "beta": 78.77250194567478, "gamma": 59.999997385427065, "volume": 265.09623038660175}, "properties": {}, "sites": [{"species": [{"element": "Th", "occu": 1}], "abc": [0.949189, 0.949189, 0.152432999999999], "properties": {"magmom": -0.139}, "label": "Th", "xyz": [-7.446275999999996, -4.299108949188998, -1.8934603809029877]}, {"species": [{"element": "Th", "occu": 1}], "abc": [0.050810999999999, 0.050810999999999, 0.847567], "properties": {"magmom": -0.139}, "label": "Th", "xyz": [-2.4820919999999913, -1.4330360508109956, -10.528130619096999]}, {"species": [{"element": "Th", "occu": 1}], "abc": [0.853772, 0.853772, 0.438683], "properties": {"magmom": -0.156}, "label": "Th", "xyz": [-7.446273517907998, -4.299107420736, -5.449140804652999]}, {"species": [{"element": "Th", "occu": 1}], "abc": [0.146228, 0.146228, 0.561317], "properties": {"magmom": -0.156}, "label": "Th", "xyz": [-2.4820944820919992, -1.433037579264, -6.972450195346999]}, {"species": [{"element": "Co", "occu": 1}], "abc": [0.5, 0.5, 0.5], "properties": {"magmom": 0.356}, "label": "Co", "xyz": [-4.964183999999999, -2.8660724999999996, -6.2107955]}, {"species": [{"element": "Co", "occu": 1}], "abc": [0.721654, 0.721654, 0.835039], "properties": {"magmom": 0.883}, "label": "Co", "xyz": [-7.446278482091999, -4.29911015469, -10.372512927049]}, {"species": [{"element": "Co", "occu": 1}], "abc": [0.278346, 0.278346, 0.164961], "properties": {"magmom": 0.883}, "label": "Co", "xyz": [-2.4820895179079994, -1.43303484531, -2.0490780729509996]}, {"species": [{"element": "Co", "occu": 1}], "abc": [0.611947999999999, 0.611947999999999, 0.164155], "properties": {"magmom": 0.925}, "label": "Co", "xyz": [-4.964181517907992, -2.8660711789119957, -2.039066270605]}, {"species": [{"element": "Co", "occu": 1}], "abc": [0.388052, 0.388052, 0.835845], "properties": {"magmom": 0.925}, "label": "Co", "xyz": [-4.964186482091998, -2.8660738210879995, -10.382524729395]}, {"species": [{"element": "Co", "occu": 1}], "abc": [0.0, 0.5, 0.0], "properties": {"magmom": 0.399}, "label": "Co", "xyz": [-2.4820919999999997, 0.0, 0.0]}, {"species": [{"element": "Co", "occu": 1}], "abc": [0.5, 0.0, 0.0], "properties": {"magmom": 0.399}, "label": "Co", "xyz": [-1.2410459999999994, -2.1495545, 0.0]}, {"species": [{"element": "Co", "occu": 1}], "abc": [0.5, 0.5, 0.0], "properties": {"magmom": 0.399}, "label": "Co", "xyz": [-3.723137999999999, -2.1495545, 0.0]}, {"species": [{"element": "Co", "occu": 1}], "abc": [0.392501999999999, 0.392501999999999, 0.324565], "properties": {"magmom": 0.502}, "label": "Co", "xyz": [-3.728278412531991, -2.1525222100579957, -4.031613682914999]}, {"species": [{"element": "Co", "occu": 1}], "abc": [0.89043, 0.392501999999999, 0.324565], "properties": {"magmom": 0.502}, "label": "Co", "xyz": [-4.964181517907994, -4.29316895621, -4.031613682914999]}, {"species": [{"element": "Co", "occu": 1}], "abc": [0.392501999999999, 0.89043, 0.324565], "properties": {"magmom": 0.502}, "label": "Co", "xyz": [-6.200084623283997, -2.1525222100579957, -4.031613682914999]}, {"species": [{"element": "Co", "occu": 1}], "abc": [0.607498, 0.607498, 0.675435], "properties": {"magmom": 0.502}, "label": "Co", "xyz": [-6.200089587467998, -3.579622789942, -8.389977317085]}, {"species": [{"element": "Co", "occu": 1}], "abc": [0.10957000000000001, 0.607498, 0.675435], "properties": {"magmom": 0.502}, "label": "Co", "xyz": [-4.964186482091999, -1.43897604379, -8.389977317085]}, {"species": [{"element": "Co", "occu": 1}], "abc": [0.607498, 0.10957000000000001, 0.675435], "properties": {"magmom": 0.502}, "label": "Co", "xyz": [-3.728283376715998, -3.579622789942, -8.389977317085]}]}, "task_ids": null, "uncorrected_energy_per_atom": null, "energy_per_atom": -26.697198978333333, "formation_energy_per_atom": -0.076072066111107, "energy_above_hull": 0.023621760555556003, "is_stable": false, "equilibrium_reaction_energy_per_atom": null, "decomposes_to": null, "xas": null, "grain_boundaries": null, "band_gap": 0.0, "cbm": null, "vbm": null, "efermi": 6.63957934, "is_gap_direct": null, "is_metal": null, "es_source_calc_id": null, "bandstructure": null, "dos": null, "dos_energy_up": null, "dos_energy_down": null, "is_magnetic": null, "ordering": null, "total_magnetization": 6.6311172, "total_magnetization_normalized_vol": null, "total_magnetization_normalized_formula_units": null, "num_magnetic_sites": null, "num_unique_magnetic_sites": null, "types_of_magnetic_species": null, "bulk_modulus": null, "shear_modulus": null, "universal_anisotropy": null, "homogeneous_poisson": null, "e_total": null, "e_ionic": null, "e_electronic": null, "n": null, "e_ij_max": null, "weighted_surface_energy_EV_PER_ANG2": null, "weighted_surface_energy": null, "weighted_work_function": null, "surface_anisotropy": null, "shape_factor": null, "has_reconstructed": null, "possible_species": null, "has_props": null, "theoretical": null, "database_IDs": null, "fields_not_requested": ["builder_meta", "nsites", "elements", "nelements", "composition", "composition_reduced", "chemsys", "symmetry", "property_name", "deprecated", "deprecation_reasons", "last_updated", "origins", "warnings", "task_ids", "uncorrected_energy_per_atom", "equilibrium_reaction_energy_per_atom", "decomposes_to", "xas", "grain_boundaries", "cbm", "vbm", "is_gap_direct", "is_metal", "es_source_calc_id", "bandstructure", "dos", "dos_energy_up", "dos_energy_down", "is_magnetic", "ordering", "total_magnetization_normalized_vol", "total_magnetization_normalized_formula_units", "num_magnetic_sites", "num_unique_magnetic_sites", "types_of_magnetic_species", "bulk_modulus", "shear_modulus", "universal_anisotropy", "homogeneous_poisson", "e_total", "e_ionic", "e_electronic", "n", "e_ij_max", "weighted_surface_energy_EV_PER_ANG2", "weighted_surface_energy", "weighted_work_function", "surface_anisotropy", "shape_factor", "has_reconstructed", "possible_species", "has_props", "theoretical", "database_IDs"]}