{
  "builder_meta": null,
  "nsites": null,
  "elements": null,
  "nelements": null,
  "composition": null,
  "composition_reduced": null,
  "formula_pretty": "Th2C3",
  "formula_anonymous": "A2B3",
  "chemsys": null,
  "volume": 314.23680077044617,
  "density": 10.57099912934056,
  "density_atomic": 15.711840038522308,
  "symmetry": null,
  "property_name": null,
  "material_id": "mp-1188514",
  "deprecated": null,
  "deprecation_reasons": null,
  "last_updated": null,
  "origins": null,
  "warnings": null,
  "structure": {
    "@module": "pymatgen.core.structure",
    "@class": "Structure",
    "charge": 0,
    "lattice": {
      "matrix": [
        [-4.28284494, -4.28284494, 4.28284494],
        [-4.28284494, 4.28284494, -4.28284494],
        [4.28284494, -4.28284494, -4.28284494]
      ],
      "pbc": [true, true, true],
      "a": 7.418105037019281,
      "b": 7.418105037019281,
      "c": 7.418105037019281,
      "alpha": 109.47122063449069,
      "beta": 109.47122063449069,
      "gamma": 109.47122063449069,
      "volume": 314.23680077044617
    },
    "properties": {},
    "sites": [
      {
        "species": [{ "element": "Th", "occu": 1 }],
        "abc": [0.09408633, -0.0, 0.5],
        "properties": { "magmom": 0.0 },
        "label": "Th",
        "xyz": [1.73846530763633, -2.5443796323636705, -1.73846530763633]
      },
      {
        "species": [{ "element": "Th", "occu": 1 }],
        "abc": [0.0, 0.5, 0.09408633],
        "properties": { "magmom": 0.0 },
        "label": "Th",
        "xyz": [-1.73846530763633, 1.73846530763633, -2.5443796323636705]
      },
      {
        "species": [{ "element": "Th", "occu": 1 }],
        "abc": [0.5, 0.09408633, -0.0],
        "properties": { "magmom": 0.0 },
        "label": "Th",
        "xyz": [-2.5443796323636705, -1.73846530763633, 1.73846530763633]
      },
      {
        "species": [{ "element": "Th", "occu": 1 }],
        "abc": [0.40591367, 0.40591367, 0.40591367],
        "properties": { "magmom": 0.0 },
        "label": "Th",
        "xyz": [-1.73846530763633, -1.73846530763633, -1.73846530763633]
      },
      {
        "species": [{ "element": "Th", "occu": 1 }],
        "abc": [0.0, 0.5, 0.59408633],
        "properties": { "magmom": 0.0 },
        "label": "Th",
        "xyz": [0.4029571623636703, -0.4029571623636703, -4.68580210236367]
      },
      {
        "species": [{ "element": "Th", "occu": 1 }],
        "abc": [0.59408633, -0.0, 0.5],
        "properties": { "magmom": 0.0 },
        "label": "Th",
        "xyz": [-0.4029571623636703, -4.68580210236367, 0.4029571623636703]
      },
      {
        "species": [{ "element": "Th", "occu": 1 }],
        "abc": [0.5, 0.59408633, -0.0],
        "properties": { "magmom": 0.0 },
        "label": "Th",
        "xyz": [-4.68580210236367, 0.4029571623636703, -0.4029571623636703]
      },
      {
        "species": [{ "element": "Th", "occu": 1 }],
        "abc": [0.90591367, 0.90591367, 0.90591367],
        "properties": { "magmom": 0.0 },
        "label": "Th",
        "xyz": [-3.87988777763633, -3.87988777763633, -3.87988777763633]
      },
      {
        "species": [{ "element": "C", "occu": 1 }],
        "abc": [0.292439599999999, 0.75, 0.5424396],
        "properties": { "magmom": -0.0 },
        "label": "C",
        "xyz": [-2.1414224699999957, -0.36352445223124374, -4.282844940000005]
      },
      {
        "species": [{ "element": "C", "occu": 1 }],
        "abc": [0.207560399999999, 0.25, 0.9575604],
        "properties": { "magmom": -0.0 },
        "label": "C",
        "xyz": [2.1414224700000046, -3.919320487768748, -4.282844940000005]
      },
      {
        "species": [{ "element": "C", "occu": 1 }],
        "abc": [0.0424396, 0.25, 0.792439599999999],
        "properties": { "magmom": -0.0 },
        "label": "C",
        "xyz": [2.141422469999996, -2.504946922231244, -4.282844939999997]
      },
      {
        "species": [{ "element": "C", "occu": 1 }],
        "abc": [0.4575604, 0.75, 0.7075604],
        "properties": { "magmom": -0.0 },
        "label": "C",
        "xyz": [-2.14142247, -1.777898017768752, -4.28284494]
      },
      {
        "species": [{ "element": "C", "occu": 1 }],
        "abc": [0.75, 0.5424396, 0.292439599999999],
        "properties": { "magmom": -0.0 },
        "label": "C",
        "xyz": [-4.282844940000005, -2.1414224699999957, -0.36352445223124374]
      },
      {
        "species": [{ "element": "C", "occu": 1 }],
        "abc": [0.25, 0.9575604, 0.207560399999999],
        "properties": { "magmom": -0.0 },
        "label": "C",
        "xyz": [-4.282844940000005, 2.1414224700000046, -3.919320487768748]
      },
      {
        "species": [{ "element": "C", "occu": 1 }],
        "abc": [0.25, 0.792439599999999, 0.0424396],
        "properties": { "magmom": -0.0 },
        "label": "C",
        "xyz": [-4.282844939999996, 2.141422469999996, -2.504946922231244]
      },
      {
        "species": [{ "element": "C", "occu": 1 }],
        "abc": [0.75, 0.7075604, 0.4575604],
        "properties": { "magmom": -0.0 },
        "label": "C",
        "xyz": [-4.28284494, -2.14142247, -1.777898017768752]
      },
      {
        "species": [{ "element": "C", "occu": 1 }],
        "abc": [0.5424396, 0.292439599999999, 0.75],
        "properties": { "magmom": -0.0 },
        "label": "C",
        "xyz": [-0.3635244522312435, -4.282844940000005, -2.1414224699999957]
      },
      {
        "species": [{ "element": "C", "occu": 1 }],
        "abc": [0.9575604, 0.207560399999999, 0.25],
        "properties": { "magmom": -0.0 },
        "label": "C",
        "xyz": [-3.919320487768748, -4.282844940000005, 2.1414224700000046]
      },
      {
        "species": [{ "element": "C", "occu": 1 }],
        "abc": [0.792439599999999, 0.0424396, 0.25],
        "properties": { "magmom": -0.0 },
        "label": "C",
        "xyz": [-2.504946922231244, -4.282844939999997, 2.141422469999996]
      },
      {
        "species": [{ "element": "C", "occu": 1 }],
        "abc": [0.7075604, 0.4575604, 0.75],
        "properties": { "magmom": -0.0 },
        "label": "C",
        "xyz": [-1.7778980177687522, -4.28284494, -2.14142247]
      }
    ]
  },
  "task_ids": null,
  "uncorrected_energy_per_atom": null,
  "energy_per_atom": -8.7661817095,
  "formation_energy_per_atom": -0.26343911399999903,
  "energy_above_hull": 0.0,
  "is_stable": true,
  "equilibrium_reaction_energy_per_atom": null,
  "decomposes_to": null,
  "xas": null,
  "grain_boundaries": null,
  "band_gap": 0.0,
  "cbm": null,
  "vbm": null,
  "efermi": 8.0943384,
  "is_gap_direct": null,
  "is_metal": null,
  "es_source_calc_id": null,
  "bandstructure": null,
  "dos": null,
  "dos_energy_up": null,
  "dos_energy_down": null,
  "is_magnetic": null,
  "ordering": null,
  "total_magnetization": 1e-7,
  "total_magnetization_normalized_vol": null,
  "total_magnetization_normalized_formula_units": null,
  "num_magnetic_sites": null,
  "num_unique_magnetic_sites": null,
  "types_of_magnetic_species": null,
  "bulk_modulus": null,
  "shear_modulus": null,
  "universal_anisotropy": null,
  "homogeneous_poisson": null,
  "e_total": null,
  "e_ionic": null,
  "e_electronic": null,
  "n": null,
  "e_ij_max": null,
  "weighted_surface_energy_EV_PER_ANG2": null,
  "weighted_surface_energy": null,
  "weighted_work_function": null,
  "surface_anisotropy": null,
  "shape_factor": null,
  "has_reconstructed": null,
  "possible_species": null,
  "has_props": null,
  "theoretical": null,
  "database_IDs": null,
  "fields_not_requested": [
    "builder_meta",
    "nsites",
    "elements",
    "nelements",
    "composition",
    "composition_reduced",
    "chemsys",
    "symmetry",
    "property_name",
    "deprecated",
    "deprecation_reasons",
    "last_updated",
    "origins",
    "warnings",
    "task_ids",
    "uncorrected_energy_per_atom",
    "equilibrium_reaction_energy_per_atom",
    "decomposes_to",
    "xas",
    "grain_boundaries",
    "cbm",
    "vbm",
    "is_gap_direct",
    "is_metal",
    "es_source_calc_id",
    "bandstructure",
    "dos",
    "dos_energy_up",
    "dos_energy_down",
    "is_magnetic",
    "ordering",
    "total_magnetization_normalized_vol",
    "total_magnetization_normalized_formula_units",
    "num_magnetic_sites",
    "num_unique_magnetic_sites",
    "types_of_magnetic_species",
    "bulk_modulus",
    "shear_modulus",
    "universal_anisotropy",
    "homogeneous_poisson",
    "e_total",
    "e_ionic",
    "e_electronic",
    "n",
    "e_ij_max",
    "weighted_surface_energy_EV_PER_ANG2",
    "weighted_surface_energy",
    "weighted_work_function",
    "surface_anisotropy",
    "shape_factor",
    "has_reconstructed",
    "possible_species",
    "has_props",
    "theoretical",
    "database_IDs"
  ]
}
