{
  "builder_meta": null,
  "nsites": null,
  "elements": null,
  "nelements": null,
  "composition": null,
  "composition_reduced": null,
  "formula_pretty": "Th2Hg",
  "formula_anonymous": "AB2",
  "chemsys": null,
  "volume": 178.22373992118852,
  "density": 12.385600919310829,
  "density_atomic": 29.70395665353142,
  "symmetry": null,
  "property_name": null,
  "material_id": "mp-30723",
  "deprecated": null,
  "deprecation_reasons": null,
  "last_updated": null,
  "origins": null,
  "warnings": null,
  "structure": {
    "@module": "pymatgen.core.structure",
    "@class": "Structure",
    "charge": 0,
    "lattice": {
      "matrix": [
        [5.15928234, -3.0000000000000004e-8, 2.79774695],
        [2.57963963, 5.51060593, 1.398871929999999],
        [-0.04724426, -3.0000000000000004e-8, 6.2430722]
      ],
      "pbc": [true, true, true],
      "a": 5.869035888463298,
      "b": 6.243249235210751,
      "c": 6.24325095719496,
      "alpha": 77.23643175940062,
      "beta": 61.963730523441804,
      "gamma": 61.963741653609226,
      "volume": 178.22373992118855
    },
    "properties": {},
    "sites": [
      {
        "species": [{ "element": "Th", "occu": 1 }],
        "abc": [0.15369445, 0.5, 0.19261009],
        "properties": { "magmom": 0.0 },
        "label": "Th",
        "xyz": [2.0736731554704297, 2.7553029546108636, 2.331912842037925]
      },
      {
        "species": [{ "element": "Th", "occu": 1 }],
        "abc": [0.34630555, 0.80738991, 0.5],
        "properties": { "magmom": 0.0 },
        "label": "Th",
        "xyz": [3.8458409870571204, 4.449207600478999, 5.219846477944799]
      },
      {
        "species": [{ "element": "Th", "occu": 1 }],
        "abc": [0.65369445, 0.19261009, 0.5],
        "properties": { "magmom": 0.0 },
        "label": "Th",
        "xyz": [3.8458367229428796, 1.0613982695210005, 5.219844602055201]
      },
      {
        "species": [{ "element": "Th", "occu": 1 }],
        "abc": [0.8463055500000001, 0.5, 0.80738991],
        "properties": { "magmom": 0.0 },
        "label": "Th",
        "xyz": [5.618004554529571, 2.7553029153891364, 8.107778237962076]
      },
      {
        "species": [{ "element": "Hg", "occu": 1 }],
        "abc": [0.25, 0.0, -0.0],
        "properties": { "magmom": -0.0 },
        "label": "Hg",
        "xyz": [1.289820585, -7.500000000000001e-9, 0.6994367375]
      },
      {
        "species": [{ "element": "Hg", "occu": 1 }],
        "abc": [0.75, -0.0, -0.0],
        "properties": { "magmom": -0.0 },
        "label": "Hg",
        "xyz": [3.8694617549999997, -2.2500000000000003e-8, 2.0983102125]
      }
    ]
  },
  "task_ids": null,
  "uncorrected_energy_per_atom": null,
  "energy_per_atom": -65.64305042,
  "formation_energy_per_atom": -0.203606812499998,
  "energy_above_hull": 0.0,
  "is_stable": true,
  "equilibrium_reaction_energy_per_atom": null,
  "decomposes_to": null,
  "xas": null,
  "grain_boundaries": null,
  "band_gap": 0.0,
  "cbm": null,
  "vbm": null,
  "efermi": 6.32311897,
  "is_gap_direct": null,
  "is_metal": null,
  "es_source_calc_id": null,
  "bandstructure": null,
  "dos": null,
  "dos_energy_up": null,
  "dos_energy_down": null,
  "is_magnetic": null,
  "ordering": null,
  "total_magnetization": 1.899999999999999e-6,
  "total_magnetization_normalized_vol": null,
  "total_magnetization_normalized_formula_units": null,
  "num_magnetic_sites": null,
  "num_unique_magnetic_sites": null,
  "types_of_magnetic_species": null,
  "bulk_modulus": null,
  "shear_modulus": null,
  "universal_anisotropy": null,
  "homogeneous_poisson": null,
  "e_total": null,
  "e_ionic": null,
  "e_electronic": null,
  "n": null,
  "e_ij_max": null,
  "weighted_surface_energy_EV_PER_ANG2": null,
  "weighted_surface_energy": null,
  "weighted_work_function": null,
  "surface_anisotropy": null,
  "shape_factor": null,
  "has_reconstructed": null,
  "possible_species": null,
  "has_props": null,
  "theoretical": null,
  "database_IDs": null,
  "fields_not_requested": [
    "builder_meta",
    "nsites",
    "elements",
    "nelements",
    "composition",
    "composition_reduced",
    "chemsys",
    "symmetry",
    "property_name",
    "deprecated",
    "deprecation_reasons",
    "last_updated",
    "origins",
    "warnings",
    "task_ids",
    "uncorrected_energy_per_atom",
    "equilibrium_reaction_energy_per_atom",
    "decomposes_to",
    "xas",
    "grain_boundaries",
    "cbm",
    "vbm",
    "is_gap_direct",
    "is_metal",
    "es_source_calc_id",
    "bandstructure",
    "dos",
    "dos_energy_up",
    "dos_energy_down",
    "is_magnetic",
    "ordering",
    "total_magnetization_normalized_vol",
    "total_magnetization_normalized_formula_units",
    "num_magnetic_sites",
    "num_unique_magnetic_sites",
    "types_of_magnetic_species",
    "bulk_modulus",
    "shear_modulus",
    "universal_anisotropy",
    "homogeneous_poisson",
    "e_total",
    "e_ionic",
    "e_electronic",
    "n",
    "e_ij_max",
    "weighted_surface_energy_EV_PER_ANG2",
    "weighted_surface_energy",
    "weighted_work_function",
    "surface_anisotropy",
    "shape_factor",
    "has_reconstructed",
    "possible_species",
    "has_props",
    "theoretical",
    "database_IDs"
  ]
}
