{"builder_meta": null, "nsites": null, "elements": null, "nelements": null, "composition": null, "composition_reduced": null, "formula_pretty": "Th2In", "formula_anonymous": "AB2", "chemsys": null, "volume": 185.2421793750294, "density": 10.378589853867895, "density_atomic": 30.8736965625049, "symmetry": null, "property_name": null, "material_id": "mp-21428", "deprecated": null, "deprecation_reasons": null, "last_updated": null, "origins": null, "warnings": null, "structure": {"@module": "pymatgen.core.structure", "@class": "Structure", "charge": 0, "lattice": {"matrix": [[-3.92154264, 3.92154264, 3.01138309], [3.92154264, -3.92154264, 3.01138309], [3.92154264, 3.92154264, -3.01138309]], "pbc": [true, true, true], "a": 6.3107385835109895, "b": 6.3107385835109895, "c": 6.3107385835109895, "alpha": 103.16196427647131, "beta": 103.16196427647131, "gamma": 122.99671695321229, "volume": 185.2421793750294}, "properties": {}, "sites": [{"species": [{"element": "Th", "occu": 1}], "abc": [0.65256753, 0.15256753, 0.80513406], "properties": {"magmom": -0.0}, "label": "Th", "xyz": [1.1965962272063184, 5.118138867206318, 3.011383090001374e-06]}, {"species": [{"element": "Th", "occu": 1}], "abc": [0.84743247, 0.65256753, 0.5], "properties": {"magmom": -0.0}, "label": "Th", "xyz": [1.1966001487489581, 2.724942491251042, 3.0113830900000003]}, {"species": [{"element": "Th", "occu": 1}], "abc": [0.15256753, 0.34743247, 0.5], "properties": {"magmom": -0.0}, "label": "Th", "xyz": [2.7249424912510416, 1.1966001487489586, 0.0]}, {"species": [{"element": "Th", "occu": 1}], "abc": [0.34743247, 0.84743247, 0.19486594000000002], "properties": {"magmom": -0.0}, "label": "Th", "xyz": [2.724946412793682, -1.1965962272063186, 3.01138007861691]}, {"species": [{"element": "In", "occu": 1}], "abc": [0.75, 0.75, -0.0], "properties": {"magmom": -0.0}, "label": "In", "xyz": [0.0, 0.0, 4.517074635]}, {"species": [{"element": "In", "occu": 1}], "abc": [0.25, 0.25, -0.0], "properties": {"magmom": -0.0}, "label": "In", "xyz": [0.0, 0.0, 1.505691545]}]}, "task_ids": null, "uncorrected_energy_per_atom": null, "energy_per_atom": -56.78963306, "formation_energy_per_atom": -0.27992816666665904, "energy_above_hull": 0.0, "is_stable": true, "equilibrium_reaction_energy_per_atom": null, "decomposes_to": null, "xas": null, "grain_boundaries": null, "band_gap": 0.0, "cbm": null, "vbm": null, "efermi": 7.34971521, "is_gap_direct": null, "is_metal": null, "es_source_calc_id": null, "bandstructure": null, "dos": null, "dos_energy_up": null, "dos_energy_down": null, "is_magnetic": null, "ordering": null, "total_magnetization": 2e-07, "total_magnetization_normalized_vol": null, "total_magnetization_normalized_formula_units": null, "num_magnetic_sites": null, "num_unique_magnetic_sites": null, "types_of_magnetic_species": null, "bulk_modulus": null, "shear_modulus": null, "universal_anisotropy": null, "homogeneous_poisson": null, "e_total": null, "e_ionic": null, "e_electronic": null, "n": null, "e_ij_max": null, "weighted_surface_energy_EV_PER_ANG2": null, "weighted_surface_energy": null, "weighted_work_function": null, "surface_anisotropy": null, "shape_factor": null, "has_reconstructed": null, "possible_species": null, "has_props": null, "theoretical": null, "database_IDs": null, "fields_not_requested": ["builder_meta", "nsites", "elements", "nelements", "composition", "composition_reduced", "chemsys", "symmetry", "property_name", "deprecated", "deprecation_reasons", "last_updated", "origins", "warnings", "task_ids", "uncorrected_energy_per_atom", "equilibrium_reaction_energy_per_atom", "decomposes_to", "xas", "grain_boundaries", "cbm", "vbm", "is_gap_direct", "is_metal", "es_source_calc_id", "bandstructure", "dos", "dos_energy_up", "dos_energy_down", "is_magnetic", "ordering", "total_magnetization_normalized_vol", "total_magnetization_normalized_formula_units", "num_magnetic_sites", "num_unique_magnetic_sites", "types_of_magnetic_species", "bulk_modulus", "shear_modulus", "universal_anisotropy", "homogeneous_poisson", "e_total", "e_ionic", "e_electronic", "n", "e_ij_max", "weighted_surface_energy_EV_PER_ANG2", "weighted_surface_energy", "weighted_work_function", "surface_anisotropy", "shape_factor", "has_reconstructed", "possible_species", "has_props", "theoretical", "database_IDs"]}