{
  "builder_meta": null,
  "nsites": null,
  "elements": null,
  "nelements": null,
  "composition": null,
  "composition_reduced": null,
  "formula_pretty": "Th2Se3",
  "formula_anonymous": "A2B3",
  "chemsys": null,
  "volume": 529.8638927037828,
  "density": 8.786898199784034,
  "density_atomic": 26.493194635189138,
  "symmetry": null,
  "property_name": null,
  "material_id": "mp-1105994",
  "deprecated": null,
  "deprecation_reasons": null,
  "last_updated": null,
  "origins": null,
  "warnings": null,
  "structure": {
    "@module": "pymatgen.core.structure",
    "@class": "Structure",
    "charge": 0,
    "lattice": {
      "matrix": [
        [11.32628259, 0.0, 0.0],
        [0.0, 4.05383144, 0.0],
        [0.0, -0.0, 11.54014448]
      ],
      "pbc": [true, true, true],
      "a": 11.32628259,
      "b": 4.05383144,
      "c": 11.54014448,
      "alpha": 90.0,
      "beta": 90.0,
      "gamma": 90.0,
      "volume": 529.8638927037828
    },
    "properties": {},
    "sites": [
      {
        "species": [{ "element": "Th", "occu": 1 }],
        "abc": [0.47644768, 0.25, 0.18444726],
        "properties": { "magmom": 0.058 },
        "label": "Th",
        "xyz": [5.396381063029891, 1.01345786, 2.128548029340125]
      },
      {
        "species": [{ "element": "Th", "occu": 1 }],
        "abc": [0.97644768, 0.25, 0.31555274],
        "properties": { "magmom": 0.058 },
        "label": "Th",
        "xyz": [11.059522358029891, 1.01345786, 3.6415242106598753]
      },
      {
        "species": [{ "element": "Th", "occu": 1 }],
        "abc": [0.52355232, 0.75, 0.81555274],
        "properties": { "magmom": 0.058 },
        "label": "Th",
        "xyz": [5.9299015269701085, 3.04037358, 9.411596450659875]
      },
      {
        "species": [{ "element": "Th", "occu": 1 }],
        "abc": [0.02355232, 0.75, 0.68444726],
        "properties": { "magmom": 0.058 },
        "label": "Th",
        "xyz": [0.26676023197010884, 3.04037358, 7.8986202693401255]
      },
      {
        "species": [{ "element": "Th", "occu": 1 }],
        "abc": [0.69730948, 0.75, 0.48349442000000004],
        "properties": { "magmom": 0.044 },
        "label": "Th",
        "xyz": [7.897924223165954, 3.04037358, 5.579595462073803]
      },
      {
        "species": [{ "element": "Th", "occu": 1 }],
        "abc": [0.19730948, 0.75, 0.01650558],
        "properties": { "magmom": 0.044 },
        "label": "Th",
        "xyz": [2.2347829281659535, 3.04037358, 0.19047677792619838]
      },
      {
        "species": [{ "element": "Th", "occu": 1 }],
        "abc": [0.30269052, 0.25, 0.51650558],
        "properties": { "magmom": 0.044 },
        "label": "Th",
        "xyz": [3.428358366834047, 1.01345786, 5.960549017926199]
      },
      {
        "species": [{ "element": "Th", "occu": 1 }],
        "abc": [0.80269052, 0.25, 0.98349442],
        "properties": { "magmom": 0.044 },
        "label": "Th",
        "xyz": [9.091499661834046, 1.01345786, 11.349667702073802]
      },
      {
        "species": [{ "element": "Se", "occu": 1 }],
        "abc": [0.55444438, 0.25, 0.62233446],
        "properties": { "magmom": 0.0 },
        "label": "Se",
        "xyz": [6.279793728317344, 1.01345786, 7.181829583282782]
      },
      {
        "species": [{ "element": "Se", "occu": 1 }],
        "abc": [0.05444438, 0.25, 0.87766554],
        "properties": { "magmom": 0.0 },
        "label": "Se",
        "xyz": [0.6166524333173442, 1.01345786, 10.128387136717219]
      },
      {
        "species": [{ "element": "Se", "occu": 1 }],
        "abc": [0.44555562, 0.75, 0.37766554],
        "properties": { "magmom": 0.0 },
        "label": "Se",
        "xyz": [5.046488861682656, 3.04037358, 4.35831489671722]
      },
      {
        "species": [{ "element": "Se", "occu": 1 }],
        "abc": [0.94555562, 0.75, 0.12233446],
        "properties": { "magmom": 0.0 },
        "label": "Se",
        "xyz": [10.709630156682657, 3.04037358, 1.411757343282781]
      },
      {
        "species": [{ "element": "Se", "occu": 1 }],
        "abc": [0.62243518, 0.75, 0.055038170000000004],
        "properties": { "magmom": 0.002 },
        "label": "Se",
        "xyz": [7.049876742637516, 3.04037358, 0.6351484337148017]
      },
      {
        "species": [{ "element": "Se", "occu": 1 }],
        "abc": [0.12243518, 0.75, 0.44496183],
        "properties": { "magmom": 0.002 },
        "label": "Se",
        "xyz": [1.3867354476375162, 3.04037358, 5.134923806285198]
      },
      {
        "species": [{ "element": "Se", "occu": 1 }],
        "abc": [0.37756482, 0.25, 0.94496183],
        "properties": { "magmom": 0.002 },
        "label": "Se",
        "xyz": [4.276405847362484, 1.01345786, 10.904996046285198]
      },
      {
        "species": [{ "element": "Se", "occu": 1 }],
        "abc": [0.87756482, 0.25, 0.55503817],
        "properties": { "magmom": 0.002 },
        "label": "Se",
        "xyz": [9.939547142362484, 1.01345786, 6.405220673714802]
      },
      {
        "species": [{ "element": "Se", "occu": 1 }],
        "abc": [0.71517975, 0.25, 0.296667399999999],
        "properties": { "magmom": 0.001 },
        "label": "Se",
        "xyz": [8.100327951145552, 1.01345786, 3.423584658505941]
      },
      {
        "species": [{ "element": "Se", "occu": 1 }],
        "abc": [0.21517975, 0.25, 0.2033326],
        "properties": { "magmom": 0.001 },
        "label": "Se",
        "xyz": [2.4371866561455526, 1.01345786, 2.3464875814940482]
      },
      {
        "species": [{ "element": "Se", "occu": 1 }],
        "abc": [0.28482025, 0.75, 0.7033326],
        "properties": { "magmom": 0.001 },
        "label": "Se",
        "xyz": [3.2259546388544473, 3.04037358, 8.116559821494048]
      },
      {
        "species": [{ "element": "Se", "occu": 1 }],
        "abc": [0.78482025, 0.75, 0.796667399999999],
        "properties": { "magmom": 0.001 },
        "label": "Se",
        "xyz": [8.889095933854447, 3.04037358, 9.19365689850594]
      }
    ]
  },
  "task_ids": null,
  "uncorrected_energy_per_atom": null,
  "energy_per_atom": -39.939044701,
  "formation_energy_per_atom": -1.962003702437499,
  "energy_above_hull": 0.0,
  "is_stable": true,
  "equilibrium_reaction_energy_per_atom": null,
  "decomposes_to": null,
  "xas": null,
  "grain_boundaries": null,
  "band_gap": 0.0,
  "cbm": null,
  "vbm": null,
  "efermi": 6.98076306,
  "is_gap_direct": null,
  "is_metal": null,
  "es_source_calc_id": null,
  "bandstructure": null,
  "dos": null,
  "dos_energy_up": null,
  "dos_energy_down": null,
  "is_magnetic": null,
  "ordering": null,
  "total_magnetization": 0.878288699999999,
  "total_magnetization_normalized_vol": null,
  "total_magnetization_normalized_formula_units": null,
  "num_magnetic_sites": null,
  "num_unique_magnetic_sites": null,
  "types_of_magnetic_species": null,
  "bulk_modulus": null,
  "shear_modulus": null,
  "universal_anisotropy": null,
  "homogeneous_poisson": null,
  "e_total": null,
  "e_ionic": null,
  "e_electronic": null,
  "n": null,
  "e_ij_max": null,
  "weighted_surface_energy_EV_PER_ANG2": null,
  "weighted_surface_energy": null,
  "weighted_work_function": null,
  "surface_anisotropy": null,
  "shape_factor": null,
  "has_reconstructed": null,
  "possible_species": null,
  "has_props": null,
  "theoretical": null,
  "database_IDs": null,
  "fields_not_requested": [
    "builder_meta",
    "nsites",
    "elements",
    "nelements",
    "composition",
    "composition_reduced",
    "chemsys",
    "symmetry",
    "property_name",
    "deprecated",
    "deprecation_reasons",
    "last_updated",
    "origins",
    "warnings",
    "task_ids",
    "uncorrected_energy_per_atom",
    "equilibrium_reaction_energy_per_atom",
    "decomposes_to",
    "xas",
    "grain_boundaries",
    "cbm",
    "vbm",
    "is_gap_direct",
    "is_metal",
    "es_source_calc_id",
    "bandstructure",
    "dos",
    "dos_energy_up",
    "dos_energy_down",
    "is_magnetic",
    "ordering",
    "total_magnetization_normalized_vol",
    "total_magnetization_normalized_formula_units",
    "num_magnetic_sites",
    "num_unique_magnetic_sites",
    "types_of_magnetic_species",
    "bulk_modulus",
    "shear_modulus",
    "universal_anisotropy",
    "homogeneous_poisson",
    "e_total",
    "e_ionic",
    "e_electronic",
    "n",
    "e_ij_max",
    "weighted_surface_energy_EV_PER_ANG2",
    "weighted_surface_energy",
    "weighted_work_function",
    "surface_anisotropy",
    "shape_factor",
    "has_reconstructed",
    "possible_species",
    "has_props",
    "theoretical",
    "database_IDs"
  ]
}
