{
  "builder_meta": null,
  "nsites": null,
  "elements": null,
  "nelements": null,
  "composition": null,
  "composition_reduced": null,
  "formula_pretty": "Th2S3",
  "formula_anonymous": "A2B3",
  "chemsys": null,
  "volume": 469.31653080337713,
  "density": 7.929420947991391,
  "density_atomic": 23.465826540168855,
  "symmetry": null,
  "property_name": null,
  "material_id": "mp-20163",
  "deprecated": null,
  "deprecation_reasons": null,
  "last_updated": null,
  "origins": null,
  "warnings": null,
  "structure": {
    "@module": "pymatgen.core.structure",
    "@class": "Structure",
    "charge": 0,
    "lattice": {
      "matrix": [
        [3.93252659, 5e-8, -1.6e-7],
        [1.8e-7, 10.876644540000001, -1.525e-5],
        [-4.4e-7, -1.505e-5, 10.97233979]
      ],
      "pbc": [true, true, true],
      "a": 3.9325265900000037,
      "b": 10.876644540010693,
      "c": 10.972339790010329,
      "alpha": 90.00015892231762,
      "beta": 90.00000462876356,
      "gamma": 89.99999832331058,
      "volume": 469.3165308033772
    },
    "properties": {},
    "sites": [
      {
        "species": [{ "element": "Th", "occu": 1 }],
        "abc": [0.75000007, 0.01840019, 0.68408937],
        "properties": { "magmom": 0.078 },
        "label": "Th",
        "xyz": [2.949394920089573, 0.20012206805344762, 7.506060613764123]
      },
      {
        "species": [{ "element": "Th", "occu": 1 }],
        "abc": [0.74999994, 0.19531765, 0.01440198],
        "properties": { "magmom": 0.055 },
        "label": "Th",
        "xyz": [2.949394735368711, 2.124400472188329, 0.15802031961463128]
      },
      {
        "species": [{ "element": "Th", "occu": 1 }],
        "abc": [0.24999999, 0.30461089, 0.51454806],
        "properties": { "magmom": 0.054 },
        "label": "Th",
        "xyz": [0.983131436603548, 3.313136642094738, 5.645791467289236]
      },
      {
        "species": [{ "element": "Th", "occu": 1 }],
        "abc": [0.75000002, 0.69539809, 0.48548832000000003],
        "properties": { "magmom": 0.054 },
        "label": "Th",
        "xyz": [2.949394932707327, 7.563590569625714, 5.326932086295377]
      },
      {
        "species": [{ "element": "Th", "occu": 1 }],
        "abc": [0.25000003, 0.48157522, 0.18418639],
        "properties": { "magmom": 0.079 },
        "label": "Th",
        "xyz": [0.9831317711173257, 5.237919727707132, 2.0209482717513483]
      },
      {
        "species": [{ "element": "Th", "occu": 1 }],
        "abc": [0.74999994, 0.51845427, 0.81580007],
        "properties": { "magmom": 0.079 },
        "label": "Th",
        "xyz": [2.9493944409181427, 5.63903056474413, 8.951227542318177]
      },
      {
        "species": [{ "element": "Th", "occu": 1 }],
        "abc": [0.25, 0.80466413, 0.98554025],
        "properties": { "magmom": 0.054 },
        "label": "Th",
        "xyz": [0.9831313587018334, 8.752030896217589, 10.813670188593566]
      },
      {
        "species": [{ "element": "Th", "occu": 1 }],
        "abc": [0.25, 0.98157749, 0.31593105],
        "properties": { "magmom": 0.078 },
        "label": "Th",
        "xyz": [0.9831316851742863, 10.676264704933102, 3.466487821754757]
      },
      {
        "species": [{ "element": "S", "occu": 1 }],
        "abc": [0.25000001, 0.37585747, 0.94453929],
        "properties": { "magmom": 0.002 },
        "label": "S",
        "xyz": [0.983131338882323, 4.0880538960774, 10.363800263058929]
      },
      {
        "species": [{ "element": "S", "occu": 1 }],
        "abc": [0.75000001, 0.94693739, 0.12356796],
        "properties": { "magmom": 0.0 },
        "label": "S",
        "xyz": [2.949395097904094, 10.299499570467555, 1.3558150834819294]
      },
      {
        "species": [{ "element": "S", "occu": 1 }],
        "abc": [0.25, 0.0530533, 0.8764031800000001],
        "properties": { "magmom": 0.0 },
        "label": "S",
        "xyz": [0.9831312714321948, 0.5770287084061231, 9.616192634933707]
      },
      {
        "species": [{ "element": "S", "occu": 1 }],
        "abc": [0.24999997000000002, 0.21892528, 0.20227423],
        "properties": { "magmom": 0.0 },
        "label": "S",
        "xyz": [0.9831314799300915, 2.3811694196528084, 2.219418203710096]
      },
      {
        "species": [{ "element": "S", "occu": 1 }],
        "abc": [0.25000007, 0.71901327, 0.29770768000000003],
        "properties": { "magmom": 0.0 },
        "label": "S",
        "xyz": [0.9831319212078709, 7.820447289332467, 3.2665388181002086]
      },
      {
        "species": [{ "element": "S", "occu": 1 }],
        "abc": [0.75000001, 0.44691593, 0.37648762],
        "properties": { "magmom": 0.0 },
        "label": "S",
        "xyz": [2.9493948966155807, 4.860940081234842, 4.130943157900465]
      },
      {
        "species": [{ "element": "S", "occu": 1 }],
        "abc": [0.7499999900000001, 0.78108077, 0.79772104],
        "properties": { "magmom": 0.0 },
        "label": "S",
        "xyz": [2.9493946927720156, 8.495525924117844, 8.752854277030439]
      },
      {
        "species": [{ "element": "S", "occu": 1 }],
        "abc": [0.25, 0.5531153, 0.62354326],
        "properties": { "magmom": 0.0 },
        "label": "S",
        "xyz": [0.9831314727017196, 6.0160291359094, 6.84172004747599]
      },
      {
        "species": [{ "element": "S", "occu": 1 }],
        "abc": [0.74999995, 0.28098925, 0.70230465],
        "properties": { "magmom": 0.0 },
        "label": "S",
        "xyz": [2.9493944874376896, 3.0562096596262105, 7.705920850810969]
      },
      {
        "species": [{ "element": "S", "occu": 1 }],
        "abc": [0.74999998, 0.12413399, 0.44462289],
        "properties": { "magmom": 0.002 },
        "label": "S",
        "xyz": [2.9493946905595148, 1.3501546304874192, 4.878551414448449]
      },
      {
        "species": [{ "element": "S", "occu": 1 }],
        "abc": [0.75, 0.62414156, 0.05542593],
        "properties": { "magmom": 0.002 },
        "label": "S",
        "xyz": [2.949395030458072, 6.788565094100837, 0.6081424989779647]
      },
      {
        "species": [{ "element": "S", "occu": 1 }],
        "abc": [0.25000003, 0.87583754, 0.55541778],
        "properties": { "magmom": 0.002 },
        "label": "S",
        "xyz": [0.9831316787427318, 9.526165250830445, 6.094219211044976]
      }
    ]
  },
  "task_ids": null,
  "uncorrected_energy_per_atom": null,
  "energy_per_atom": -36.423158267999995,
  "formation_energy_per_atom": -2.212053958687494,
  "energy_above_hull": 0.001041376000003,
  "is_stable": false,
  "equilibrium_reaction_energy_per_atom": null,
  "decomposes_to": null,
  "xas": null,
  "grain_boundaries": null,
  "band_gap": 0.0,
  "cbm": null,
  "vbm": null,
  "efermi": 7.9536032500000005,
  "is_gap_direct": null,
  "is_metal": null,
  "es_source_calc_id": null,
  "bandstructure": null,
  "dos": null,
  "dos_energy_up": null,
  "dos_energy_down": null,
  "is_magnetic": null,
  "ordering": null,
  "total_magnetization": 1.1258907,
  "total_magnetization_normalized_vol": null,
  "total_magnetization_normalized_formula_units": null,
  "num_magnetic_sites": null,
  "num_unique_magnetic_sites": null,
  "types_of_magnetic_species": null,
  "bulk_modulus": null,
  "shear_modulus": null,
  "universal_anisotropy": null,
  "homogeneous_poisson": null,
  "e_total": null,
  "e_ionic": null,
  "e_electronic": null,
  "n": null,
  "e_ij_max": null,
  "weighted_surface_energy_EV_PER_ANG2": null,
  "weighted_surface_energy": null,
  "weighted_work_function": null,
  "surface_anisotropy": null,
  "shape_factor": null,
  "has_reconstructed": null,
  "possible_species": null,
  "has_props": null,
  "theoretical": null,
  "database_IDs": null,
  "fields_not_requested": [
    "builder_meta",
    "nsites",
    "elements",
    "nelements",
    "composition",
    "composition_reduced",
    "chemsys",
    "symmetry",
    "property_name",
    "deprecated",
    "deprecation_reasons",
    "last_updated",
    "origins",
    "warnings",
    "task_ids",
    "uncorrected_energy_per_atom",
    "equilibrium_reaction_energy_per_atom",
    "decomposes_to",
    "xas",
    "grain_boundaries",
    "cbm",
    "vbm",
    "is_gap_direct",
    "is_metal",
    "es_source_calc_id",
    "bandstructure",
    "dos",
    "dos_energy_up",
    "dos_energy_down",
    "is_magnetic",
    "ordering",
    "total_magnetization_normalized_vol",
    "total_magnetization_normalized_formula_units",
    "num_magnetic_sites",
    "num_unique_magnetic_sites",
    "types_of_magnetic_species",
    "bulk_modulus",
    "shear_modulus",
    "universal_anisotropy",
    "homogeneous_poisson",
    "e_total",
    "e_ionic",
    "e_electronic",
    "n",
    "e_ij_max",
    "weighted_surface_energy_EV_PER_ANG2",
    "weighted_surface_energy",
    "weighted_work_function",
    "surface_anisotropy",
    "shape_factor",
    "has_reconstructed",
    "possible_species",
    "has_props",
    "theoretical",
    "database_IDs"
  ]
}
