{"builder_meta": null, "nsites": null, "elements": null, "nelements": null, "composition": null, "composition_reduced": null, "formula_pretty": "Th2S5", "formula_anonymous": "A2B5", "chemsys": null, "volume": 600.8505821132239, "density": 6.902497784671614, "density_atomic": 21.45894936118657, "symmetry": null, "property_name": null, "material_id": "mp-1666", "deprecated": null, "deprecation_reasons": null, "last_updated": null, "origins": null, "warnings": null, "structure": {"@module": "pymatgen.core.structure", "@class": "Structure", "charge": 0, "lattice": {"matrix": [[7.6466928, -0.0, 0.0], [-0.0, 7.68385843, 0.0], [0.0, 0.0, 10.22618131]], "pbc": [true, true, true], "a": 7.6466928, "b": 7.68385843, "c": 10.22618131, "alpha": 90.0, "beta": 90.0, "gamma": 90.0, "volume": 600.8505821132239}, "properties": {}, "sites": [{"species": [{"element": "Th", "occu": 1}], "abc": [0.76784626, 0.02018159, 0.85399254], "properties": {"magmom": -0.0}, "label": "Th", "xyz": [5.871484467848928, 0.15507248045230368, 8.733082551427428]}, {"species": [{"element": "Th", "occu": 1}], "abc": [0.26784626, 0.97981841, 0.64600746], "properties": {"magmom": -0.0}, "label": "Th", "xyz": [2.048138067848928, 7.5287859495476965, 6.606189413572572]}, {"species": [{"element": "Th", "occu": 1}], "abc": [0.73215374, 0.52018159, 0.64600746], "properties": {"magmom": -0.0}, "label": "Th", "xyz": [5.598554732151072, 3.9970016954523033, 6.606189413572572]}, {"species": [{"element": "Th", "occu": 1}], "abc": [0.23215374, 0.47981841000000003, 0.85399254], "properties": {"magmom": -0.0}, "label": "Th", "xyz": [1.775208332151072, 3.6868567345476966, 8.733082551427428]}, {"species": [{"element": "Th", "occu": 1}], "abc": [0.23215374, 0.97981841, 0.14600746], "properties": {"magmom": -0.0}, "label": "Th", "xyz": [1.775208332151072, 7.5287859495476965, 1.4930987585725726]}, {"species": [{"element": "Th", "occu": 1}], "abc": [0.73215374, 0.02018159, 0.35399254], "properties": {"magmom": -0.0}, "label": "Th", "xyz": [5.598554732151072, 0.15507248045230368, 3.6199918964274276]}, {"species": [{"element": "Th", "occu": 1}], "abc": [0.26784626, 0.47981841000000003, 0.35399254], "properties": {"magmom": -0.0}, "label": "Th", "xyz": [2.048138067848928, 3.6868567345476966, 3.6199918964274276]}, {"species": [{"element": "Th", "occu": 1}], "abc": [0.76784626, 0.52018159, 0.14600746], "properties": {"magmom": -0.0}, "label": "Th", "xyz": [5.871484467848928, 3.9970016954523033, 1.4930987585725726]}, {"species": [{"element": "S", "occu": 1}], "abc": [0.0, 0.75, 0.75146869], "properties": {"magmom": 0.0}, "label": "S", "xyz": [0.0, 5.7628938225, 7.684655072728184]}, {"species": [{"element": "S", "occu": 1}], "abc": [0.5, 0.25, 0.7485313100000001], "properties": {"magmom": 0.0}, "label": "S", "xyz": [3.8233464, 1.9209646075, 7.654616892271816]}, {"species": [{"element": "S", "occu": 1}], "abc": [0.0, 0.25, 0.24853131], "properties": {"magmom": 0.0}, "label": "S", "xyz": [0.0, 1.9209646075, 2.541526237271816]}, {"species": [{"element": "S", "occu": 1}], "abc": [0.5, 0.75, 0.25146869], "properties": {"magmom": 0.0}, "label": "S", "xyz": [3.8233464, 5.7628938225, 2.5715644177281836]}, {"species": [{"element": "S", "occu": 1}], "abc": [0.63809252, 0.38902109, 0.39179506000000003], "properties": {"magmom": 0.0}, "label": "S", "xyz": [4.879297478417857, 2.989182981844289, 4.006567319922329]}, {"species": [{"element": "S", "occu": 1}], "abc": [0.13809252, 0.61097891, 0.10820494], "properties": {"magmom": 0.0}, "label": "S", "xyz": [1.055951078417856, 4.694675448155712, 1.1065233350776713]}, {"species": [{"element": "S", "occu": 1}], "abc": [0.8619074800000001, 0.8890210900000001, 0.10820494], "properties": {"magmom": 0.0}, "label": "S", "xyz": [6.590741721582145, 6.831112196844289, 1.1065233350776713]}, {"species": [{"element": "S", "occu": 1}], "abc": [0.36190748, 0.11097991, 0.39179506000000003], "properties": {"magmom": 0.0}, "label": "S", "xyz": [2.767395321582144, 0.8527539170141413, 4.006567319922329]}, {"species": [{"element": "S", "occu": 1}], "abc": [0.36190748, 0.61097891, 0.60820494], "properties": {"magmom": 0.0}, "label": "S", "xyz": [2.767395321582144, 4.694675448155712, 6.219613990077671]}, {"species": [{"element": "S", "occu": 1}], "abc": [0.8619074800000001, 0.38902109, 0.89179506], "properties": {"magmom": 0.0}, "label": "S", "xyz": [6.590741721582145, 2.989182981844289, 9.119657974922328]}, {"species": [{"element": "S", "occu": 1}], "abc": [0.13809252, 0.11097991, 0.89179506], "properties": {"magmom": 0.0}, "label": "S", "xyz": [1.055951078417856, 0.8527539170141413, 9.119657974922328]}, {"species": [{"element": "S", "occu": 1}], "abc": [0.63809252, 0.8890210900000001, 0.60820494], "properties": {"magmom": 0.0}, "label": "S", "xyz": [4.879297478417857, 6.831112196844289, 6.219613990077671]}, {"species": [{"element": "S", "occu": 1}], "abc": [0.09756038, 0.8489488, 0.39830681], "properties": {"magmom": 0.0}, "label": "S", "xyz": [0.7460142553112641, 6.523202393518384, 4.073157656067721]}, {"species": [{"element": "S", "occu": 1}], "abc": [0.59756038, 0.1510512, 0.10169319], "properties": {"magmom": 0.0}, "label": "S", "xyz": [4.5693606553112645, 1.1606560364816159, 1.039932998932279]}, {"species": [{"element": "S", "occu": 1}], "abc": [0.40243962, 0.3489488, 0.10169319], "properties": {"magmom": 0.0}, "label": "S", "xyz": [3.0773321446887363, 2.681273178518384, 1.039932998932279]}, {"species": [{"element": "S", "occu": 1}], "abc": [0.90243962, 0.651051199999999, 0.39830681], "properties": {"magmom": 0.0}, "label": "S", "xyz": [6.900678544688736, 5.002585251481609, 4.073157656067721]}, {"species": [{"element": "S", "occu": 1}], "abc": [0.90243962, 0.1510512, 0.60169319], "properties": {"magmom": 0.0}, "label": "S", "xyz": [6.900678544688736, 1.1606560364816159, 6.153023653932278]}, {"species": [{"element": "S", "occu": 1}], "abc": [0.40243962, 0.8489488, 0.89830681], "properties": {"magmom": 0.0}, "label": "S", "xyz": [3.0773321446887363, 6.523202393518384, 9.18624831106772]}, {"species": [{"element": "S", "occu": 1}], "abc": [0.59756038, 0.651051199999999, 0.89830681], "properties": {"magmom": 0.0}, "label": "S", "xyz": [4.5693606553112645, 5.002585251481609, 9.18624831106772]}, {"species": [{"element": "S", "occu": 1}], "abc": [0.09756038, 0.3489488, 0.60169319], "properties": {"magmom": 0.0}, "label": "S", "xyz": [0.7460142553112641, 2.681273178518384, 6.153023653932278]}]}, "task_ids": null, "uncorrected_energy_per_atom": null, "energy_per_atom": -28.720915087857144, "formation_energy_per_atom": -1.9886979862946412, "energy_above_hull": 0.0, "is_stable": true, "equilibrium_reaction_energy_per_atom": null, "decomposes_to": null, "xas": null, "grain_boundaries": null, "band_gap": 1.7512999999999992, "cbm": null, "vbm": null, "efermi": 6.47335138, "is_gap_direct": null, "is_metal": null, "es_source_calc_id": null, "bandstructure": null, "dos": null, "dos_energy_up": null, "dos_energy_down": null, "is_magnetic": null, "ordering": null, "total_magnetization": 0.0, "total_magnetization_normalized_vol": null, "total_magnetization_normalized_formula_units": null, "num_magnetic_sites": null, "num_unique_magnetic_sites": null, "types_of_magnetic_species": null, "bulk_modulus": null, "shear_modulus": null, "universal_anisotropy": null, "homogeneous_poisson": null, "e_total": null, "e_ionic": null, "e_electronic": null, "n": null, "e_ij_max": null, "weighted_surface_energy_EV_PER_ANG2": null, "weighted_surface_energy": null, "weighted_work_function": null, "surface_anisotropy": null, "shape_factor": null, "has_reconstructed": null, "possible_species": null, "has_props": null, "theoretical": null, "database_IDs": null, "fields_not_requested": ["builder_meta", "nsites", "elements", "nelements", "composition", "composition_reduced", "chemsys", "symmetry", "property_name", "deprecated", "deprecation_reasons", "last_updated", "origins", "warnings", "task_ids", "uncorrected_energy_per_atom", "equilibrium_reaction_energy_per_atom", "decomposes_to", "xas", "grain_boundaries", "cbm", "vbm", "is_gap_direct", "is_metal", "es_source_calc_id", "bandstructure", "dos", "dos_energy_up", "dos_energy_down", "is_magnetic", "ordering", "total_magnetization_normalized_vol", "total_magnetization_normalized_formula_units", "num_magnetic_sites", "num_unique_magnetic_sites", "types_of_magnetic_species", "bulk_modulus", "shear_modulus", "universal_anisotropy", "homogeneous_poisson", "e_total", "e_ionic", "e_electronic", "n", "e_ij_max", "weighted_surface_energy_EV_PER_ANG2", "weighted_surface_energy", "weighted_work_function", "surface_anisotropy", "shape_factor", "has_reconstructed", "possible_species", "has_props", "theoretical", "database_IDs"]}