{
  "builder_meta": null,
  "nsites": null,
  "elements": null,
  "nelements": null,
  "composition": null,
  "composition_reduced": null,
  "formula_pretty": "Th2Tl",
  "formula_anonymous": "AB2",
  "chemsys": null,
  "volume": 187.95940282495494,
  "density": 11.811092870735646,
  "density_atomic": 31.32656713749249,
  "symmetry": null,
  "property_name": null,
  "material_id": "mp-1076974",
  "deprecated": null,
  "deprecation_reasons": null,
  "last_updated": null,
  "origins": null,
  "warnings": null,
  "structure": {
    "@module": "pymatgen.core.structure",
    "@class": "Structure",
    "charge": 0,
    "lattice": {
      "matrix": [
        [-3.90248982, 3.90248982, 3.08546417],
        [3.90248982, -3.90248982, 3.08546417],
        [3.90248982, 3.90248982, -3.08546417]
      ],
      "pbc": [true, true, true],
      "a": 6.322890378202128,
      "b": 6.322890378202128,
      "c": 6.322890378202128,
      "alpha": 103.77605531247411,
      "beta": 103.77605531247411,
      "gamma": 121.58378399810239,
      "volume": 187.95940282495494
    },
    "properties": {},
    "sites": [
      {
        "species": [{ "element": "Th", "occu": 1 }],
        "abc": [0.15189163, 0.65189163, 0.80378525],
        "properties": { "magmom": -0.0 },
        "label": "Th",
        "xyz": [5.088008665591156, 1.185518845591155, -6.140073697924464e-6]
      },
      {
        "species": [{ "element": "Th", "occu": 1 }],
        "abc": [0.8481083700000001, 0.34810837, 0.19621475],
        "properties": { "magmom": -0.0 },
        "label": "Th",
        "xyz": [-1.185518845591155, 2.716970974408845, 3.085470310073698]
      },
      {
        "species": [{ "element": "Th", "occu": 1 }],
        "abc": [0.34810837, 0.15189163, 0.5],
        "properties": { "magmom": -0.0 },
        "label": "Th",
        "xyz": [1.185511079636413, 2.716978740363587, 0.0]
      },
      {
        "species": [{ "element": "Th", "occu": 1 }],
        "abc": [0.65189163, 0.8481083700000001, 0.5],
        "properties": { "magmom": -0.0 },
        "label": "Th",
        "xyz": [2.7169787403635866, 1.1855110796364132, 3.0854641700000007]
      },
      {
        "species": [{ "element": "Tl", "occu": 1 }],
        "abc": [0.25, 0.25, 0.0],
        "properties": { "magmom": -0.0 },
        "label": "Tl",
        "xyz": [0.0, 0.0, 1.542732085]
      },
      {
        "species": [{ "element": "Tl", "occu": 1 }],
        "abc": [0.75, 0.75, 0.0],
        "properties": { "magmom": -0.0 },
        "label": "Tl",
        "xyz": [0.0, 0.0, 4.628196255]
      }
    ]
  },
  "task_ids": null,
  "uncorrected_energy_per_atom": null,
  "energy_per_atom": -66.882018605,
  "formation_energy_per_atom": -0.172075644999997,
  "energy_above_hull": 0.00045561444444700006,
  "is_stable": false,
  "equilibrium_reaction_energy_per_atom": null,
  "decomposes_to": null,
  "xas": null,
  "grain_boundaries": null,
  "band_gap": 0.0,
  "cbm": null,
  "vbm": null,
  "efermi": 7.17027104,
  "is_gap_direct": null,
  "is_metal": null,
  "es_source_calc_id": null,
  "bandstructure": null,
  "dos": null,
  "dos_energy_up": null,
  "dos_energy_down": null,
  "is_magnetic": null,
  "ordering": null,
  "total_magnetization": 3.7e-6,
  "total_magnetization_normalized_vol": null,
  "total_magnetization_normalized_formula_units": null,
  "num_magnetic_sites": null,
  "num_unique_magnetic_sites": null,
  "types_of_magnetic_species": null,
  "bulk_modulus": null,
  "shear_modulus": null,
  "universal_anisotropy": null,
  "homogeneous_poisson": null,
  "e_total": null,
  "e_ionic": null,
  "e_electronic": null,
  "n": null,
  "e_ij_max": null,
  "weighted_surface_energy_EV_PER_ANG2": null,
  "weighted_surface_energy": null,
  "weighted_work_function": null,
  "surface_anisotropy": null,
  "shape_factor": null,
  "has_reconstructed": null,
  "possible_species": null,
  "has_props": null,
  "theoretical": null,
  "database_IDs": null,
  "fields_not_requested": [
    "builder_meta",
    "nsites",
    "elements",
    "nelements",
    "composition",
    "composition_reduced",
    "chemsys",
    "symmetry",
    "property_name",
    "deprecated",
    "deprecation_reasons",
    "last_updated",
    "origins",
    "warnings",
    "task_ids",
    "uncorrected_energy_per_atom",
    "equilibrium_reaction_energy_per_atom",
    "decomposes_to",
    "xas",
    "grain_boundaries",
    "cbm",
    "vbm",
    "is_gap_direct",
    "is_metal",
    "es_source_calc_id",
    "bandstructure",
    "dos",
    "dos_energy_up",
    "dos_energy_down",
    "is_magnetic",
    "ordering",
    "total_magnetization_normalized_vol",
    "total_magnetization_normalized_formula_units",
    "num_magnetic_sites",
    "num_unique_magnetic_sites",
    "types_of_magnetic_species",
    "bulk_modulus",
    "shear_modulus",
    "universal_anisotropy",
    "homogeneous_poisson",
    "e_total",
    "e_ionic",
    "e_electronic",
    "n",
    "e_ij_max",
    "weighted_surface_energy_EV_PER_ANG2",
    "weighted_surface_energy",
    "weighted_work_function",
    "surface_anisotropy",
    "shape_factor",
    "has_reconstructed",
    "possible_species",
    "has_props",
    "theoretical",
    "database_IDs"
  ]
}
