{
  "builder_meta": null,
  "nsites": null,
  "elements": null,
  "nelements": null,
  "composition": null,
  "composition_reduced": null,
  "formula_pretty": "Th2Zn",
  "formula_anonymous": "AB2",
  "chemsys": null,
  "volume": 161.77532516972116,
  "density": 10.869775424910735,
  "density_atomic": 26.962554194953526,
  "symmetry": null,
  "property_name": null,
  "material_id": "mp-2387",
  "deprecated": null,
  "deprecation_reasons": null,
  "last_updated": null,
  "origins": null,
  "warnings": null,
  "structure": {
    "@module": "pymatgen.core.structure",
    "@class": "Structure",
    "charge": 0,
    "lattice": {
      "matrix": [
        [4.91690351, 0.00354162, 2.584132],
        [2.46031541, 5.39848786, 1.29608833],
        [-0.04606194, 0.00446717, 6.07244126]
      ],
      "pbc": [true, true, true],
      "a": 5.554609874972908,
      "b": 6.072616244289857,
      "c": 6.072617599855499,
      "alpha": 77.81867220367639,
      "beta": 62.70992909797399,
      "gamma": 62.70993643037212,
      "volume": 161.77532516972116
    },
    "properties": {},
    "sites": [
      {
        "species": [{ "element": "Th", "occu": 1 }],
        "abc": [0.65802132, 0.18404467, 0.50012162],
        "properties": { "magmom": -0.0 },
        "label": "Th",
        "xyz": [3.665198703639055, 0.99812750645726, 4.975911258985982]
      },
      {
        "species": [{ "element": "Th", "occu": 1 }],
        "abc": [0.84197868, 0.49987838, 0.81595533],
        "properties": { "magmom": -0.0 },
        "label": "Th",
        "xyz": [5.332201923023862, 2.705214345610645, 7.778511397251981]
      },
      {
        "species": [{ "element": "Th", "occu": 1 }],
        "abc": [0.34197868000000003, 0.81595533, 0.49987838],
        "properties": { "magmom": -0.0 },
        "label": "Th",
        "xyz": [3.665958276360945, 4.40836914354274, 4.976750331014018]
      },
      {
        "species": [{ "element": "Th", "occu": 1 }],
        "abc": [0.15802132, 0.50012162, 0.18404467],
        "properties": { "magmom": -0.0 },
        "label": "Th",
        "xyz": [1.9989550569761376, 2.701282304389356, 2.1741501927480185]
      },
      {
        "species": [{ "element": "Zn", "occu": 1 }],
        "abc": [0.75, 0.99993186, 6.814000000000001e-5],
        "properties": { "magmom": -0.0 },
        "label": "Zn",
        "xyz": [6.147822257947371, 5.400776526430184, 3.23451279068865]
      },
      {
        "species": [{ "element": "Zn", "occu": 1 }],
        "abc": [0.25, 6.814000000000001e-5, 0.99993186],
        "properties": { "magmom": -0.0 },
        "label": "Zn",
        "xyz": [1.1833347220526291, 0.005720123569816601, 6.718148799311349]
      }
    ]
  },
  "task_ids": null,
  "uncorrected_energy_per_atom": null,
  "energy_per_atom": -52.122155383333336,
  "formation_energy_per_atom": -0.16844641499999502,
  "energy_above_hull": 0.0,
  "is_stable": true,
  "equilibrium_reaction_energy_per_atom": null,
  "decomposes_to": null,
  "xas": null,
  "grain_boundaries": null,
  "band_gap": 0.0,
  "cbm": null,
  "vbm": null,
  "efermi": 6.47007217,
  "is_gap_direct": null,
  "is_metal": null,
  "es_source_calc_id": null,
  "bandstructure": null,
  "dos": null,
  "dos_energy_up": null,
  "dos_energy_down": null,
  "is_magnetic": null,
  "ordering": null,
  "total_magnetization": 2e-7,
  "total_magnetization_normalized_vol": null,
  "total_magnetization_normalized_formula_units": null,
  "num_magnetic_sites": null,
  "num_unique_magnetic_sites": null,
  "types_of_magnetic_species": null,
  "bulk_modulus": null,
  "shear_modulus": null,
  "universal_anisotropy": null,
  "homogeneous_poisson": null,
  "e_total": null,
  "e_ionic": null,
  "e_electronic": null,
  "n": null,
  "e_ij_max": null,
  "weighted_surface_energy_EV_PER_ANG2": null,
  "weighted_surface_energy": null,
  "weighted_work_function": null,
  "surface_anisotropy": null,
  "shape_factor": null,
  "has_reconstructed": null,
  "possible_species": null,
  "has_props": null,
  "theoretical": null,
  "database_IDs": null,
  "fields_not_requested": [
    "builder_meta",
    "nsites",
    "elements",
    "nelements",
    "composition",
    "composition_reduced",
    "chemsys",
    "symmetry",
    "property_name",
    "deprecated",
    "deprecation_reasons",
    "last_updated",
    "origins",
    "warnings",
    "task_ids",
    "uncorrected_energy_per_atom",
    "equilibrium_reaction_energy_per_atom",
    "decomposes_to",
    "xas",
    "grain_boundaries",
    "cbm",
    "vbm",
    "is_gap_direct",
    "is_metal",
    "es_source_calc_id",
    "bandstructure",
    "dos",
    "dos_energy_up",
    "dos_energy_down",
    "is_magnetic",
    "ordering",
    "total_magnetization_normalized_vol",
    "total_magnetization_normalized_formula_units",
    "num_magnetic_sites",
    "num_unique_magnetic_sites",
    "types_of_magnetic_species",
    "bulk_modulus",
    "shear_modulus",
    "universal_anisotropy",
    "homogeneous_poisson",
    "e_total",
    "e_ionic",
    "e_electronic",
    "n",
    "e_ij_max",
    "weighted_surface_energy_EV_PER_ANG2",
    "weighted_surface_energy",
    "weighted_work_function",
    "surface_anisotropy",
    "shape_factor",
    "has_reconstructed",
    "possible_species",
    "has_props",
    "theoretical",
    "database_IDs"
  ]
}
