{"builder_meta": null, "nsites": null, "elements": null, "nelements": null, "composition": null, "composition_reduced": null, "formula_pretty": "Th3As4", "formula_anonymous": "A3B4", "chemsys": null, "volume": 352.8888532663167, "density": 9.371595335628426, "density_atomic": 25.206346661879763, "symmetry": null, "property_name": null, "material_id": "mp-382", "deprecated": null, "deprecation_reasons": null, "last_updated": null, "origins": null, "warnings": null, "structure": {"@module": "pymatgen.core.structure", "@class": "Structure", "charge": 0, "lattice": {"matrix": [[7.26959736, -0.0, -2.57019069], [-3.6347986800000003, 6.2956559, -2.57019069], [-0.0, 0.0, 7.7105720600000005]], "pbc": [true, true, true], "a": 7.710572349669099, "b": 7.710572276964741, "c": 7.7105720600000005, "alpha": 109.47122009075555, "beta": 109.4712198997476, "gamma": 109.47122156024174, "volume": 352.88885326631674}, "properties": {}, "sites": [{"species": [{"element": "Th", "occu": 1}], "abc": [0.75, 0.875, 0.125], "properties": {"magmom": 0.0}, "label": "Th", "xyz": [2.2717491749999996, 5.5086989125, -3.2127383637499993]}, {"species": [{"element": "Th", "occu": 1}], "abc": [0.625, 0.375, 0.25], "properties": {"magmom": 0.0}, "label": "Th", "xyz": [3.180448845, 2.3608709625, -0.6425476749999999]}, {"species": [{"element": "Th", "occu": 1}], "abc": [0.875, 0.125, 0.75], "properties": {"magmom": 0.0}, "label": "Th", "xyz": [5.9065478549999995, 0.7869569875, 3.2127383550000004]}, {"species": [{"element": "Th", "occu": 1}], "abc": [0.125, 0.75, 0.875], "properties": {"magmom": 0.0}, "label": "Th", "xyz": [-1.8173993400000006, 4.721741925, 4.49783369875]}, {"species": [{"element": "Th", "occu": 1}], "abc": [0.375, 0.25, 0.625], "properties": {"magmom": 0.0}, "label": "Th", "xyz": [1.81739934, 1.573913975, 3.212738356250001]}, {"species": [{"element": "Th", "occu": 1}], "abc": [0.25, 0.625, 0.375], "properties": {"magmom": 0.0}, "label": "Th", "xyz": [-0.45434983500000015, 3.9347849375, 0.6425476687500002]}, {"species": [{"element": "As", "occu": 1}], "abc": [0.6561072, 0.6561072, 0.6561072], "properties": {"magmom": -0.0}, "label": "As", "xyz": [2.3848175844984953, 4.13062516471248, 1.6863206105208963]}, {"species": [{"element": "As", "occu": 1}], "abc": [0.3438928, 0.5, 0.0], "properties": {"magmom": -0.0}, "label": "As", "xyz": [0.682562851003008, 3.14782795, -2.1689654179180318]}, {"species": [{"element": "As", "occu": 1}], "abc": [0.5, -0.0, 0.3438928], "properties": {"magmom": -0.0}, "label": "As", "xyz": [3.63479868, 0.0, 1.3665148703151682]}, {"species": [{"element": "As", "occu": 1}], "abc": [-0.0, 0.3438928, 0.5], "properties": {"magmom": -0.0}, "label": "As", "xyz": [-1.249981095501504, 2.16503073528752, 2.9714159570819683]}, {"species": [{"element": "As", "occu": 1}], "abc": [0.5, -0.0, 0.8438928], "properties": {"magmom": -0.0}, "label": "As", "xyz": [3.63479868, 0.0, 5.221800900315168]}, {"species": [{"element": "As", "occu": 1}], "abc": [-0.0, 0.8438928, 0.5], "properties": {"magmom": -0.0}, "label": "As", "xyz": [-3.067380435501504, 5.3128586852875195, 1.686320612081968]}, {"species": [{"element": "As", "occu": 1}], "abc": [0.1561072, 0.1561072, 0.1561072], "properties": {"magmom": -0.0}, "label": "As", "xyz": [0.5674182444984959, 0.9827972147124799, 0.40122527052089607]}, {"species": [{"element": "As", "occu": 1}], "abc": [0.8438928, 0.5, 0.0], "properties": {"magmom": -0.0}, "label": "As", "xyz": [4.317361531003007, 3.14782795, -3.454060762918032]}]}, "task_ids": null, "uncorrected_energy_per_atom": null, "energy_per_atom": -41.451593682857144, "formation_energy_per_atom": -1.557892197142848, "energy_above_hull": 0.0, "is_stable": true, "equilibrium_reaction_energy_per_atom": null, "decomposes_to": null, "xas": null, "grain_boundaries": null, "band_gap": 0.27130000000000004, "cbm": null, "vbm": null, "efermi": 6.5743814, "is_gap_direct": null, "is_metal": null, "es_source_calc_id": null, "bandstructure": null, "dos": null, "dos_energy_up": null, "dos_energy_down": null, "is_magnetic": null, "ordering": null, "total_magnetization": 0.0, "total_magnetization_normalized_vol": null, "total_magnetization_normalized_formula_units": null, "num_magnetic_sites": null, "num_unique_magnetic_sites": null, "types_of_magnetic_species": null, "bulk_modulus": null, "shear_modulus": null, "universal_anisotropy": null, "homogeneous_poisson": null, "e_total": null, "e_ionic": null, "e_electronic": null, "n": null, "e_ij_max": null, "weighted_surface_energy_EV_PER_ANG2": null, "weighted_surface_energy": null, "weighted_work_function": null, "surface_anisotropy": null, "shape_factor": null, "has_reconstructed": null, "possible_species": null, "has_props": null, "theoretical": null, "database_IDs": null, "fields_not_requested": ["builder_meta", "nsites", "elements", "nelements", "composition", "composition_reduced", "chemsys", "symmetry", "property_name", "deprecated", "deprecation_reasons", "last_updated", "origins", "warnings", "task_ids", "uncorrected_energy_per_atom", "equilibrium_reaction_energy_per_atom", "decomposes_to", "xas", "grain_boundaries", "cbm", "vbm", "is_gap_direct", "is_metal", "es_source_calc_id", "bandstructure", "dos", "dos_energy_up", "dos_energy_down", "is_magnetic", "ordering", "total_magnetization_normalized_vol", "total_magnetization_normalized_formula_units", "num_magnetic_sites", "num_unique_magnetic_sites", "types_of_magnetic_species", "bulk_modulus", "shear_modulus", "universal_anisotropy", "homogeneous_poisson", "e_total", "e_ionic", "e_electronic", "n", "e_ij_max", "weighted_surface_energy_EV_PER_ANG2", "weighted_surface_energy", "weighted_work_function", "surface_anisotropy", "shape_factor", "has_reconstructed", "possible_species", "has_props", "theoretical", "database_IDs"]}