{
  "builder_meta": null,
  "nsites": null,
  "elements": null,
  "nelements": null,
  "composition": null,
  "composition_reduced": null,
  "formula_pretty": "Th3Al2",
  "formula_anonymous": "A2B3",
  "chemsys": null,
  "volume": 276.6960845303634,
  "density": 9.002892763465157,
  "density_atomic": 27.66960845303634,
  "symmetry": null,
  "property_name": null,
  "material_id": "mp-2378",
  "deprecated": null,
  "deprecation_reasons": null,
  "last_updated": null,
  "origins": null,
  "warnings": null,
  "structure": {
    "@module": "pymatgen.core.structure",
    "@class": "Structure",
    "charge": 0,
    "lattice": {
      "matrix": [
        [3.7794293, 0.0, 0.0],
        [0.0, 8.5563471, -0.0001008],
        [0.0, -0.0001008, 8.5563471]
      ],
      "pbc": [true, true, true],
      "a": 3.7794293,
      "b": 8.556347100593747,
      "c": 8.556347100593747,
      "alpha": 90.0013499720166,
      "beta": 90.0,
      "gamma": 90.0,
      "volume": 276.6960845303634
    },
    "properties": {},
    "sites": [
      {
        "species": [{ "element": "Th", "occu": 1 }],
        "abc": [0.0, 0.0, 0.0],
        "properties": { "magmom": -0.0 },
        "label": "Th",
        "xyz": [0.0, 0.0, 0.0]
      },
      {
        "species": [{ "element": "Th", "occu": 1 }],
        "abc": [0.0, 0.5, 0.5],
        "properties": { "magmom": -0.0 },
        "label": "Th",
        "xyz": [0.0, 4.27812315, 4.27812315]
      },
      {
        "species": [{ "element": "Th", "occu": 1 }],
        "abc": [0.5, 0.18211733, 0.68211733],
        "properties": { "magmom": 0.0 },
        "label": "Th",
        "xyz": [1.88971465, 1.558190330978379, 5.836414280978379]
      },
      {
        "species": [{ "element": "Th", "occu": 1 }],
        "abc": [0.5, 0.31795254, 0.18204746],
        "properties": { "magmom": 0.0 },
        "label": "Th",
        "xyz": [1.88971465, 2.720493943182666, 1.5576292068173339]
      },
      {
        "species": [{ "element": "Th", "occu": 1 }],
        "abc": [0.5, 0.68204746, 0.8179525400000001],
        "properties": { "magmom": 0.0 },
        "label": "Th",
        "xyz": [1.88971465, 5.835752356817334, 6.998617093182666]
      },
      {
        "species": [{ "element": "Th", "occu": 1 }],
        "abc": [0.5, 0.81788267, 0.31788267000000003],
        "properties": { "magmom": 0.0 },
        "label": "Th",
        "xyz": [1.88971465, 6.998055969021621, 2.7198320190216214]
      },
      {
        "species": [{ "element": "Al", "occu": 1 }],
        "abc": [0.0, 0.38814218, 0.88814218],
        "properties": { "magmom": -0.0 },
        "label": "Al",
        "xyz": [0.0, 3.320989691498934, 7.599213641498934]
      },
      {
        "species": [{ "element": "Al", "occu": 1 }],
        "abc": [0.0, 0.11187819, 0.38812181],
        "properties": { "magmom": -0.0 },
        "label": "Al",
        "xyz": [0.0, 0.957229503881301, 3.320893646118699]
      },
      {
        "species": [{ "element": "Al", "occu": 1 }],
        "abc": [-0.0, 0.88812181, 0.61187819],
        "properties": { "magmom": -0.0 },
        "label": "Al",
        "xyz": [0.0, 7.599016796118699, 5.235352653881301]
      },
      {
        "species": [{ "element": "Al", "occu": 1 }],
        "abc": [0.0, 0.61185782, 0.11185782],
        "properties": { "magmom": -0.0 },
        "label": "Al",
        "xyz": [0.0, 5.235256608501066, 0.957032658501066]
      }
    ]
  },
  "task_ids": null,
  "uncorrected_energy_per_atom": null,
  "energy_per_atom": -47.033772256999995,
  "formation_energy_per_atom": -0.255775634999992,
  "energy_above_hull": 0.056012190999993,
  "is_stable": false,
  "equilibrium_reaction_energy_per_atom": null,
  "decomposes_to": null,
  "xas": null,
  "grain_boundaries": null,
  "band_gap": 0.0,
  "cbm": null,
  "vbm": null,
  "efermi": 6.77144367,
  "is_gap_direct": null,
  "is_metal": null,
  "es_source_calc_id": null,
  "bandstructure": null,
  "dos": null,
  "dos_energy_up": null,
  "dos_energy_down": null,
  "is_magnetic": null,
  "ordering": null,
  "total_magnetization": 1e-6,
  "total_magnetization_normalized_vol": null,
  "total_magnetization_normalized_formula_units": null,
  "num_magnetic_sites": null,
  "num_unique_magnetic_sites": null,
  "types_of_magnetic_species": null,
  "bulk_modulus": null,
  "shear_modulus": null,
  "universal_anisotropy": null,
  "homogeneous_poisson": null,
  "e_total": null,
  "e_ionic": null,
  "e_electronic": null,
  "n": null,
  "e_ij_max": null,
  "weighted_surface_energy_EV_PER_ANG2": null,
  "weighted_surface_energy": null,
  "weighted_work_function": null,
  "surface_anisotropy": null,
  "shape_factor": null,
  "has_reconstructed": null,
  "possible_species": null,
  "has_props": null,
  "theoretical": null,
  "database_IDs": null,
  "fields_not_requested": [
    "builder_meta",
    "nsites",
    "elements",
    "nelements",
    "composition",
    "composition_reduced",
    "chemsys",
    "symmetry",
    "property_name",
    "deprecated",
    "deprecation_reasons",
    "last_updated",
    "origins",
    "warnings",
    "task_ids",
    "uncorrected_energy_per_atom",
    "equilibrium_reaction_energy_per_atom",
    "decomposes_to",
    "xas",
    "grain_boundaries",
    "cbm",
    "vbm",
    "is_gap_direct",
    "is_metal",
    "es_source_calc_id",
    "bandstructure",
    "dos",
    "dos_energy_up",
    "dos_energy_down",
    "is_magnetic",
    "ordering",
    "total_magnetization_normalized_vol",
    "total_magnetization_normalized_formula_units",
    "num_magnetic_sites",
    "num_unique_magnetic_sites",
    "types_of_magnetic_species",
    "bulk_modulus",
    "shear_modulus",
    "universal_anisotropy",
    "homogeneous_poisson",
    "e_total",
    "e_ionic",
    "e_electronic",
    "n",
    "e_ij_max",
    "weighted_surface_energy_EV_PER_ANG2",
    "weighted_surface_energy",
    "weighted_work_function",
    "surface_anisotropy",
    "shape_factor",
    "has_reconstructed",
    "possible_species",
    "has_props",
    "theoretical",
    "database_IDs"
  ]
}
