{"builder_meta": null, "nsites": null, "elements": null, "nelements": null, "composition": null, "composition_reduced": null, "formula_pretty": "Th3Au4", "formula_anonymous": "A3B4", "chemsys": null, "volume": 345.8741757911284, "density": 14.249155870758065, "density_atomic": 24.705298270794884, "symmetry": null, "property_name": null, "material_id": "mp-865377", "deprecated": null, "deprecation_reasons": null, "last_updated": null, "origins": null, "warnings": null, "structure": {"@module": "pymatgen.core.structure", "@class": "Structure", "charge": 0, "lattice": {"matrix": [[0.00020721000000000002, 0.00059253, 6.28485251], [6.90185449, -3.98925006, -2.09510933], [-0.00186856, 7.9744142700000005, -2.09419567]], "pbc": [true, true, true], "a": 6.284852541347417, "b": 8.24252355453087, "c": 8.244813032770535, "alpha": 113.81207409316863, "beta": 104.70903173569026, "gamma": 104.72624682115003, "volume": 345.8741757911284}, "properties": {}, "sites": [{"species": [{"element": "Th", "occu": 1}], "abc": [0.40414209, 0.37612256, 0.11996643], "properties": {"magmom": -0.0}, "label": "Th", "xyz": [2.5958027573363225, -0.5435454674218095, 1.5007223658023032]}, {"species": [{"element": "Th", "occu": 1}], "abc": [0.28386352, 0.87997097, 0.25621699], "properties": {"magmom": -0.0}, "label": "Th", "xyz": [6.0730116529053, -1.4670756259468054, -0.5961635442451483]}, {"species": [{"element": "Th", "occu": 1}], "abc": [0.9721306999999991, 0.25597869, 0.37613548], "properties": {"magmom": -0.0}, "label": "Th", "xyz": [1.7662262744106563, 1.9788731513277493, 4.785693434693503]}, {"species": [{"element": "Th", "occu": 1}], "abc": [0.027870299999999, 0.74402131, 0.62386452], "properties": {"magmom": -0.0}, "label": "Th", "xyz": [5.133966865796554, 2.006883589264781, -2.6901396398410045]}, {"species": [{"element": "Th", "occu": 1}], "abc": [0.71613648, 0.12002903000000001, 0.74378401], "properties": {"magmom": -0.0}, "label": "Th", "xyz": [0.8271814852261399, 5.4528403403610755, 2.6917089600494783]}, {"species": [{"element": "Th", "occu": 1}], "abc": [0.59585791, 0.62387744, 0.88003357], "properties": {"magmom": -0.0}, "label": "Th", "xyz": [4.304390382663677, 4.529302207421811, 0.5948251441976968]}, {"species": [{"element": "Au", "occu": 1}], "abc": [-0.0, -0.0, 0.0], "properties": {"magmom": -0.0}, "label": "Au", "xyz": [0.0, 0.0, 0.0]}, {"species": [{"element": "Au", "occu": 1}], "abc": [0.5, -0.0, 0.0], "properties": {"magmom": -0.0}, "label": "Au", "xyz": [0.00010360500000000001, 0.000296265, 3.142426255]}, {"species": [{"element": "Au", "occu": 1}], "abc": [0.92987485, 0.49730843, 0.1612978], "properties": {"magmom": -0.0}, "label": "Au", "xyz": [3.4322417052608514, -0.6970812274315292, 4.4644215990871965]}, {"species": [{"element": "Au", "occu": 1}], "abc": [0.76812199, 0.83827987, 0.3361193], "properties": {"magmom": -0.0}, "label": "Au", "xyz": [5.7852167881144565, -0.6632983440291458, 2.3673458573860775]}, {"species": [{"element": "Au", "occu": 1}], "abc": [0.56785065, 0.33633767000000003, 0.4972253], "properties": {"magmom": -0.0}, "label": "Au", "xyz": [2.320542226872257, 2.6236819260429156, 1.8229063222357198]}, {"species": [{"element": "Au", "occu": 1}], "abc": [0.43214935, 0.66366233, 0.502775699999999], "properties": {"magmom": -0.0}, "label": "Au", "xyz": [4.579650911259182, 1.3620827883713478, 0.2726390935686127]}, {"species": [{"element": "Au", "occu": 1}], "abc": [0.23187801, 0.16172013, 0.6638807], "properties": {"magmom": -0.0}, "label": "Au", "xyz": [1.1149763518855436, 4.649055084029147, -0.27179834738607656]}, {"species": [{"element": "Au", "occu": 1}], "abc": [0.07012515, 0.50269157, 0.8387032], "properties": {"magmom": -0.0}, "label": "Au", "xyz": [3.4679514328705885, 4.6828459418458, -2.3688761832828655]}]}, "task_ids": null, "uncorrected_energy_per_atom": null, "energy_per_atom": -5.715861742857141, "formation_energy_per_atom": -0.6677042071428531, "energy_above_hull": 0.0, "is_stable": true, "equilibrium_reaction_energy_per_atom": null, "decomposes_to": null, "xas": null, "grain_boundaries": null, "band_gap": 0.0, "cbm": null, "vbm": null, "efermi": 6.77346886, "is_gap_direct": null, "is_metal": null, "es_source_calc_id": null, "bandstructure": null, "dos": null, "dos_energy_up": null, "dos_energy_down": null, "is_magnetic": null, "ordering": null, "total_magnetization": 1.3100000000000002e-05, "total_magnetization_normalized_vol": null, "total_magnetization_normalized_formula_units": null, "num_magnetic_sites": null, "num_unique_magnetic_sites": null, "types_of_magnetic_species": null, "bulk_modulus": null, "shear_modulus": null, "universal_anisotropy": null, "homogeneous_poisson": null, "e_total": null, "e_ionic": null, "e_electronic": null, "n": null, "e_ij_max": null, "weighted_surface_energy_EV_PER_ANG2": null, "weighted_surface_energy": null, "weighted_work_function": null, "surface_anisotropy": null, "shape_factor": null, "has_reconstructed": null, "possible_species": null, "has_props": null, "theoretical": null, "database_IDs": null, "fields_not_requested": ["builder_meta", "nsites", "elements", "nelements", "composition", "composition_reduced", "chemsys", "symmetry", "property_name", "deprecated", "deprecation_reasons", "last_updated", "origins", "warnings", "task_ids", "uncorrected_energy_per_atom", "equilibrium_reaction_energy_per_atom", "decomposes_to", "xas", "grain_boundaries", "cbm", "vbm", "is_gap_direct", "is_metal", "es_source_calc_id", "bandstructure", "dos", "dos_energy_up", "dos_energy_down", "is_magnetic", "ordering", "total_magnetization_normalized_vol", "total_magnetization_normalized_formula_units", "num_magnetic_sites", "num_unique_magnetic_sites", "types_of_magnetic_species", "bulk_modulus", "shear_modulus", "universal_anisotropy", "homogeneous_poisson", "e_total", "e_ionic", "e_electronic", "n", "e_ij_max", "weighted_surface_energy_EV_PER_ANG2", "weighted_surface_energy", "weighted_work_function", "surface_anisotropy", "shape_factor", "has_reconstructed", "possible_species", "has_props", "theoretical", "database_IDs"]}