{"builder_meta": null, "nsites": null, "elements": null, "nelements": null, "composition": null, "composition_reduced": null, "formula_pretty": "Th3Bi4", "formula_anonymous": "A3B4", "chemsys": null, "volume": 452.2641062964964, "density": 11.250086967773639, "density_atomic": 32.30457902117831, "symmetry": null, "property_name": null, "material_id": "mp-23270", "deprecated": null, "deprecation_reasons": null, "last_updated": null, "origins": null, "warnings": null, "structure": {"@module": "pymatgen.core.structure", "@class": "Structure", "charge": 0, "lattice": {"matrix": [[-4.83552957, 4.83552957, 4.83552957], [4.83552957, -4.83552957, 4.83552957], [4.83552957, 4.83552957, -4.83552957]], "pbc": [true, true, true], "a": 8.375382896741687, "b": 8.375382896741687, "c": 8.375382896741687, "alpha": 109.47122063449069, "beta": 109.47122063449069, "gamma": 109.47122063449069, "volume": 452.2641062964964}, "properties": {}, "sites": [{"species": [{"element": "Th", "occu": 1}], "abc": [0.625, 0.375, 0.25], "properties": {"magmom": 0.0}, "label": "Th", "xyz": [2.220446049250313e-16, 2.417764785, 3.6266471775]}, {"species": [{"element": "Th", "occu": 1}], "abc": [0.25, 0.625, 0.375], "properties": {"magmom": 0.0}, "label": "Th", "xyz": [3.6266471774999998, 2.220446049250313e-16, 2.4177647849999993]}, {"species": [{"element": "Th", "occu": 1}], "abc": [0.75, 0.875, 0.125], "properties": {"magmom": 0.0}, "label": "Th", "xyz": [1.2088823925000003, -2.220446049250313e-16, 7.253294355]}, {"species": [{"element": "Th", "occu": 1}], "abc": [0.125, 0.75, 0.875], "properties": {"magmom": 0.0}, "label": "Th", "xyz": [7.253294355, 1.2088823925000005, 0.0]}, {"species": [{"element": "Th", "occu": 1}], "abc": [0.375, 0.25, 0.625], "properties": {"magmom": 0.0}, "label": "Th", "xyz": [2.417764785, 3.6266471774999998, 0.0]}, {"species": [{"element": "Th", "occu": 1}], "abc": [0.875, 0.125, 0.75], "properties": {"magmom": 0.0}, "label": "Th", "xyz": [-4.440892098500626e-16, 7.253294355000001, 1.2088823925]}, {"species": [{"element": "Bi", "occu": 1}], "abc": [0.15767882, 0.15767882, 0.15767882], "properties": {"magmom": -0.0}, "label": "Bi", "xyz": [0.7624605966727074, 0.7624605966727074, 0.7624605966727074]}, {"species": [{"element": "Bi", "occu": 1}], "abc": [0.5, -0.0, 0.84232118], "properties": {"magmom": -0.0}, "label": "Bi", "xyz": [1.6553041883272925, 6.490833758327293, -1.6553041883272925]}, {"species": [{"element": "Bi", "occu": 1}], "abc": [0.84232118, 0.5, -0.0], "properties": {"magmom": -0.0}, "label": "Bi", "xyz": [-1.6553041883272925, 1.6553041883272925, 6.490833758327293]}, {"species": [{"element": "Bi", "occu": 1}], "abc": [-0.0, 0.84232118, 0.5], "properties": {"magmom": -0.0}, "label": "Bi", "xyz": [6.490833758327293, -1.6553041883272925, 1.6553041883272925]}, {"species": [{"element": "Bi", "occu": 1}], "abc": [0.34232118, 0.5, 0.0], "properties": {"magmom": -0.0}, "label": "Bi", "xyz": [0.7624605966727074, -0.7624605966727074, 4.073068973327293]}, {"species": [{"element": "Bi", "occu": 1}], "abc": [0.0, 0.34232118, 0.5], "properties": {"magmom": -0.0}, "label": "Bi", "xyz": [4.073068973327293, 0.7624605966727074, -0.7624605966727074]}, {"species": [{"element": "Bi", "occu": 1}], "abc": [0.5, 0.0, 0.34232118], "properties": {"magmom": -0.0}, "label": "Bi", "xyz": [-0.7624605966727074, 4.073068973327293, 0.7624605966727074]}, {"species": [{"element": "Bi", "occu": 1}], "abc": [0.65767882, 0.65767882, 0.65767882], "properties": {"magmom": -0.0}, "label": "Bi", "xyz": [3.1802253816727077, 3.1802253816727077, 3.1802253816727077]}]}, "task_ids": null, "uncorrected_energy_per_atom": null, "energy_per_atom": -6.02255308357143, "formation_energy_per_atom": -0.622308513571429, "energy_above_hull": 0.0, "is_stable": true, "equilibrium_reaction_energy_per_atom": null, "decomposes_to": null, "xas": null, "grain_boundaries": null, "band_gap": 0.0921, "cbm": null, "vbm": null, "efermi": 6.92570782, "is_gap_direct": null, "is_metal": null, "es_source_calc_id": null, "bandstructure": null, "dos": null, "dos_energy_up": null, "dos_energy_down": null, "is_magnetic": null, "ordering": null, "total_magnetization": 0.0, "total_magnetization_normalized_vol": null, "total_magnetization_normalized_formula_units": null, "num_magnetic_sites": null, "num_unique_magnetic_sites": null, "types_of_magnetic_species": null, "bulk_modulus": null, "shear_modulus": null, "universal_anisotropy": null, "homogeneous_poisson": null, "e_total": null, "e_ionic": null, "e_electronic": null, "n": null, "e_ij_max": null, "weighted_surface_energy_EV_PER_ANG2": null, "weighted_surface_energy": null, "weighted_work_function": null, "surface_anisotropy": null, "shape_factor": null, "has_reconstructed": null, "possible_species": null, "has_props": null, "theoretical": null, "database_IDs": null, "fields_not_requested": ["builder_meta", "nsites", "elements", "nelements", "composition", "composition_reduced", "chemsys", "symmetry", "property_name", "deprecated", "deprecation_reasons", "last_updated", "origins", "warnings", "task_ids", "uncorrected_energy_per_atom", "equilibrium_reaction_energy_per_atom", "decomposes_to", "xas", "grain_boundaries", "cbm", "vbm", "is_gap_direct", "is_metal", "es_source_calc_id", "bandstructure", "dos", "dos_energy_up", "dos_energy_down", "is_magnetic", "ordering", "total_magnetization_normalized_vol", "total_magnetization_normalized_formula_units", "num_magnetic_sites", "num_unique_magnetic_sites", "types_of_magnetic_species", "bulk_modulus", "shear_modulus", "universal_anisotropy", "homogeneous_poisson", "e_total", "e_ionic", "e_electronic", "n", "e_ij_max", "weighted_surface_energy_EV_PER_ANG2", "weighted_surface_energy", "weighted_work_function", "surface_anisotropy", "shape_factor", "has_reconstructed", "possible_species", "has_props", "theoretical", "database_IDs"]}