{"builder_meta": null, "nsites": null, "elements": null, "nelements": null, "composition": null, "composition_reduced": null, "formula_pretty": "Th3Cr", "formula_anonymous": "AB3", "chemsys": null, "volume": 227.68388933518017, "density": 10.91220243726852, "density_atomic": 28.46048616689752, "symmetry": null, "property_name": null, "material_id": "mp-1187449", "deprecated": null, "deprecation_reasons": null, "last_updated": null, "origins": null, "warnings": null, "structure": {"@module": "pymatgen.core.structure", "@class": "Structure", "charge": 0, "lattice": {"matrix": [[3.462768, -5.997691, 0.0], [3.462768, 5.997691, 0.0], [0.0, 0.0, 5.481442]], "pbc": [true, true, true], "a": 6.925536770049307, "b": 6.925536770049307, "c": 5.481442, "alpha": 90.0, "beta": 90.0, "gamma": 120.00000735626031, "volume": 227.68388933518017}, "properties": {}, "sites": [{"species": [{"element": "Th", "occu": 1}], "abc": [0.175898, 0.351796999999999, 0.25], "properties": {"magmom": -0.15}, "label": "Th", "xyz": [1.8272853597599967, 1.0549878492089944, 1.3703605]}, {"species": [{"element": "Th", "occu": 1}], "abc": [0.648203, 0.824102, 0.25], "properties": {"magmom": -0.151}, "label": "Th", "xyz": [5.09825064024, 1.0549878492090001, 1.3703605]}, {"species": [{"element": "Th", "occu": 1}], "abc": [0.175898, 0.824102, 0.25], "properties": {"magmom": -0.153}, "label": "Th", "xyz": [3.462768, 3.887727296964, 1.3703605]}, {"species": [{"element": "Th", "occu": 1}], "abc": [0.824102, 0.648203, 0.75], "properties": {"magmom": -0.15}, "label": "Th", "xyz": [5.09825064024, -1.0549878492090001, 4.1110815]}, {"species": [{"element": "Th", "occu": 1}], "abc": [0.351796999999999, 0.175898, 0.75], "properties": {"magmom": -0.151}, "label": "Th", "xyz": [1.8272853597599967, -1.0549878492089944, 4.1110815]}, {"species": [{"element": "Th", "occu": 1}], "abc": [0.824102, 0.175898, 0.75], "properties": {"magmom": -0.153}, "label": "Th", "xyz": [3.462768, -3.887727296964, 4.1110815]}, {"species": [{"element": "Cr", "occu": 1}], "abc": [0.333333, 0.666667, 0.75], "properties": {"magmom": 3.281}, "label": "Cr", "xyz": [3.462768, 1.9992343317939998, 4.1110815]}, {"species": [{"element": "Cr", "occu": 1}], "abc": [0.666667, 0.333333, 0.25], "properties": {"magmom": 3.281}, "label": "Cr", "xyz": [3.462768, -1.9992343317939998, 1.3703605]}]}, "task_ids": null, "uncorrected_energy_per_atom": null, "energy_per_atom": -58.49685509625001, "formation_energy_per_atom": 0.37792711374999705, "energy_above_hull": 0.37792711374999705, "is_stable": false, "equilibrium_reaction_energy_per_atom": null, "decomposes_to": null, "xas": null, "grain_boundaries": null, "band_gap": 0.0, "cbm": null, "vbm": null, "efermi": 7.13543136, "is_gap_direct": null, "is_metal": null, "es_source_calc_id": null, "bandstructure": null, "dos": null, "dos_energy_up": null, "dos_energy_down": null, "is_magnetic": null, "ordering": null, "total_magnetization": 6.0217526, "total_magnetization_normalized_vol": null, "total_magnetization_normalized_formula_units": null, "num_magnetic_sites": null, "num_unique_magnetic_sites": null, "types_of_magnetic_species": null, "bulk_modulus": null, "shear_modulus": null, "universal_anisotropy": null, "homogeneous_poisson": null, "e_total": null, "e_ionic": null, "e_electronic": null, "n": null, "e_ij_max": null, "weighted_surface_energy_EV_PER_ANG2": null, "weighted_surface_energy": null, "weighted_work_function": null, "surface_anisotropy": null, "shape_factor": null, "has_reconstructed": null, "possible_species": null, "has_props": null, "theoretical": null, "database_IDs": null, "fields_not_requested": ["builder_meta", "nsites", "elements", "nelements", "composition", "composition_reduced", "chemsys", "symmetry", "property_name", "deprecated", "deprecation_reasons", "last_updated", "origins", "warnings", "task_ids", "uncorrected_energy_per_atom", "equilibrium_reaction_energy_per_atom", "decomposes_to", "xas", "grain_boundaries", "cbm", "vbm", "is_gap_direct", "is_metal", "es_source_calc_id", "bandstructure", "dos", "dos_energy_up", "dos_energy_down", "is_magnetic", "ordering", "total_magnetization_normalized_vol", "total_magnetization_normalized_formula_units", "num_magnetic_sites", "num_unique_magnetic_sites", "types_of_magnetic_species", "bulk_modulus", "shear_modulus", "universal_anisotropy", "homogeneous_poisson", "e_total", "e_ionic", "e_electronic", "n", "e_ij_max", "weighted_surface_energy_EV_PER_ANG2", "weighted_surface_energy", "weighted_work_function", "surface_anisotropy", "shape_factor", "has_reconstructed", "possible_species", "has_props", "theoretical", "database_IDs"]}