{
  "builder_meta": null,
  "nsites": null,
  "elements": null,
  "nelements": null,
  "composition": null,
  "composition_reduced": null,
  "formula_pretty": "Th3Ga2",
  "formula_anonymous": "A2B3",
  "chemsys": null,
  "volume": 272.995723479887,
  "density": 10.164850230612135,
  "density_atomic": 27.299572347988697,
  "symmetry": null,
  "property_name": null,
  "material_id": "mp-30670",
  "deprecated": null,
  "deprecation_reasons": null,
  "last_updated": null,
  "origins": null,
  "warnings": null,
  "structure": {
    "@module": "pymatgen.core.structure",
    "@class": "Structure",
    "charge": 0,
    "lattice": {
      "matrix": [
        [4.2899822, -0.0, 0.0],
        [-0.0, 7.97719442, 0.0],
        [0.0, 0.0, 7.97719442]
      ],
      "pbc": [true, true, true],
      "a": 4.2899822,
      "b": 7.97719442,
      "c": 7.97719442,
      "alpha": 90.0,
      "beta": 90.0,
      "gamma": 90.0,
      "volume": 272.995723479887
    },
    "properties": {},
    "sites": [
      {
        "species": [{ "element": "Th", "occu": 1 }],
        "abc": [0.0, -0.0, 0.0],
        "properties": { "magmom": 0.33 },
        "label": "Th",
        "xyz": [0.0, 0.0, 0.0]
      },
      {
        "species": [{ "element": "Th", "occu": 1 }],
        "abc": [0.0, 0.5, 0.5],
        "properties": { "magmom": 0.33 },
        "label": "Th",
        "xyz": [0.0, 3.98859721, 3.98859721]
      },
      {
        "species": [{ "element": "Th", "occu": 1 }],
        "abc": [0.5, 0.17704735, 0.67704735],
        "properties": { "magmom": 0.211 },
        "label": "Th",
        "xyz": [2.1449911, 1.4123411324957869, 5.400938342495787]
      },
      {
        "species": [{ "element": "Th", "occu": 1 }],
        "abc": [0.5, 0.32295265, 0.17704735],
        "properties": { "magmom": 0.211 },
        "label": "Th",
        "xyz": [2.1449911, 2.576256077504213, 1.4123411324957869]
      },
      {
        "species": [{ "element": "Th", "occu": 1 }],
        "abc": [0.5, 0.67704735, 0.8229526500000001],
        "properties": { "magmom": 0.211 },
        "label": "Th",
        "xyz": [2.1449911, 5.400938342495787, 6.564853287504214]
      },
      {
        "species": [{ "element": "Th", "occu": 1 }],
        "abc": [0.5, 0.8229526500000001, 0.32295265],
        "properties": { "magmom": 0.211 },
        "label": "Th",
        "xyz": [2.1449911, 6.564853287504214, 2.576256077504213]
      },
      {
        "species": [{ "element": "Ga", "occu": 1 }],
        "abc": [0.0, 0.38385773, 0.88385773],
        "properties": { "magmom": -0.007 },
        "label": "Ga",
        "xyz": [0.0, 3.0621077418298666, 7.050704951829867]
      },
      {
        "species": [{ "element": "Ga", "occu": 1 }],
        "abc": [-0.0, 0.11614227, 0.38385773],
        "properties": { "magmom": -0.007 },
        "label": "Ga",
        "xyz": [0.0, 0.9264894681701334, 3.0621077418298666]
      },
      {
        "species": [{ "element": "Ga", "occu": 1 }],
        "abc": [0.0, 0.88385773, 0.61614227],
        "properties": { "magmom": -0.007 },
        "label": "Ga",
        "xyz": [0.0, 7.050704951829867, 4.915086678170133]
      },
      {
        "species": [{ "element": "Ga", "occu": 1 }],
        "abc": [-0.0, 0.61614227, 0.11614227],
        "properties": { "magmom": -0.007 },
        "label": "Ga",
        "xyz": [0.0, 4.915086678170133, 0.9264894681701334]
      }
    ]
  },
  "task_ids": null,
  "uncorrected_energy_per_atom": null,
  "energy_per_atom": -49.126241979999996,
  "formation_energy_per_atom": -0.46397430999999106,
  "energy_above_hull": 0.028591628500002002,
  "is_stable": false,
  "equilibrium_reaction_energy_per_atom": null,
  "decomposes_to": null,
  "xas": null,
  "grain_boundaries": null,
  "band_gap": 0.0,
  "cbm": null,
  "vbm": null,
  "efermi": 6.25106409,
  "is_gap_direct": null,
  "is_metal": null,
  "es_source_calc_id": null,
  "bandstructure": null,
  "dos": null,
  "dos_energy_up": null,
  "dos_energy_down": null,
  "is_magnetic": null,
  "ordering": null,
  "total_magnetization": 3.0123919,
  "total_magnetization_normalized_vol": null,
  "total_magnetization_normalized_formula_units": null,
  "num_magnetic_sites": null,
  "num_unique_magnetic_sites": null,
  "types_of_magnetic_species": null,
  "bulk_modulus": null,
  "shear_modulus": null,
  "universal_anisotropy": null,
  "homogeneous_poisson": null,
  "e_total": null,
  "e_ionic": null,
  "e_electronic": null,
  "n": null,
  "e_ij_max": null,
  "weighted_surface_energy_EV_PER_ANG2": null,
  "weighted_surface_energy": null,
  "weighted_work_function": null,
  "surface_anisotropy": null,
  "shape_factor": null,
  "has_reconstructed": null,
  "possible_species": null,
  "has_props": null,
  "theoretical": null,
  "database_IDs": null,
  "fields_not_requested": [
    "builder_meta",
    "nsites",
    "elements",
    "nelements",
    "composition",
    "composition_reduced",
    "chemsys",
    "symmetry",
    "property_name",
    "deprecated",
    "deprecation_reasons",
    "last_updated",
    "origins",
    "warnings",
    "task_ids",
    "uncorrected_energy_per_atom",
    "equilibrium_reaction_energy_per_atom",
    "decomposes_to",
    "xas",
    "grain_boundaries",
    "cbm",
    "vbm",
    "is_gap_direct",
    "is_metal",
    "es_source_calc_id",
    "bandstructure",
    "dos",
    "dos_energy_up",
    "dos_energy_down",
    "is_magnetic",
    "ordering",
    "total_magnetization_normalized_vol",
    "total_magnetization_normalized_formula_units",
    "num_magnetic_sites",
    "num_unique_magnetic_sites",
    "types_of_magnetic_species",
    "bulk_modulus",
    "shear_modulus",
    "universal_anisotropy",
    "homogeneous_poisson",
    "e_total",
    "e_ionic",
    "e_electronic",
    "n",
    "e_ij_max",
    "weighted_surface_energy_EV_PER_ANG2",
    "weighted_surface_energy",
    "weighted_work_function",
    "surface_anisotropy",
    "shape_factor",
    "has_reconstructed",
    "possible_species",
    "has_props",
    "theoretical",
    "database_IDs"
  ]
}
