{
  "builder_meta": null,
  "nsites": null,
  "elements": null,
  "nelements": null,
  "composition": null,
  "composition_reduced": null,
  "formula_pretty": "Th3In5",
  "formula_anonymous": "A3B5",
  "chemsys": null,
  "volume": 444.5793942728297,
  "density": 9.488625386691805,
  "density_atomic": 27.786212142051856,
  "symmetry": null,
  "property_name": null,
  "material_id": "mp-1189532",
  "deprecated": null,
  "deprecation_reasons": null,
  "last_updated": null,
  "origins": null,
  "warnings": null,
  "structure": {
    "@module": "pymatgen.core.structure",
    "@class": "Structure",
    "charge": 0,
    "lattice": {
      "matrix": [
        [5.15256954, 4.14730803, -4.7190000000000014e-5],
        [-5.15263303, 4.14738606, -1.006e-5],
        [-3.7330000000000003e-5, -8.862e-5, 10.40213339]
      ],
      "pbc": [true, true, true],
      "a": 6.6143130227156,
      "b": 6.614411407875269,
      "c": 10.402133390444476,
      "alpha": 90.00023303292508,
      "beta": 90.00087501917208,
      "gamma": 102.33857711752401,
      "volume": 444.57939427282975
    },
    "properties": {},
    "sites": [
      {
        "species": [{ "element": "Th", "occu": 1 }],
        "abc": [0.63245965, 0.63245965, 0.2498803],
        "properties": { "magmom": -0.0 },
        "label": "Th",
        "xyz": [-4.9482894777099024e-5, 5.246037176626283, 2.5992520038182545]
      },
      {
        "species": [{ "element": "Th", "occu": 1 }],
        "abc": [0.36753457, 0.36753457, 0.75011901],
        "properties": { "magmom": -0.0 },
        "label": "Th",
        "xyz": [-5.133671249235936e-5, 3.0485203501030247, 7.802816959040611]
      },
      {
        "species": [{ "element": "Th", "occu": 1 }],
        "abc": [0.79359226, 0.20640045, 0.50003913],
        "properties": { "magmom": 0.0 },
        "label": "Th",
        "xyz": [3.0255148635181746, 4.147249588083874, 5.201434204472275]
      },
      {
        "species": [{ "element": "Th", "occu": 1 }],
        "abc": [0.79357152, 0.20641246, -3.6080000000000014e-5],
        "properties": { "magmom": 0.0 },
        "label": "Th",
        "xyz": [3.0253647839108133, 4.147257699687022, -0.00041483412208760017]
      },
      {
        "species": [{ "element": "Th", "occu": 1 }],
        "abc": [0.20639945, 0.79359126, 0.50004013],
        "properties": { "magmom": 0.0 },
        "label": "Th",
        "xyz": [-3.0256156859506174, 4.147287111878098, 5.20146640909482]
      },
      {
        "species": [{ "element": "Th", "occu": 1 }],
        "abc": [0.20641246, 0.79357252, -3.6080000000000014e-5],
        "properties": { "magmom": 0.0 },
        "label": "Th",
        "xyz": [-3.025433422833, 4.147307663094534, -0.0003930329162498001]
      },
      {
        "species": [{ "element": "In", "occu": 1 }],
        "abc": [0.01853317, 0.01853317, 0.24995733],
        "properties": { "magmom": -0.0 },
        "label": "In",
        "xyz": [-1.050757809219044e-5, 0.1537048244493807, 2.600088427444266]
      },
      {
        "species": [{ "element": "In", "occu": 1 }],
        "abc": [0.9814505, 0.981451499999999, 0.75004434],
        "properties": { "magmom": -0.0 },
        "label": "In",
        "xyz": [-9.54640804816337e-5, 8.14076934043419, 7.8020050850433265]
      },
      {
        "species": [{ "element": "In", "occu": 1 }],
        "abc": [0.30729619, 0.30729719, 0.05084168],
        "properties": { "magmom": -0.0 },
        "label": "In",
        "xyz": [-2.6560788047252013e-5, 2.548927532868895, 0.5288443444147577]
      },
      {
        "species": [{ "element": "In", "occu": 1 }],
        "abc": [0.69270531, 0.69270431, 0.94914699],
        "properties": { "magmom": -0.0 },
        "label": "In",
        "xyz": [-7.42588842381678e-5, 5.7456903801763035, 9.873113939328059]
      },
      {
        "species": [{ "element": "In", "occu": 1 }],
        "abc": [0.30736826, 0.30736826, 0.44920699000000003],
        "properties": { "magmom": 0.0 },
        "label": "In",
        "xyz": [-3.628370776399245e-5, 2.5494858809521297, 4.672693432867511]
      },
      {
        "species": [{ "element": "In", "occu": 1 }],
        "abc": [0.692626, 0.692626, 0.5507911600000001],
        "properties": { "magmom": 0.0 },
        "label": "In",
        "xyz": [-6.453585874263416e-5, 5.74507197766774, 5.729363463514333]
      },
      {
        "species": [{ "element": "In", "occu": 1 }],
        "abc": [0.07488035, 0.49206924, 0.24998252],
        "properties": { "magmom": -0.0 },
        "label": "In",
        "xyz": [-2.14963534036393, 2.3513308299240823, 2.600343034388072]
      },
      {
        "species": [{ "element": "In", "occu": 1 }],
        "abc": [0.50795693, 0.92514114, 0.75002153],
        "properties": { "magmom": -0.0 },
        "label": "In",
        "xyz": [-2.149657388529657, 5.943504855343667, 7.801790723024491]
      },
      {
        "species": [{ "element": "In", "occu": 1 }],
        "abc": [0.9251421400000001, 0.50795693, 0.75002153],
        "properties": { "magmom": -0.0 },
        "label": "In",
        "xyz": [2.1495155570953033, 5.943476449767791, 7.801775232927584]
      },
      {
        "species": [{ "element": "In", "occu": 1 }],
        "abc": [0.49206924, 0.07488135, 0.24998252],
        "properties": { "magmom": -0.0 },
        "label": "In",
        "xyz": [2.1495755284064875, 2.3513024240610556, 2.600327544154526]
      }
    ]
  },
  "task_ids": null,
  "uncorrected_energy_per_atom": null,
  "energy_per_atom": -42.154738103125,
  "formation_energy_per_atom": -0.48989580937499205,
  "energy_above_hull": 0.0,
  "is_stable": true,
  "equilibrium_reaction_energy_per_atom": null,
  "decomposes_to": null,
  "xas": null,
  "grain_boundaries": null,
  "band_gap": 0.0,
  "cbm": null,
  "vbm": null,
  "efermi": 7.6314172,
  "is_gap_direct": null,
  "is_metal": null,
  "es_source_calc_id": null,
  "bandstructure": null,
  "dos": null,
  "dos_energy_up": null,
  "dos_energy_down": null,
  "is_magnetic": null,
  "ordering": null,
  "total_magnetization": 2e-6,
  "total_magnetization_normalized_vol": null,
  "total_magnetization_normalized_formula_units": null,
  "num_magnetic_sites": null,
  "num_unique_magnetic_sites": null,
  "types_of_magnetic_species": null,
  "bulk_modulus": null,
  "shear_modulus": null,
  "universal_anisotropy": null,
  "homogeneous_poisson": null,
  "e_total": null,
  "e_ionic": null,
  "e_electronic": null,
  "n": null,
  "e_ij_max": null,
  "weighted_surface_energy_EV_PER_ANG2": null,
  "weighted_surface_energy": null,
  "weighted_work_function": null,
  "surface_anisotropy": null,
  "shape_factor": null,
  "has_reconstructed": null,
  "possible_species": null,
  "has_props": null,
  "theoretical": null,
  "database_IDs": null,
  "fields_not_requested": [
    "builder_meta",
    "nsites",
    "elements",
    "nelements",
    "composition",
    "composition_reduced",
    "chemsys",
    "symmetry",
    "property_name",
    "deprecated",
    "deprecation_reasons",
    "last_updated",
    "origins",
    "warnings",
    "task_ids",
    "uncorrected_energy_per_atom",
    "equilibrium_reaction_energy_per_atom",
    "decomposes_to",
    "xas",
    "grain_boundaries",
    "cbm",
    "vbm",
    "is_gap_direct",
    "is_metal",
    "es_source_calc_id",
    "bandstructure",
    "dos",
    "dos_energy_up",
    "dos_energy_down",
    "is_magnetic",
    "ordering",
    "total_magnetization_normalized_vol",
    "total_magnetization_normalized_formula_units",
    "num_magnetic_sites",
    "num_unique_magnetic_sites",
    "types_of_magnetic_species",
    "bulk_modulus",
    "shear_modulus",
    "universal_anisotropy",
    "homogeneous_poisson",
    "e_total",
    "e_ionic",
    "e_electronic",
    "n",
    "e_ij_max",
    "weighted_surface_energy_EV_PER_ANG2",
    "weighted_surface_energy",
    "weighted_work_function",
    "surface_anisotropy",
    "shape_factor",
    "has_reconstructed",
    "possible_species",
    "has_props",
    "theoretical",
    "database_IDs"
  ]
}
