{"builder_meta": null, "nsites": null, "elements": null, "nelements": null, "composition": null, "composition_reduced": null, "formula_pretty": "Th3Mo", "formula_anonymous": "AB3", "chemsys": null, "volume": 220.73391776679753, "density": 11.916944365055476, "density_atomic": 27.59173972084969, "symmetry": null, "property_name": null, "material_id": "mp-1187069", "deprecated": null, "deprecation_reasons": null, "last_updated": null, "origins": null, "warnings": null, "structure": {"@module": "pymatgen.core.structure", "@class": "Structure", "charge": 0, "lattice": {"matrix": [[3.334549, -5.775609, 0.0], [3.334549, 5.775609, 0.0], [0.0, 0.0, 5.7306539999999995]], "pbc": [true, true, true], "a": 6.669098616326048, "b": 6.669098616326048, "c": 5.7306539999999995, "alpha": 90.0, "beta": 90.0, "gamma": 120.00000611413998, "volume": 220.7339177667975}, "properties": {}, "sites": [{"species": [{"element": "Th", "occu": 1}], "abc": [0.823778, 0.176222, 0.75], "properties": {"magmom": -0.0}, "label": "Th", "xyz": [3.334549, -3.7400302616040006, 4.297990499999999]}, {"species": [{"element": "Th", "occu": 1}], "abc": [0.352445, 0.176222, 0.75], "properties": {"magmom": -0.0}, "label": "Th", "xyz": [1.762866016183, -1.017795144807, 4.297990499999999]}, {"species": [{"element": "Th", "occu": 1}], "abc": [0.823778, 0.647555, 0.75], "properties": {"magmom": -0.0}, "label": "Th", "xyz": [4.906231983816999, -1.0177951448070002, 4.297990499999999]}, {"species": [{"element": "Th", "occu": 1}], "abc": [0.176222, 0.823778, 0.25], "properties": {"magmom": -0.0}, "label": "Th", "xyz": [3.334549, 3.7400302616040006, 1.4326634999999999]}, {"species": [{"element": "Th", "occu": 1}], "abc": [0.647555, 0.823778, 0.25], "properties": {"magmom": -0.0}, "label": "Th", "xyz": [4.906231983816999, 1.0177951448070002, 1.4326634999999999]}, {"species": [{"element": "Th", "occu": 1}], "abc": [0.176222, 0.352445, 0.25], "properties": {"magmom": -0.0}, "label": "Th", "xyz": [1.762866016183, 1.017795144807, 1.4326634999999999]}, {"species": [{"element": "Mo", "occu": 1}], "abc": [0.666667, 0.333333, 0.25], "properties": {"magmom": -0.001}, "label": "Mo", "xyz": [3.334549, -1.925206850406, 1.4326634999999999]}, {"species": [{"element": "Mo", "occu": 1}], "abc": [0.333333, 0.666667, 0.75], "properties": {"magmom": -0.001}, "label": "Mo", "xyz": [3.334549, 1.925206850406, 4.297990499999999]}]}, "task_ids": null, "uncorrected_energy_per_atom": null, "energy_per_atom": -61.27238484250001, "formation_energy_per_atom": 0.35205662999999904, "energy_above_hull": 0.35205662999999904, "is_stable": false, "equilibrium_reaction_energy_per_atom": null, "decomposes_to": null, "xas": null, "grain_boundaries": null, "band_gap": 0.0, "cbm": null, "vbm": null, "efermi": 7.95371729, "is_gap_direct": null, "is_metal": null, "es_source_calc_id": null, "bandstructure": null, "dos": null, "dos_energy_up": null, "dos_energy_down": null, "is_magnetic": null, "ordering": null, "total_magnetization": 5.6300000000000006e-05, "total_magnetization_normalized_vol": null, "total_magnetization_normalized_formula_units": null, "num_magnetic_sites": null, "num_unique_magnetic_sites": null, "types_of_magnetic_species": null, "bulk_modulus": null, "shear_modulus": null, "universal_anisotropy": null, "homogeneous_poisson": null, "e_total": null, "e_ionic": null, "e_electronic": null, "n": null, "e_ij_max": null, "weighted_surface_energy_EV_PER_ANG2": null, "weighted_surface_energy": null, "weighted_work_function": null, "surface_anisotropy": null, "shape_factor": null, "has_reconstructed": null, "possible_species": null, "has_props": null, "theoretical": null, "database_IDs": null, "fields_not_requested": ["builder_meta", "nsites", "elements", "nelements", "composition", "composition_reduced", "chemsys", "symmetry", "property_name", "deprecated", "deprecation_reasons", "last_updated", "origins", "warnings", "task_ids", "uncorrected_energy_per_atom", "equilibrium_reaction_energy_per_atom", "decomposes_to", "xas", "grain_boundaries", "cbm", "vbm", "is_gap_direct", "is_metal", "es_source_calc_id", "bandstructure", "dos", "dos_energy_up", "dos_energy_down", "is_magnetic", "ordering", "total_magnetization_normalized_vol", "total_magnetization_normalized_formula_units", "num_magnetic_sites", "num_unique_magnetic_sites", "types_of_magnetic_species", "bulk_modulus", "shear_modulus", "universal_anisotropy", "homogeneous_poisson", "e_total", "e_ionic", "e_electronic", "n", "e_ij_max", "weighted_surface_energy_EV_PER_ANG2", "weighted_surface_energy", "weighted_work_function", "surface_anisotropy", "shape_factor", "has_reconstructed", "possible_species", "has_props", "theoretical", "database_IDs"]}