{"builder_meta": null, "nsites": null, "elements": null, "nelements": null, "composition": null, "composition_reduced": null, "formula_pretty": "Th3N4", "formula_anonymous": "A3B4", "chemsys": null, "volume": 119.0612702798796, "density": 10.490056740910427, "density_atomic": 17.008752897125657, "symmetry": null, "property_name": null, "material_id": "mp-467", "deprecated": null, "deprecation_reasons": null, "last_updated": null, "origins": null, "warnings": null, "structure": {"@module": "pymatgen.core.structure", "@class": "Structure", "charge": 0, "lattice": {"matrix": [[3.79686652, 0.0027565800000000002, 8.624421120000001], [1.8166253700000001, 3.33407768, 8.624421120000001], [0.00463914, 0.0027565800000000002, 9.42320649]], "pbc": [true, true, true], "a": 9.423207661116901, "b": 9.42320759435469, "c": 9.423208035140227, "alpha": 23.73309638718189, "beta": 23.733091598618625, "gamma": 23.733099147270103, "volume": 119.06127027987961}, "properties": {}, "sites": [{"species": [{"element": "Th", "occu": 1}], "abc": [-0.0, -0.0, 0.0], "properties": {"magmom": -0.0}, "label": "Th", "xyz": [0.0, 0.0, 0.0]}, {"species": [{"element": "Th", "occu": 1}], "abc": [0.22191913, 0.22191913, 0.22191913], "properties": {"magmom": 0.0}, "label": "Th", "xyz": [1.246770750403604, 0.7411190937687692, 5.919037849479205]}, {"species": [{"element": "Th", "occu": 1}], "abc": [0.77808087, 0.77808087, 0.77808087], "properties": {"magmom": 0.0}, "label": "Th", "xyz": [4.371360279596397, 2.598471746231231, 20.753010880520797]}, {"species": [{"element": "N", "occu": 1}], "abc": [0.13243618000000001, 0.13243618000000001, 0.13243618000000001], "properties": {"magmom": 0.0}, "label": "N", "xyz": [0.7440438123526655, 0.4422826536125912, 3.532344246575052]}, {"species": [{"element": "N", "occu": 1}], "abc": [0.86756382, 0.86756382, 0.86756382], "properties": {"magmom": 0.0}, "label": "N", "xyz": [4.874087217647335, 2.8973081863874093, 23.13970448342495]}, {"species": [{"element": "N", "occu": 1}], "abc": [0.37697175, 0.37697175, 0.37697175], "properties": {"magmom": -0.0}, "label": "N", "xyz": [2.117876686108403, 1.25893140323877, 10.054608885833378]}, {"species": [{"element": "N", "occu": 1}], "abc": [0.6230282500000001, 0.6230282500000001, 0.6230282500000001], "properties": {"magmom": -0.0}, "label": "N", "xyz": [3.500254343891598, 2.08065943676123, 16.617439844166626]}]}, "task_ids": null, "uncorrected_energy_per_atom": null, "energy_per_atom": -38.59032202428572, "formation_energy_per_atom": -1.8844950049999951, "energy_above_hull": 0.0, "is_stable": true, "equilibrium_reaction_energy_per_atom": null, "decomposes_to": null, "xas": null, "grain_boundaries": null, "band_gap": 1.4415, "cbm": null, "vbm": null, "efermi": 6.57738921, "is_gap_direct": null, "is_metal": null, "es_source_calc_id": null, "bandstructure": null, "dos": null, "dos_energy_up": null, "dos_energy_down": null, "is_magnetic": null, "ordering": null, "total_magnetization": 0.0, "total_magnetization_normalized_vol": null, "total_magnetization_normalized_formula_units": null, "num_magnetic_sites": null, "num_unique_magnetic_sites": null, "types_of_magnetic_species": null, "bulk_modulus": null, "shear_modulus": null, "universal_anisotropy": null, "homogeneous_poisson": null, "e_total": null, "e_ionic": null, "e_electronic": null, "n": null, "e_ij_max": null, "weighted_surface_energy_EV_PER_ANG2": null, "weighted_surface_energy": null, "weighted_work_function": null, "surface_anisotropy": null, "shape_factor": null, "has_reconstructed": null, "possible_species": null, "has_props": null, "theoretical": null, "database_IDs": null, "fields_not_requested": ["builder_meta", "nsites", "elements", "nelements", "composition", "composition_reduced", "chemsys", "symmetry", "property_name", "deprecated", "deprecation_reasons", "last_updated", "origins", "warnings", "task_ids", "uncorrected_energy_per_atom", "equilibrium_reaction_energy_per_atom", "decomposes_to", "xas", "grain_boundaries", "cbm", "vbm", "is_gap_direct", "is_metal", "es_source_calc_id", "bandstructure", "dos", "dos_energy_up", "dos_energy_down", "is_magnetic", "ordering", "total_magnetization_normalized_vol", "total_magnetization_normalized_formula_units", "num_magnetic_sites", "num_unique_magnetic_sites", "types_of_magnetic_species", "bulk_modulus", "shear_modulus", "universal_anisotropy", "homogeneous_poisson", "e_total", "e_ionic", "e_electronic", "n", "e_ij_max", "weighted_surface_energy_EV_PER_ANG2", "weighted_surface_energy", "weighted_work_function", "surface_anisotropy", "shape_factor", "has_reconstructed", "possible_species", "has_props", "theoretical", "database_IDs"]}