{
  "builder_meta": null,
  "nsites": null,
  "elements": null,
  "nelements": null,
  "composition": null,
  "composition_reduced": null,
  "formula_pretty": "Th3Nb",
  "formula_anonymous": "AB3",
  "chemsys": null,
  "volume": 228.83644239989735,
  "density": 11.450968652457927,
  "density_atomic": 28.60455529998717,
  "symmetry": null,
  "property_name": null,
  "material_id": "mp-1187063",
  "deprecated": null,
  "deprecation_reasons": null,
  "last_updated": null,
  "origins": null,
  "warnings": null,
  "structure": {
    "@module": "pymatgen.core.structure",
    "@class": "Structure",
    "charge": 0,
    "lattice": {
      "matrix": [
        [3.368688, -5.834739, 0.0],
        [3.368688, 5.834739, 0.0],
        [0.0, 0.0, 5.821206]
      ],
      "pbc": [true, true, true],
      "a": 6.737376198451813,
      "b": 6.737376198451813,
      "c": 5.821206,
      "alpha": 90.0,
      "beta": 90.0,
      "gamma": 120.00000194875065,
      "volume": 228.83644239989735
    },
    "properties": {},
    "sites": [
      {
        "species": [{ "element": "Th", "occu": 1 }],
        "abc": [0.82462, 0.17538, 0.75],
        "properties": { "magmom": 0.0 },
        "label": "Th",
        "xyz": [3.368688, -3.7881459483599995, 4.3659045]
      },
      {
        "species": [{ "element": "Th", "occu": 1 }],
        "abc": [0.350761, 0.17538, 0.75],
        "properties": { "magmom": 0.0 },
        "label": "Th",
        "xyz": [1.772404873008, -1.023302360559, 4.3659045]
      },
      {
        "species": [{ "element": "Th", "occu": 1 }],
        "abc": [0.82462, 0.649239, 0.75],
        "properties": { "magmom": 0.0 },
        "label": "Th",
        "xyz": [4.964971126992, -1.0233023605589997, 4.3659045]
      },
      {
        "species": [{ "element": "Th", "occu": 1 }],
        "abc": [0.17538, 0.82462, 0.25],
        "properties": { "magmom": 0.0 },
        "label": "Th",
        "xyz": [3.368688, 3.7881459483599995, 1.4553015]
      },
      {
        "species": [{ "element": "Th", "occu": 1 }],
        "abc": [0.649239, 0.82462, 0.25],
        "properties": { "magmom": 0.0 },
        "label": "Th",
        "xyz": [4.964971126992, 1.0233023605589997, 1.4553015]
      },
      {
        "species": [{ "element": "Th", "occu": 1 }],
        "abc": [0.17538, 0.350761, 0.25],
        "properties": { "magmom": 0.0 },
        "label": "Th",
        "xyz": [1.772404873008, 1.023302360559, 1.4553015]
      },
      {
        "species": [{ "element": "Nb", "occu": 1 }],
        "abc": [0.666667, 0.333333, 0.25],
        "properties": { "magmom": -0.001 },
        "label": "Nb",
        "xyz": [3.3686879999999997, -1.9449168898259999, 1.4553015]
      },
      {
        "species": [{ "element": "Nb", "occu": 1 }],
        "abc": [0.333333, 0.666667, 0.75],
        "properties": { "magmom": -0.001 },
        "label": "Nb",
        "xyz": [3.3686879999999997, 1.9449168898259999, 4.3659045]
      }
    ]
  },
  "task_ids": null,
  "uncorrected_energy_per_atom": null,
  "energy_per_atom": -61.02727398500001,
  "formation_energy_per_atom": 0.262691289999999,
  "energy_above_hull": 0.262691289999999,
  "is_stable": false,
  "equilibrium_reaction_energy_per_atom": null,
  "decomposes_to": null,
  "xas": null,
  "grain_boundaries": null,
  "band_gap": 0.0,
  "cbm": null,
  "vbm": null,
  "efermi": 7.38187136,
  "is_gap_direct": null,
  "is_metal": null,
  "es_source_calc_id": null,
  "bandstructure": null,
  "dos": null,
  "dos_energy_up": null,
  "dos_energy_down": null,
  "is_magnetic": null,
  "ordering": null,
  "total_magnetization": 0.0030875,
  "total_magnetization_normalized_vol": null,
  "total_magnetization_normalized_formula_units": null,
  "num_magnetic_sites": null,
  "num_unique_magnetic_sites": null,
  "types_of_magnetic_species": null,
  "bulk_modulus": null,
  "shear_modulus": null,
  "universal_anisotropy": null,
  "homogeneous_poisson": null,
  "e_total": null,
  "e_ionic": null,
  "e_electronic": null,
  "n": null,
  "e_ij_max": null,
  "weighted_surface_energy_EV_PER_ANG2": null,
  "weighted_surface_energy": null,
  "weighted_work_function": null,
  "surface_anisotropy": null,
  "shape_factor": null,
  "has_reconstructed": null,
  "possible_species": null,
  "has_props": null,
  "theoretical": null,
  "database_IDs": null,
  "fields_not_requested": [
    "builder_meta",
    "nsites",
    "elements",
    "nelements",
    "composition",
    "composition_reduced",
    "chemsys",
    "symmetry",
    "property_name",
    "deprecated",
    "deprecation_reasons",
    "last_updated",
    "origins",
    "warnings",
    "task_ids",
    "uncorrected_energy_per_atom",
    "equilibrium_reaction_energy_per_atom",
    "decomposes_to",
    "xas",
    "grain_boundaries",
    "cbm",
    "vbm",
    "is_gap_direct",
    "is_metal",
    "es_source_calc_id",
    "bandstructure",
    "dos",
    "dos_energy_up",
    "dos_energy_down",
    "is_magnetic",
    "ordering",
    "total_magnetization_normalized_vol",
    "total_magnetization_normalized_formula_units",
    "num_magnetic_sites",
    "num_unique_magnetic_sites",
    "types_of_magnetic_species",
    "bulk_modulus",
    "shear_modulus",
    "universal_anisotropy",
    "homogeneous_poisson",
    "e_total",
    "e_ionic",
    "e_electronic",
    "n",
    "e_ij_max",
    "weighted_surface_energy_EV_PER_ANG2",
    "weighted_surface_energy",
    "weighted_work_function",
    "surface_anisotropy",
    "shape_factor",
    "has_reconstructed",
    "possible_species",
    "has_props",
    "theoretical",
    "database_IDs"
  ]
}
