{
  "builder_meta": null,
  "nsites": null,
  "elements": null,
  "nelements": null,
  "composition": null,
  "composition_reduced": null,
  "formula_pretty": "Th3O2",
  "formula_anonymous": "A2B3",
  "chemsys": null,
  "volume": 208.30041104350988,
  "density": 11.60881096807817,
  "density_atomic": 20.83004110435099,
  "symmetry": null,
  "property_name": null,
  "material_id": "mp-865439",
  "deprecated": null,
  "deprecation_reasons": null,
  "last_updated": null,
  "origins": null,
  "warnings": null,
  "structure": {
    "@module": "pymatgen.core.structure",
    "@class": "Structure",
    "charge": 0,
    "lattice": {
      "matrix": [
        [6.148693, -3.202187, 0.0],
        [6.148693, 3.202187, 0.0],
        [4.481022, 0.0, 5.289695]
      ],
      "pbc": [true, true, true],
      "a": 6.932562815526304,
      "b": 6.932562815526304,
      "c": 6.93256311601337,
      "alpha": 55.02022867696316,
      "beta": 55.02022867696316,
      "gamma": 55.02023360174039,
      "volume": 208.30041104350988
    },
    "properties": {},
    "sites": [
      {
        "species": [{ "element": "Th", "occu": 1 }],
        "abc": [0.082777999999999, 0.417222, 0.75],
        "properties": { "magmom": -0.0 },
        "label": "Th",
        "xyz": [6.435112999999994, 1.0709522290280031, 3.96727125]
      },
      {
        "species": [{ "element": "Th", "occu": 1 }],
        "abc": [0.75, 0.082777999999999, 0.417222],
        "properties": { "magmom": 0.0 },
        "label": "Th",
        "xyz": [6.9900772200379935, -2.136569614514003, 2.20697712729]
      },
      {
        "species": [{ "element": "Th", "occu": 1 }],
        "abc": [0.417222, 0.75, 0.082777999999999],
        "properties": { "magmom": -0.0 },
        "label": "Th",
        "xyz": [7.547819779961994, 1.0656173854859998, 0.43787037270999474]
      },
      {
        "species": [{ "element": "Th", "occu": 1 }],
        "abc": [0.582778, 0.25, 0.917222],
        "properties": { "magmom": -0.0 },
        "label": "Th",
        "xyz": [9.230588220038001, -1.065617385486, 4.85182462729]
      },
      {
        "species": [{ "element": "Th", "occu": 1 }],
        "abc": [0.25, 0.917222, 0.582778],
        "properties": { "magmom": 0.0 },
        "label": "Th",
        "xyz": [9.788330779962, 2.136569614514, 3.08271787271]
      },
      {
        "species": [{ "element": "Th", "occu": 1 }],
        "abc": [0.917222, 0.582778, 0.25],
        "properties": { "magmom": -0.0 },
        "label": "Th",
        "xyz": [10.343295, -1.070952229028, 1.32242375]
      },
      {
        "species": [{ "element": "O", "occu": 1 }],
        "abc": [0.33840000000000003, 0.33840000000000003, 0.33840000000000003],
        "properties": { "magmom": 0.0 },
        "label": "O",
        "xyz": [5.6778132672, 0.0, 1.7900327880000002]
      },
      {
        "species": [{ "element": "O", "occu": 1 }],
        "abc": [0.16160000000000002, 0.16160000000000002, 0.16160000000000002],
        "properties": { "magmom": 0.0 },
        "label": "O",
        "xyz": [2.7113907328, 0.0, 0.8548147120000001]
      },
      {
        "species": [{ "element": "O", "occu": 1 }],
        "abc": [0.8384, 0.8384, 0.8384],
        "properties": { "magmom": 0.0 },
        "label": "O",
        "xyz": [14.0670172672, 0.0, 4.4348802880000004]
      },
      {
        "species": [{ "element": "O", "occu": 1 }],
        "abc": [0.6616000000000001, 0.6616000000000001, 0.6616000000000001],
        "properties": { "magmom": 0.0 },
        "label": "O",
        "xyz": [11.100594732800001, 0.0, 3.4996622120000005]
      }
    ]
  },
  "task_ids": null,
  "uncorrected_energy_per_atom": null,
  "energy_per_atom": -8.728681196,
  "formation_energy_per_atom": -2.301181843999998,
  "energy_above_hull": 0.31949226000000003,
  "is_stable": false,
  "equilibrium_reaction_energy_per_atom": null,
  "decomposes_to": null,
  "xas": null,
  "grain_boundaries": null,
  "band_gap": 0.0,
  "cbm": null,
  "vbm": null,
  "efermi": 8.51362532,
  "is_gap_direct": null,
  "is_metal": null,
  "es_source_calc_id": null,
  "bandstructure": null,
  "dos": null,
  "dos_energy_up": null,
  "dos_energy_down": null,
  "is_magnetic": null,
  "ordering": null,
  "total_magnetization": 0.0005874,
  "total_magnetization_normalized_vol": null,
  "total_magnetization_normalized_formula_units": null,
  "num_magnetic_sites": null,
  "num_unique_magnetic_sites": null,
  "types_of_magnetic_species": null,
  "bulk_modulus": null,
  "shear_modulus": null,
  "universal_anisotropy": null,
  "homogeneous_poisson": null,
  "e_total": null,
  "e_ionic": null,
  "e_electronic": null,
  "n": null,
  "e_ij_max": null,
  "weighted_surface_energy_EV_PER_ANG2": null,
  "weighted_surface_energy": null,
  "weighted_work_function": null,
  "surface_anisotropy": null,
  "shape_factor": null,
  "has_reconstructed": null,
  "possible_species": null,
  "has_props": null,
  "theoretical": null,
  "database_IDs": null,
  "fields_not_requested": [
    "builder_meta",
    "nsites",
    "elements",
    "nelements",
    "composition",
    "composition_reduced",
    "chemsys",
    "symmetry",
    "property_name",
    "deprecated",
    "deprecation_reasons",
    "last_updated",
    "origins",
    "warnings",
    "task_ids",
    "uncorrected_energy_per_atom",
    "equilibrium_reaction_energy_per_atom",
    "decomposes_to",
    "xas",
    "grain_boundaries",
    "cbm",
    "vbm",
    "is_gap_direct",
    "is_metal",
    "es_source_calc_id",
    "bandstructure",
    "dos",
    "dos_energy_up",
    "dos_energy_down",
    "is_magnetic",
    "ordering",
    "total_magnetization_normalized_vol",
    "total_magnetization_normalized_formula_units",
    "num_magnetic_sites",
    "num_unique_magnetic_sites",
    "types_of_magnetic_species",
    "bulk_modulus",
    "shear_modulus",
    "universal_anisotropy",
    "homogeneous_poisson",
    "e_total",
    "e_ionic",
    "e_electronic",
    "n",
    "e_ij_max",
    "weighted_surface_energy_EV_PER_ANG2",
    "weighted_surface_energy",
    "weighted_work_function",
    "surface_anisotropy",
    "shape_factor",
    "has_reconstructed",
    "possible_species",
    "has_props",
    "theoretical",
    "database_IDs"
  ]
}
