{"builder_meta": null, "nsites": null, "elements": null, "nelements": null, "composition": null, "composition_reduced": null, "formula_pretty": "Th3Pt5", "formula_anonymous": "A3B5", "chemsys": null, "volume": 176.33182461218695, "density": 15.741048521171832, "density_atomic": 22.04147807652337, "symmetry": null, "property_name": null, "material_id": "mp-1207128", "deprecated": null, "deprecation_reasons": null, "last_updated": null, "origins": null, "warnings": null, "structure": {"@module": "pymatgen.core.structure", "@class": "Structure", "charge": 0, "lattice": {"matrix": [[-0.0, 0.0, -3.87830398], [-3.62283947, -6.27494277, -0.0], [-3.62283947, 6.27494277, 0.0]], "pbc": [true, true, true], "a": 3.87830398, "b": 7.245679581113504, "c": 7.245679581113504, "alpha": 120.00000585393362, "beta": 90.0, "gamma": 90.0, "volume": 176.33182461218695}, "properties": {}, "sites": [{"species": [{"element": "Th", "occu": 1}], "abc": [0.5, 0.35984098000000003, 0.35984098000000003], "properties": {"magmom": 0.0}, "label": "Th", "xyz": [-2.6072922105349616, 0.0, -1.93915199]}, {"species": [{"element": "Th", "occu": 1}], "abc": [0.5, -0.0, 0.64015802], "properties": {"magmom": 0.0}, "label": "Th", "xyz": [-2.3191897418930494, 4.016954939256515, -1.93915199]}, {"species": [{"element": "Th", "occu": 1}], "abc": [0.5, 0.64015802, -0.0], "properties": {"magmom": 0.0}, "label": "Th", "xyz": [-2.3191897418930494, -4.016954939256515, -1.93915199]}, {"species": [{"element": "Pt", "occu": 1}], "abc": [-0.0, 0.77248881, 0.77248881], "properties": {"magmom": -0.0}, "label": "Pt", "xyz": [-5.597205902002662, 0.0, 0.0]}, {"species": [{"element": "Pt", "occu": 1}], "abc": [-0.0, 0.0, 0.22751119], "properties": {"magmom": -0.0}, "label": "Pt", "xyz": [-0.8242365189986693, 1.4276196967845962, 0.0]}, {"species": [{"element": "Pt", "occu": 1}], "abc": [0.0, 0.22751119, 0.0], "properties": {"magmom": -0.0}, "label": "Pt", "xyz": [-0.8242365189986693, -1.4276196967845962, 0.0]}, {"species": [{"element": "Pt", "occu": 1}], "abc": [0.0, 0.666667, 0.333333], "properties": {"magmom": -0.0}, "label": "Pt", "xyz": [-3.62283947, -2.0916517732951805, 0.0]}, {"species": [{"element": "Pt", "occu": 1}], "abc": [-0.0, 0.333333, 0.666667], "properties": {"magmom": -0.0}, "label": "Pt", "xyz": [-3.62283947, 2.0916517732951805, 0.0]}]}, "task_ids": null, "uncorrected_energy_per_atom": null, "energy_per_atom": -61.07002756625, "formation_energy_per_atom": -1.336981197499994, "energy_above_hull": 0.004755704375, "is_stable": false, "equilibrium_reaction_energy_per_atom": null, "decomposes_to": null, "xas": null, "grain_boundaries": null, "band_gap": 0.0, "cbm": null, "vbm": null, "efermi": 7.36516863, "is_gap_direct": null, "is_metal": null, "es_source_calc_id": null, "bandstructure": null, "dos": null, "dos_energy_up": null, "dos_energy_down": null, "is_magnetic": null, "ordering": null, "total_magnetization": 1e-07, "total_magnetization_normalized_vol": null, "total_magnetization_normalized_formula_units": null, "num_magnetic_sites": null, "num_unique_magnetic_sites": null, "types_of_magnetic_species": null, "bulk_modulus": null, "shear_modulus": null, "universal_anisotropy": null, "homogeneous_poisson": null, "e_total": null, "e_ionic": null, "e_electronic": null, "n": null, "e_ij_max": null, "weighted_surface_energy_EV_PER_ANG2": null, "weighted_surface_energy": null, "weighted_work_function": null, "surface_anisotropy": null, "shape_factor": null, "has_reconstructed": null, "possible_species": null, "has_props": null, "theoretical": null, "database_IDs": null, "fields_not_requested": ["builder_meta", "nsites", "elements", "nelements", "composition", "composition_reduced", "chemsys", "symmetry", "property_name", "deprecated", "deprecation_reasons", "last_updated", "origins", "warnings", "task_ids", "uncorrected_energy_per_atom", "equilibrium_reaction_energy_per_atom", "decomposes_to", "xas", "grain_boundaries", "cbm", "vbm", "is_gap_direct", "is_metal", "es_source_calc_id", "bandstructure", "dos", "dos_energy_up", "dos_energy_down", "is_magnetic", "ordering", "total_magnetization_normalized_vol", "total_magnetization_normalized_formula_units", "num_magnetic_sites", "num_unique_magnetic_sites", "types_of_magnetic_species", "bulk_modulus", "shear_modulus", "universal_anisotropy", "homogeneous_poisson", "e_total", "e_ionic", "e_electronic", "n", "e_ij_max", "weighted_surface_energy_EV_PER_ANG2", "weighted_surface_energy", "weighted_work_function", "surface_anisotropy", "shape_factor", "has_reconstructed", "possible_species", "has_props", "theoretical", "database_IDs"]}