{"builder_meta": null, "nsites": null, "elements": null, "nelements": null, "composition": null, "composition_reduced": null, "formula_pretty": "Th3P4", "formula_anonymous": "A3B4", "chemsys": null, "volume": 326.1418460993449, "density": 8.35009290805165, "density_atomic": 23.295846149953206, "symmetry": null, "property_name": null, "material_id": "mp-1347", "deprecated": null, "deprecation_reasons": null, "last_updated": null, "origins": null, "warnings": null, "structure": {"@module": "pymatgen.core.structure", "@class": "Structure", "charge": 0, "lattice": {"matrix": [[7.08108601, -0.0, -2.50354199], [-3.54054301, 6.13240065, -2.50354199], [-0.0, 0.0, 7.510625969999999]], "pbc": [true, true, true], "a": 7.510625911114924, "b": 7.51062614123972, "c": 7.510625969999999, "alpha": 109.47122017263531, "beta": 109.47122079331126, "gamma": 109.47121989313733, "volume": 326.14184609934483}, "properties": {}, "sites": [{"species": [{"element": "Th", "occu": 1}], "abc": [0.25, 0.625, 0.375], "properties": {"magmom": -0.0}, "label": "Th", "xyz": [-0.4425678787499998, 3.83275040625, 0.6258854974999992]}, {"species": [{"element": "Th", "occu": 1}], "abc": [0.375, 0.25, 0.625], "properties": {"magmom": -0.0}, "label": "Th", "xyz": [1.7702715012499999, 1.5331001625, 3.1294274874999988]}, {"species": [{"element": "Th", "occu": 1}], "abc": [0.125, 0.75, 0.875], "properties": {"magmom": -0.0}, "label": "Th", "xyz": [-1.7702715062499998, 4.5993004875, 4.3811984824999985]}, {"species": [{"element": "Th", "occu": 1}], "abc": [0.875, 0.125, 0.75], "properties": {"magmom": -0.0}, "label": "Th", "xyz": [5.7533823825, 0.76655008125, 3.1294274874999988]}, {"species": [{"element": "Th", "occu": 1}], "abc": [0.625, 0.375, 0.25], "properties": {"magmom": -0.0}, "label": "Th", "xyz": [3.0979751275, 2.29965024375, -0.6258854975000003]}, {"species": [{"element": "Th", "occu": 1}], "abc": [0.75, 0.875, 0.125], "properties": {"magmom": -0.0}, "label": "Th", "xyz": [2.21283937375, 5.36585056875, -3.1294274875]}, {"species": [{"element": "P", "occu": 1}], "abc": [0.15633559, 0.15633559, 0.15633559], "properties": {"magmom": 0.0}, "label": "P", "xyz": [0.55351287882537, 0.9587124737341335, 0.39139271409642395]}, {"species": [{"element": "P", "occu": 1}], "abc": [0.84366441, 0.5, -0.0], "properties": {"magmom": 0.0}, "label": "P", "xyz": [4.2037887457859044, 3.066200325, -3.3639202709035763]}, {"species": [{"element": "P", "occu": 1}], "abc": [0.0, 0.84366441, 0.5], "properties": {"magmom": 0.0}, "label": "P", "xyz": [-2.987030129611274, 5.173688176265867, 1.6431637090964233]}, {"species": [{"element": "P", "occu": 1}], "abc": [0.5, -0.0, 0.84366441], "properties": {"magmom": 0.0}, "label": "P", "xyz": [3.540543005, 0.0, 5.084676832710727]}, {"species": [{"element": "P", "occu": 1}], "abc": [0.0, 0.34366441000000003, 0.5], "properties": {"magmom": 0.0}, "label": "P", "xyz": [-1.2167586246112743, 2.1074878512658666, 2.8949347040964235]}, {"species": [{"element": "P", "occu": 1}], "abc": [0.5, -0.0, 0.34366441000000003], "properties": {"magmom": 0.0}, "label": "P", "xyz": [3.540543005, 0.0, 1.3293638477107275]}, {"species": [{"element": "P", "occu": 1}], "abc": [0.34366441000000003, 0.5, -0.0], "properties": {"magmom": 0.0}, "label": "P", "xyz": [0.6632457407859043, 3.066200325, -2.112149275903576]}, {"species": [{"element": "P", "occu": 1}], "abc": [0.65633559, 0.65633559, 0.65633559], "properties": {"magmom": 0.0}, "label": "P", "xyz": [2.3237843788253696, 4.0249127987341335, 1.6431637090964233]}]}, "task_ids": null, "uncorrected_energy_per_atom": null, "energy_per_atom": -38.246929394285715, "formation_energy_per_atom": -1.613487723129253, "energy_above_hull": 0.0, "is_stable": true, "equilibrium_reaction_energy_per_atom": null, "decomposes_to": null, "xas": null, "grain_boundaries": null, "band_gap": 0.26169999999999904, "cbm": null, "vbm": null, "efermi": 7.26887033, "is_gap_direct": null, "is_metal": null, "es_source_calc_id": null, "bandstructure": null, "dos": null, "dos_energy_up": null, "dos_energy_down": null, "is_magnetic": null, "ordering": null, "total_magnetization": 0.0, "total_magnetization_normalized_vol": null, "total_magnetization_normalized_formula_units": null, "num_magnetic_sites": null, "num_unique_magnetic_sites": null, "types_of_magnetic_species": null, "bulk_modulus": null, "shear_modulus": null, "universal_anisotropy": null, "homogeneous_poisson": null, "e_total": null, "e_ionic": null, "e_electronic": null, "n": null, "e_ij_max": null, "weighted_surface_energy_EV_PER_ANG2": null, "weighted_surface_energy": null, "weighted_work_function": null, "surface_anisotropy": null, "shape_factor": null, "has_reconstructed": null, "possible_species": null, "has_props": null, "theoretical": null, "database_IDs": null, "fields_not_requested": ["builder_meta", "nsites", "elements", "nelements", "composition", "composition_reduced", "chemsys", "symmetry", "property_name", "deprecated", "deprecation_reasons", "last_updated", "origins", "warnings", "task_ids", "uncorrected_energy_per_atom", "equilibrium_reaction_energy_per_atom", "decomposes_to", "xas", "grain_boundaries", "cbm", "vbm", "is_gap_direct", "is_metal", "es_source_calc_id", "bandstructure", "dos", "dos_energy_up", "dos_energy_down", "is_magnetic", "ordering", "total_magnetization_normalized_vol", "total_magnetization_normalized_formula_units", "num_magnetic_sites", "num_unique_magnetic_sites", "types_of_magnetic_species", "bulk_modulus", "shear_modulus", "universal_anisotropy", "homogeneous_poisson", "e_total", "e_ionic", "e_electronic", "n", "e_ij_max", "weighted_surface_energy_EV_PER_ANG2", "weighted_surface_energy", "weighted_work_function", "surface_anisotropy", "shape_factor", "has_reconstructed", "possible_species", "has_props", "theoretical", "database_IDs"]}