{"builder_meta": null, "nsites": null, "elements": null, "nelements": null, "composition": null, "composition_reduced": null, "formula_pretty": "Th3Re", "formula_anonymous": "AB3", "chemsys": null, "volume": 215.04713611631914, "density": 13.626117651584268, "density_atomic": 26.880892014539892, "symmetry": null, "property_name": null, "material_id": "mp-1187083", "deprecated": null, "deprecation_reasons": null, "last_updated": null, "origins": null, "warnings": null, "structure": {"@module": "pymatgen.core.structure", "@class": "Structure", "charge": 0, "lattice": {"matrix": [[3.344961, -5.793642, 0.0], [3.344961, 5.793642, 0.0], [0.0, 0.0, 5.548313]], "pbc": [true, true, true], "a": 6.689921652432486, "b": 6.689921652432486, "c": 5.548313, "alpha": 90.0, "beta": 90.0, "gamma": 119.99999656275769, "volume": 215.04713611631914}, "properties": {}, "sites": [{"species": [{"element": "Th", "occu": 1}], "abc": [0.178624, 0.357248, 0.25], "properties": {"magmom": 0.0}, "label": "Th", "xyz": [1.792470940992, 1.0348835086080002, 1.38707825]}, {"species": [{"element": "Th", "occu": 1}], "abc": [0.642752, 0.821376, 0.25], "properties": {"magmom": 0.0}, "label": "Th", "xyz": [4.8974510590080005, 1.0348835086080004, 1.38707825]}, {"species": [{"element": "Th", "occu": 1}], "abc": [0.178624, 0.821376, 0.25], "properties": {"magmom": -0.0}, "label": "Th", "xyz": [3.344961, 3.7238749827840003, 1.38707825]}, {"species": [{"element": "Th", "occu": 1}], "abc": [0.821376, 0.642752, 0.75], "properties": {"magmom": 0.0}, "label": "Th", "xyz": [4.8974510590080005, -1.0348835086080004, 4.16123475]}, {"species": [{"element": "Th", "occu": 1}], "abc": [0.357248, 0.178624, 0.75], "properties": {"magmom": 0.0}, "label": "Th", "xyz": [1.792470940992, -1.0348835086080002, 4.16123475]}, {"species": [{"element": "Th", "occu": 1}], "abc": [0.821376, 0.178624, 0.75], "properties": {"magmom": -0.0}, "label": "Th", "xyz": [3.344961, -3.7238749827840003, 4.16123475]}, {"species": [{"element": "Re", "occu": 1}], "abc": [0.333333, 0.666667, 0.75], "properties": {"magmom": 0.0}, "label": "Re", "xyz": [3.3449609999999996, 1.9312178624280003, 4.16123475]}, {"species": [{"element": "Re", "occu": 1}], "abc": [0.666667, 0.333333, 0.25], "properties": {"magmom": 0.0}, "label": "Re", "xyz": [3.3449609999999996, -1.9312178624280003, 1.38707825]}]}, "task_ids": null, "uncorrected_energy_per_atom": null, "energy_per_atom": -67.88635406374999, "formation_energy_per_atom": 0.32274622562502403, "energy_above_hull": 0.362391295312505, "is_stable": false, "equilibrium_reaction_energy_per_atom": null, "decomposes_to": null, "xas": null, "grain_boundaries": null, "band_gap": 0.0, "cbm": null, "vbm": null, "efermi": 7.96097977, "is_gap_direct": null, "is_metal": null, "es_source_calc_id": null, "bandstructure": null, "dos": null, "dos_energy_up": null, "dos_energy_down": null, "is_magnetic": null, "ordering": null, "total_magnetization": 0.0004539, "total_magnetization_normalized_vol": null, "total_magnetization_normalized_formula_units": null, "num_magnetic_sites": null, "num_unique_magnetic_sites": null, "types_of_magnetic_species": null, "bulk_modulus": null, "shear_modulus": null, "universal_anisotropy": null, "homogeneous_poisson": null, "e_total": null, "e_ionic": null, "e_electronic": null, "n": null, "e_ij_max": null, "weighted_surface_energy_EV_PER_ANG2": null, "weighted_surface_energy": null, "weighted_work_function": null, "surface_anisotropy": null, "shape_factor": null, "has_reconstructed": null, "possible_species": null, "has_props": null, "theoretical": null, "database_IDs": null, "fields_not_requested": ["builder_meta", "nsites", "elements", "nelements", "composition", "composition_reduced", "chemsys", "symmetry", "property_name", "deprecated", "deprecation_reasons", "last_updated", "origins", "warnings", "task_ids", "uncorrected_energy_per_atom", "equilibrium_reaction_energy_per_atom", "decomposes_to", "xas", "grain_boundaries", "cbm", "vbm", "is_gap_direct", "is_metal", "es_source_calc_id", "bandstructure", "dos", "dos_energy_up", "dos_energy_down", "is_magnetic", "ordering", "total_magnetization_normalized_vol", "total_magnetization_normalized_formula_units", "num_magnetic_sites", "num_unique_magnetic_sites", "types_of_magnetic_species", "bulk_modulus", "shear_modulus", "universal_anisotropy", "homogeneous_poisson", "e_total", "e_ionic", "e_electronic", "n", "e_ij_max", "weighted_surface_energy_EV_PER_ANG2", "weighted_surface_energy", "weighted_work_function", "surface_anisotropy", "shape_factor", "has_reconstructed", "possible_species", "has_props", "theoretical", "database_IDs"]}