{
  "builder_meta": null,
  "nsites": null,
  "elements": null,
  "nelements": null,
  "composition": null,
  "composition_reduced": null,
  "formula_pretty": "Th3Si2",
  "formula_anonymous": "A2B3",
  "chemsys": null,
  "volume": 257.2191584619554,
  "density": 9.713109537281833,
  "density_atomic": 25.721915846195536,
  "symmetry": null,
  "property_name": null,
  "material_id": "mp-1079146",
  "deprecated": null,
  "deprecation_reasons": null,
  "last_updated": null,
  "origins": null,
  "warnings": null,
  "structure": {
    "@module": "pymatgen.core.structure",
    "@class": "Structure",
    "charge": 0,
    "lattice": {
      "matrix": [
        [-0.0, -0.0, 4.1564137],
        [7.86669428, 0.0, -0.0],
        [0.0, 7.86669428, -0.0]
      ],
      "pbc": [true, true, true],
      "a": 4.1564137,
      "b": 7.86669428,
      "c": 7.86669428,
      "alpha": 90.0,
      "beta": 90.0,
      "gamma": 90.0,
      "volume": 257.2191584619554
    },
    "properties": {},
    "sites": [
      {
        "species": [{ "element": "Th", "occu": 1 }],
        "abc": [0.0, 0.5, 0.5],
        "properties": { "magmom": -0.0 },
        "label": "Th",
        "xyz": [3.93334714, 3.93334714, 0.0]
      },
      {
        "species": [{ "element": "Th", "occu": 1 }],
        "abc": [-0.0, -0.0, -0.0],
        "properties": { "magmom": -0.0 },
        "label": "Th",
        "xyz": [0.0, 0.0, 0.0]
      },
      {
        "species": [{ "element": "Th", "occu": 1 }],
        "abc": [0.5, 0.18107323, 0.68107323],
        "properties": { "magmom": -0.0 },
        "label": "Th",
        "xyz": [1.4244477427021245, 5.357794882702124, 2.07820685]
      },
      {
        "species": [{ "element": "Th", "occu": 1 }],
        "abc": [0.5, 0.81892677, 0.31892677],
        "properties": { "magmom": -0.0 },
        "label": "Th",
        "xyz": [6.442246537297875, 2.508899397297876, 2.07820685]
      },
      {
        "species": [{ "element": "Th", "occu": 1 }],
        "abc": [0.5, 0.31892677, 0.18107323],
        "properties": { "magmom": -0.0 },
        "label": "Th",
        "xyz": [2.508899397297876, 1.4244477427021245, 2.07820685]
      },
      {
        "species": [{ "element": "Th", "occu": 1 }],
        "abc": [0.5, 0.68107323, 0.81892677],
        "properties": { "magmom": -0.0 },
        "label": "Th",
        "xyz": [5.357794882702124, 6.442246537297875, 2.07820685]
      },
      {
        "species": [{ "element": "Si", "occu": 1 }],
        "abc": [0.0, 0.6124808900000001, 0.11248089],
        "properties": { "magmom": 0.0 },
        "label": "Si",
        "xyz": [4.818199913972309, 0.8848527739723092, 0.0]
      },
      {
        "species": [{ "element": "Si", "occu": 1 }],
        "abc": [-0.0, 0.38751911, 0.88751911],
        "properties": { "magmom": 0.0 },
        "label": "Si",
        "xyz": [3.0484943660276906, 6.981841506027691, 0.0]
      },
      {
        "species": [{ "element": "Si", "occu": 1 }],
        "abc": [-0.0, 0.88751911, 0.6124808900000001],
        "properties": { "magmom": 0.0 },
        "label": "Si",
        "xyz": [6.981841506027691, 4.818199913972309, 0.0]
      },
      {
        "species": [{ "element": "Si", "occu": 1 }],
        "abc": [0.0, 0.11248089, 0.38751911],
        "properties": { "magmom": 0.0 },
        "label": "Si",
        "xyz": [0.8848527739723092, 3.0484943660276906, 0.0]
      }
    ]
  },
  "task_ids": null,
  "uncorrected_energy_per_atom": null,
  "energy_per_atom": -48.282144003,
  "formation_energy_per_atom": -0.6874808749999941,
  "energy_above_hull": 0.0,
  "is_stable": true,
  "equilibrium_reaction_energy_per_atom": null,
  "decomposes_to": null,
  "xas": null,
  "grain_boundaries": null,
  "band_gap": 0.0,
  "cbm": null,
  "vbm": null,
  "efermi": 7.75968177,
  "is_gap_direct": null,
  "is_metal": null,
  "es_source_calc_id": null,
  "bandstructure": null,
  "dos": null,
  "dos_energy_up": null,
  "dos_energy_down": null,
  "is_magnetic": null,
  "ordering": null,
  "total_magnetization": 5.299999999999997e-6,
  "total_magnetization_normalized_vol": null,
  "total_magnetization_normalized_formula_units": null,
  "num_magnetic_sites": null,
  "num_unique_magnetic_sites": null,
  "types_of_magnetic_species": null,
  "bulk_modulus": null,
  "shear_modulus": null,
  "universal_anisotropy": null,
  "homogeneous_poisson": null,
  "e_total": null,
  "e_ionic": null,
  "e_electronic": null,
  "n": null,
  "e_ij_max": null,
  "weighted_surface_energy_EV_PER_ANG2": null,
  "weighted_surface_energy": null,
  "weighted_work_function": null,
  "surface_anisotropy": null,
  "shape_factor": null,
  "has_reconstructed": null,
  "possible_species": null,
  "has_props": null,
  "theoretical": null,
  "database_IDs": null,
  "fields_not_requested": [
    "builder_meta",
    "nsites",
    "elements",
    "nelements",
    "composition",
    "composition_reduced",
    "chemsys",
    "symmetry",
    "property_name",
    "deprecated",
    "deprecation_reasons",
    "last_updated",
    "origins",
    "warnings",
    "task_ids",
    "uncorrected_energy_per_atom",
    "equilibrium_reaction_energy_per_atom",
    "decomposes_to",
    "xas",
    "grain_boundaries",
    "cbm",
    "vbm",
    "is_gap_direct",
    "is_metal",
    "es_source_calc_id",
    "bandstructure",
    "dos",
    "dos_energy_up",
    "dos_energy_down",
    "is_magnetic",
    "ordering",
    "total_magnetization_normalized_vol",
    "total_magnetization_normalized_formula_units",
    "num_magnetic_sites",
    "num_unique_magnetic_sites",
    "types_of_magnetic_species",
    "bulk_modulus",
    "shear_modulus",
    "universal_anisotropy",
    "homogeneous_poisson",
    "e_total",
    "e_ionic",
    "e_electronic",
    "n",
    "e_ij_max",
    "weighted_surface_energy_EV_PER_ANG2",
    "weighted_surface_energy",
    "weighted_work_function",
    "surface_anisotropy",
    "shape_factor",
    "has_reconstructed",
    "possible_species",
    "has_props",
    "theoretical",
    "database_IDs"
  ]
}
