{
  "builder_meta": null,
  "nsites": null,
  "elements": null,
  "nelements": null,
  "composition": null,
  "composition_reduced": null,
  "formula_pretty": "Th3Sb4",
  "formula_anonymous": "A3B4",
  "chemsys": null,
  "volume": 423.7364204982512,
  "density": 9.2730935678879,
  "density_atomic": 30.266887178446517,
  "symmetry": null,
  "property_name": null,
  "material_id": "mp-552",
  "deprecated": null,
  "deprecation_reasons": null,
  "last_updated": null,
  "origins": null,
  "warnings": null,
  "structure": {
    "@module": "pymatgen.core.structure",
    "@class": "Structure",
    "charge": 0,
    "lattice": {
      "matrix": [
        [7.72674037, -0.0, -2.73181568],
        [-3.8633707, 6.69155322, -2.73181568],
        [-1e-8, -2e-8, 8.19544497]
      ],
      "pbc": [true, true, true],
      "a": 8.195445909459814,
      "b": 8.195445965364224,
      "c": 8.19544497,
      "alpha": 109.47122337685958,
      "beta": 109.47122349881843,
      "gamma": 109.47122130234663,
      "volume": 423.7364204982512
    },
    "properties": {},
    "sites": [
      {
        "species": [{ "element": "Th", "occu": 1 }],
        "abc": [0.75, 0.875, 0.125],
        "properties": { "magmom": -0.0 },
        "label": "Th",
        "xyz": [2.4146059137499996, 5.855109065, -3.41476985875]
      },
      {
        "species": [{ "element": "Th", "occu": 1 }],
        "abc": [0.625, 0.375, 0.25],
        "properties": { "magmom": -0.0 },
        "label": "Th",
        "xyz": [3.38044871625, 2.5093324525000003, -0.6829544374999998]
      },
      {
        "species": [{ "element": "Th", "occu": 1 }],
        "abc": [0.875, 0.125, 0.75],
        "properties": { "magmom": -0.0 },
        "label": "Th",
        "xyz": [6.27797647875, 0.8364441375, 3.4147680475000004]
      },
      {
        "species": [{ "element": "Th", "occu": 1 }],
        "abc": [0.125, 0.75, 0.875],
        "properties": { "magmom": -0.0 },
        "label": "Th",
        "xyz": [-1.9316854874999998, 5.018664897500001, 4.780675628750001]
      },
      {
        "species": [{ "element": "Th", "occu": 1 }],
        "abc": [0.375, 0.25, 0.625],
        "properties": { "magmom": -0.0 },
        "label": "Th",
        "xyz": [1.9316849574999997, 1.6728882925000002, 3.41476830625]
      },
      {
        "species": [{ "element": "Th", "occu": 1 }],
        "abc": [0.25, 0.625, 0.375],
        "properties": { "magmom": -0.0 },
        "label": "Th",
        "xyz": [-0.48292159875000007, 4.182220755, 0.6829531437500003]
      },
      {
        "species": [{ "element": "Sb", "occu": 1 }],
        "abc": [0.65819432, 0.65819432, 0.65819432],
        "properties": { "magmom": 0.0 },
        "label": "Sb",
        "xyz": [2.5428479662723316, 4.404342308217824, 1.7980642014006953]
      },
      {
        "species": [{ "element": "Sb", "occu": 1 }],
        "abc": [0.34180568, 0.5, -0.0],
        "properties": { "magmom": 0.0 },
        "label": "Sb",
        "xyz": [0.7093583963513015, 3.34577661, -2.2996579561370623]
      },
      {
        "species": [{ "element": "Sb", "occu": 1 }],
        "abc": [0.5, -0.0, 0.34180568],
        "properties": { "magmom": 0.0 },
        "label": "Sb",
        "xyz": [3.863370181581943, -6.8361136e-9, 1.4353418008734298]
      },
      {
        "species": [{ "element": "Sb", "occu": 1 }],
        "abc": [-0.0, 0.34180568, 0.5],
        "properties": { "magmom": 0.0 },
        "label": "Sb",
        "xyz": [-1.320522054205576, 2.2872108886182896, 3.1639723688629378]
      },
      {
        "species": [{ "element": "Sb", "occu": 1 }],
        "abc": [0.5, -0.0, 0.84180568],
        "properties": { "magmom": 0.0 },
        "label": "Sb",
        "xyz": [3.863370176581943, -1.68361136e-8, 5.53306428587343]
      },
      {
        "species": [{ "element": "Sb", "occu": 1 }],
        "abc": [-0.0, 0.84180568, 0.5],
        "properties": { "magmom": 0.0 },
        "label": "Sb",
        "xyz": [-3.252207404205576, 5.63298749861829, 1.798064528862938]
      },
      {
        "species": [{ "element": "Sb", "occu": 1 }],
        "abc": [0.15819432, 0.15819432, 0.15819432],
        "properties": { "magmom": 0.0 },
        "label": "Sb",
        "xyz": [0.6111631362723311, 1.058565708217824, 0.4321573964006953]
      },
      {
        "species": [{ "element": "Sb", "occu": 1 }],
        "abc": [0.84180568, 0.5, -0.0],
        "properties": { "magmom": 0.0 },
        "label": "Sb",
        "xyz": [4.572728581351301, 3.34577661, -3.665565796137062]
      }
    ]
  },
  "task_ids": null,
  "uncorrected_energy_per_atom": null,
  "energy_per_atom": -47.282154392857144,
  "formation_energy_per_atom": -1.103433054285712,
  "energy_above_hull": 0.0,
  "is_stable": true,
  "equilibrium_reaction_energy_per_atom": null,
  "decomposes_to": null,
  "xas": null,
  "grain_boundaries": null,
  "band_gap": 0.038199999999999006,
  "cbm": null,
  "vbm": null,
  "efermi": 7.57401379,
  "is_gap_direct": null,
  "is_metal": null,
  "es_source_calc_id": null,
  "bandstructure": null,
  "dos": null,
  "dos_energy_up": null,
  "dos_energy_down": null,
  "is_magnetic": null,
  "ordering": null,
  "total_magnetization": 0.0,
  "total_magnetization_normalized_vol": null,
  "total_magnetization_normalized_formula_units": null,
  "num_magnetic_sites": null,
  "num_unique_magnetic_sites": null,
  "types_of_magnetic_species": null,
  "bulk_modulus": null,
  "shear_modulus": null,
  "universal_anisotropy": null,
  "homogeneous_poisson": null,
  "e_total": null,
  "e_ionic": null,
  "e_electronic": null,
  "n": null,
  "e_ij_max": null,
  "weighted_surface_energy_EV_PER_ANG2": null,
  "weighted_surface_energy": null,
  "weighted_work_function": null,
  "surface_anisotropy": null,
  "shape_factor": null,
  "has_reconstructed": null,
  "possible_species": null,
  "has_props": null,
  "theoretical": null,
  "database_IDs": null,
  "fields_not_requested": [
    "builder_meta",
    "nsites",
    "elements",
    "nelements",
    "composition",
    "composition_reduced",
    "chemsys",
    "symmetry",
    "property_name",
    "deprecated",
    "deprecation_reasons",
    "last_updated",
    "origins",
    "warnings",
    "task_ids",
    "uncorrected_energy_per_atom",
    "equilibrium_reaction_energy_per_atom",
    "decomposes_to",
    "xas",
    "grain_boundaries",
    "cbm",
    "vbm",
    "is_gap_direct",
    "is_metal",
    "es_source_calc_id",
    "bandstructure",
    "dos",
    "dos_energy_up",
    "dos_energy_down",
    "is_magnetic",
    "ordering",
    "total_magnetization_normalized_vol",
    "total_magnetization_normalized_formula_units",
    "num_magnetic_sites",
    "num_unique_magnetic_sites",
    "types_of_magnetic_species",
    "bulk_modulus",
    "shear_modulus",
    "universal_anisotropy",
    "homogeneous_poisson",
    "e_total",
    "e_ionic",
    "e_electronic",
    "n",
    "e_ij_max",
    "weighted_surface_energy_EV_PER_ANG2",
    "weighted_surface_energy",
    "weighted_work_function",
    "surface_anisotropy",
    "shape_factor",
    "has_reconstructed",
    "possible_species",
    "has_props",
    "theoretical",
    "database_IDs"
  ]
}
