{
  "builder_meta": null,
  "nsites": null,
  "elements": null,
  "nelements": null,
  "composition": null,
  "composition_reduced": null,
  "formula_pretty": "Th3Tl5",
  "formula_anonymous": "A3B5",
  "chemsys": null,
  "volume": 464.0562314036229,
  "density": 12.295307631699611,
  "density_atomic": 29.003514462726432,
  "symmetry": null,
  "property_name": null,
  "material_id": "mp-1106034",
  "deprecated": null,
  "deprecation_reasons": null,
  "last_updated": null,
  "origins": null,
  "warnings": null,
  "structure": {
    "@module": "pymatgen.core.structure",
    "@class": "Structure",
    "charge": 0,
    "lattice": {
      "matrix": [
        [5.245949, 4.226236, 0.0],
        [-5.245949, 4.226236, 0.0],
        [0.0, 0.0, 10.465568]
      ],
      "pbc": [true, true, true],
      "a": 6.736545972402846,
      "b": 6.736545972402846,
      "c": 10.465568,
      "alpha": 90.0,
      "beta": 90.0,
      "gamma": 102.28884487168031,
      "volume": 464.0562314036229
    },
    "properties": {},
    "sites": [
      {
        "species": [{ "element": "Th", "occu": 1 }],
        "abc": [0.614413, 0.614413, 0.25],
        "properties": { "magmom": 0.001 },
        "label": "Th",
        "xyz": [0.0, 5.193308678936, 2.616392]
      },
      {
        "species": [{ "element": "Th", "occu": 1 }],
        "abc": [0.385586999999999, 0.385586999999999, 0.75],
        "properties": { "magmom": 0.001 },
        "label": "Th",
        "xyz": [0.0, 3.259163321063992, 7.849176]
      },
      {
        "species": [{ "element": "Th", "occu": 1 }],
        "abc": [0.793539, 0.206460999999999, 0.5],
        "properties": { "magmom": 0.0 },
        "label": "Th",
        "xyz": [3.0797812470220056, 4.226235999999996, 5.232784]
      },
      {
        "species": [{ "element": "Th", "occu": 1 }],
        "abc": [0.793539, 0.206460999999999, 0.0],
        "properties": { "magmom": 0.0 },
        "label": "Th",
        "xyz": [3.0797812470220056, 4.226235999999996, 0.0]
      },
      {
        "species": [{ "element": "Th", "occu": 1 }],
        "abc": [0.206460999999999, 0.793539, 0.5],
        "properties": { "magmom": 0.0 },
        "label": "Th",
        "xyz": [-3.0797812470220056, 4.226235999999996, 5.232784]
      },
      {
        "species": [{ "element": "Th", "occu": 1 }],
        "abc": [0.206460999999999, 0.793539, 0.0],
        "properties": { "magmom": 0.0 },
        "label": "Th",
        "xyz": [-3.0797812470220056, 4.226235999999996, 0.0]
      },
      {
        "species": [{ "element": "Tl", "occu": 1 }],
        "abc": [0.005202, 0.005202, 0.25],
        "properties": { "magmom": 0.0 },
        "label": "Tl",
        "xyz": [0.0, 0.043969759344, 2.616392]
      },
      {
        "species": [{ "element": "Tl", "occu": 1 }],
        "abc": [0.994798, 0.994798, 0.75],
        "properties": { "magmom": 0.0 },
        "label": "Tl",
        "xyz": [0.0, 8.408502240656, 7.849176]
      },
      {
        "species": [{ "element": "Tl", "occu": 1 }],
        "abc": [0.299427, 0.299427, 0.045341],
        "properties": { "magmom": 0.0 },
        "label": "Tl",
        "xyz": [0.0, 2.530898333544, 0.47451931868799996]
      },
      {
        "species": [{ "element": "Tl", "occu": 1 }],
        "abc": [0.700573, 0.700573, 0.954658999999999],
        "properties": { "magmom": 0.0 },
        "label": "Tl",
        "xyz": [0.0, 5.921573666456, 9.99104868131199]
      },
      {
        "species": [{ "element": "Tl", "occu": 1 }],
        "abc": [0.299427, 0.299427, 0.454659],
        "properties": { "magmom": 0.0 },
        "label": "Tl",
        "xyz": [0.0, 2.530898333544, 4.758264681311999]
      },
      {
        "species": [{ "element": "Tl", "occu": 1 }],
        "abc": [0.700573, 0.700573, 0.545341],
        "properties": { "magmom": 0.0 },
        "label": "Tl",
        "xyz": [0.0, 5.921573666456, 5.707303318687999]
      },
      {
        "species": [{ "element": "Tl", "occu": 1 }],
        "abc": [0.056235, 0.500858, 0.25],
        "properties": { "magmom": 0.0 },
        "label": "Tl",
        "xyz": [-2.3324695822270005, 2.354406491948, 2.616392]
      },
      {
        "species": [{ "element": "Tl", "occu": 1 }],
        "abc": [0.499142, 0.943765, 0.75],
        "properties": { "magmom": 0.0 },
        "label": "Tl",
        "xyz": [-2.3324695822270005, 6.098065508052, 7.849176]
      },
      {
        "species": [{ "element": "Tl", "occu": 1 }],
        "abc": [0.943765, 0.499142, 0.75],
        "properties": { "magmom": 0.0 },
        "label": "Tl",
        "xyz": [2.3324695822270005, 6.098065508052, 7.849176]
      },
      {
        "species": [{ "element": "Tl", "occu": 1 }],
        "abc": [0.500858, 0.056235, 0.25],
        "properties": { "magmom": 0.0 },
        "label": "Tl",
        "xyz": [2.3324695822270005, 2.354406491948, 2.616392]
      }
    ]
  },
  "task_ids": null,
  "uncorrected_energy_per_atom": null,
  "energy_per_atom": -61.025381123125,
  "formation_energy_per_atom": -0.235092454374999,
  "energy_above_hull": 0.011813892708332,
  "is_stable": false,
  "equilibrium_reaction_energy_per_atom": null,
  "decomposes_to": null,
  "xas": null,
  "grain_boundaries": null,
  "band_gap": 0.0,
  "cbm": null,
  "vbm": null,
  "efermi": 7.57292913,
  "is_gap_direct": null,
  "is_metal": null,
  "es_source_calc_id": null,
  "bandstructure": null,
  "dos": null,
  "dos_energy_up": null,
  "dos_energy_down": null,
  "is_magnetic": null,
  "ordering": null,
  "total_magnetization": 0.013117799999999001,
  "total_magnetization_normalized_vol": null,
  "total_magnetization_normalized_formula_units": null,
  "num_magnetic_sites": null,
  "num_unique_magnetic_sites": null,
  "types_of_magnetic_species": null,
  "bulk_modulus": null,
  "shear_modulus": null,
  "universal_anisotropy": null,
  "homogeneous_poisson": null,
  "e_total": null,
  "e_ionic": null,
  "e_electronic": null,
  "n": null,
  "e_ij_max": null,
  "weighted_surface_energy_EV_PER_ANG2": null,
  "weighted_surface_energy": null,
  "weighted_work_function": null,
  "surface_anisotropy": null,
  "shape_factor": null,
  "has_reconstructed": null,
  "possible_species": null,
  "has_props": null,
  "theoretical": null,
  "database_IDs": null,
  "fields_not_requested": [
    "builder_meta",
    "nsites",
    "elements",
    "nelements",
    "composition",
    "composition_reduced",
    "chemsys",
    "symmetry",
    "property_name",
    "deprecated",
    "deprecation_reasons",
    "last_updated",
    "origins",
    "warnings",
    "task_ids",
    "uncorrected_energy_per_atom",
    "equilibrium_reaction_energy_per_atom",
    "decomposes_to",
    "xas",
    "grain_boundaries",
    "cbm",
    "vbm",
    "is_gap_direct",
    "is_metal",
    "es_source_calc_id",
    "bandstructure",
    "dos",
    "dos_energy_up",
    "dos_energy_down",
    "is_magnetic",
    "ordering",
    "total_magnetization_normalized_vol",
    "total_magnetization_normalized_formula_units",
    "num_magnetic_sites",
    "num_unique_magnetic_sites",
    "types_of_magnetic_species",
    "bulk_modulus",
    "shear_modulus",
    "universal_anisotropy",
    "homogeneous_poisson",
    "e_total",
    "e_ionic",
    "e_electronic",
    "n",
    "e_ij_max",
    "weighted_surface_energy_EV_PER_ANG2",
    "weighted_surface_energy",
    "weighted_work_function",
    "surface_anisotropy",
    "shape_factor",
    "has_reconstructed",
    "possible_species",
    "has_props",
    "theoretical",
    "database_IDs"
  ]
}
