{
  "builder_meta": null,
  "nsites": null,
  "elements": null,
  "nelements": null,
  "composition": null,
  "composition_reduced": null,
  "formula_pretty": "Th3V",
  "formula_anonymous": "AB3",
  "chemsys": null,
  "volume": 225.26306030286466,
  "density": 11.013924252805268,
  "density_atomic": 28.157882537858082,
  "symmetry": null,
  "property_name": null,
  "material_id": "mp-1187060",
  "deprecated": null,
  "deprecation_reasons": null,
  "last_updated": null,
  "origins": null,
  "warnings": null,
  "structure": {
    "@module": "pymatgen.core.structure",
    "@class": "Structure",
    "charge": 0,
    "lattice": {
      "matrix": [
        [3.44238, -5.962376, 0.0],
        [3.44238, 5.962376, 0.0],
        [0.0, 0.0, 5.487592]
      ],
      "pbc": [true, true, true],
      "a": 6.884759082914667,
      "b": 6.884759082914667,
      "c": 5.487592,
      "alpha": 90.0,
      "beta": 90.0,
      "gamma": 119.99999118721834,
      "volume": 225.26306030286466
    },
    "properties": {},
    "sites": [
      {
        "species": [{ "element": "Th", "occu": 1 }],
        "abc": [0.177123, 0.354247, 0.25],
        "properties": { "magmom": -0.096 },
        "label": "Th",
        "xyz": [1.8291774606, 1.056079886624, 1.371898]
      },
      {
        "species": [{ "element": "Th", "occu": 1 }],
        "abc": [0.645753, 0.822877, 0.25],
        "properties": { "magmom": -0.096 },
        "label": "Th",
        "xyz": [5.0555825394, 1.0560798866239995, 1.371898]
      },
      {
        "species": [{ "element": "Th", "occu": 1 }],
        "abc": [0.177123, 0.822877, 0.25],
        "properties": { "magmom": -0.096 },
        "label": "Th",
        "xyz": [3.44238, 3.8502281515039996, 1.371898]
      },
      {
        "species": [{ "element": "Th", "occu": 1 }],
        "abc": [0.822877, 0.645753, 0.75],
        "properties": { "magmom": -0.096 },
        "label": "Th",
        "xyz": [5.0555825394, -1.0560798866239995, 4.115694]
      },
      {
        "species": [{ "element": "Th", "occu": 1 }],
        "abc": [0.354247, 0.177123, 0.75],
        "properties": { "magmom": -0.096 },
        "label": "Th",
        "xyz": [1.8291774606, -1.056079886624, 4.115694]
      },
      {
        "species": [{ "element": "Th", "occu": 1 }],
        "abc": [0.822877, 0.177123, 0.75],
        "properties": { "magmom": -0.096 },
        "label": "Th",
        "xyz": [3.44238, -3.8502281515039996, 4.115694]
      },
      {
        "species": [{ "element": "V", "occu": 1 }],
        "abc": [0.333333, 0.666667, 0.75],
        "properties": { "magmom": 2.055 },
        "label": "V",
        "xyz": [3.44238, 1.987462641584, 4.115694]
      },
      {
        "species": [{ "element": "V", "occu": 1 }],
        "abc": [0.666667, 0.333333, 0.25],
        "properties": { "magmom": 2.054 },
        "label": "V",
        "xyz": [3.44238, -1.987462641584, 1.371898]
      }
    ]
  },
  "task_ids": null,
  "uncorrected_energy_per_atom": null,
  "energy_per_atom": -58.27222595500001,
  "formation_energy_per_atom": 0.356614589999999,
  "energy_above_hull": 0.356614589999999,
  "is_stable": false,
  "equilibrium_reaction_energy_per_atom": null,
  "decomposes_to": null,
  "xas": null,
  "grain_boundaries": null,
  "band_gap": 0.0,
  "cbm": null,
  "vbm": null,
  "efermi": 7.2981747,
  "is_gap_direct": null,
  "is_metal": null,
  "es_source_calc_id": null,
  "bandstructure": null,
  "dos": null,
  "dos_energy_up": null,
  "dos_energy_down": null,
  "is_magnetic": null,
  "ordering": null,
  "total_magnetization": 4.090898,
  "total_magnetization_normalized_vol": null,
  "total_magnetization_normalized_formula_units": null,
  "num_magnetic_sites": null,
  "num_unique_magnetic_sites": null,
  "types_of_magnetic_species": null,
  "bulk_modulus": null,
  "shear_modulus": null,
  "universal_anisotropy": null,
  "homogeneous_poisson": null,
  "e_total": null,
  "e_ionic": null,
  "e_electronic": null,
  "n": null,
  "e_ij_max": null,
  "weighted_surface_energy_EV_PER_ANG2": null,
  "weighted_surface_energy": null,
  "weighted_work_function": null,
  "surface_anisotropy": null,
  "shape_factor": null,
  "has_reconstructed": null,
  "possible_species": null,
  "has_props": null,
  "theoretical": null,
  "database_IDs": null,
  "fields_not_requested": [
    "builder_meta",
    "nsites",
    "elements",
    "nelements",
    "composition",
    "composition_reduced",
    "chemsys",
    "symmetry",
    "property_name",
    "deprecated",
    "deprecation_reasons",
    "last_updated",
    "origins",
    "warnings",
    "task_ids",
    "uncorrected_energy_per_atom",
    "equilibrium_reaction_energy_per_atom",
    "decomposes_to",
    "xas",
    "grain_boundaries",
    "cbm",
    "vbm",
    "is_gap_direct",
    "is_metal",
    "es_source_calc_id",
    "bandstructure",
    "dos",
    "dos_energy_up",
    "dos_energy_down",
    "is_magnetic",
    "ordering",
    "total_magnetization_normalized_vol",
    "total_magnetization_normalized_formula_units",
    "num_magnetic_sites",
    "num_unique_magnetic_sites",
    "types_of_magnetic_species",
    "bulk_modulus",
    "shear_modulus",
    "universal_anisotropy",
    "homogeneous_poisson",
    "e_total",
    "e_ionic",
    "e_electronic",
    "n",
    "e_ij_max",
    "weighted_surface_energy_EV_PER_ANG2",
    "weighted_surface_energy",
    "weighted_work_function",
    "surface_anisotropy",
    "shape_factor",
    "has_reconstructed",
    "possible_species",
    "has_props",
    "theoretical",
    "database_IDs"
  ]
}
