{"builder_meta": null, "nsites": null, "elements": null, "nelements": null, "composition": null, "composition_reduced": null, "formula_pretty": "Th4Al", "formula_anonymous": "AB4", "chemsys": null, "volume": 365.3035574970319, "density": 8.683391774565248, "density_atomic": 36.53035574970319, "symmetry": null, "property_name": null, "material_id": "mp-1208289", "deprecated": null, "deprecation_reasons": null, "last_updated": null, "origins": null, "warnings": null, "structure": {"@module": "pymatgen.core.structure", "@class": "Structure", "charge": 0, "lattice": {"matrix": [[-5.673808, -5.673808, 0.0], [-5.673808, 0.0, -5.673808], [0.0, -5.673808, -5.673808]], "pbc": [true, true, true], "a": 8.023976223900966, "b": 8.023976223900966, "c": 8.023976223900966, "alpha": 60.00000000000001, "beta": 60.00000000000001, "gamma": 60.00000000000001, "volume": 365.3035574970319}, "properties": {}, "sites": [{"species": [{"element": "Th", "occu": 1}], "abc": [0.604841, 0.604841, 0.604841], "properties": {"magmom": 0.001}, "label": "Th", "xyz": [-6.863503409055999, -6.863503409055999, -6.863503409055999]}, {"species": [{"element": "Th", "occu": 1}], "abc": [0.185477, 0.604841, 0.604841], "properties": {"magmom": 0.001}, "label": "Th", "xyz": [-4.484112590944, -4.484112590944, -6.863503409055999]}, {"species": [{"element": "Th", "occu": 1}], "abc": [0.604841, 0.185477, 0.604841], "properties": {"magmom": 0.001}, "label": "Th", "xyz": [-4.484112590944, -6.863503409055999, -4.484112590944]}, {"species": [{"element": "Th", "occu": 1}], "abc": [0.564523, 0.145158999999999, 0.145158999999999], "properties": {"magmom": 0.001}, "label": "Th", "xyz": [-4.0265994090559944, -4.0265994090559944, -1.6472085909439889]}, {"species": [{"element": "Th", "occu": 1}], "abc": [0.145158999999999, 0.145158999999999, 0.145158999999999], "properties": {"magmom": 0.001}, "label": "Th", "xyz": [-1.6472085909439889, -1.6472085909439889, -1.6472085909439889]}, {"species": [{"element": "Th", "occu": 1}], "abc": [0.604841, 0.604841, 0.185477], "properties": {"magmom": 0.001}, "label": "Th", "xyz": [-6.863503409055999, -4.484112590944, -4.484112590944]}, {"species": [{"element": "Th", "occu": 1}], "abc": [0.145158999999999, 0.564523, 0.145158999999999], "properties": {"magmom": 0.001}, "label": "Th", "xyz": [-4.0265994090559944, -1.6472085909439889, -4.0265994090559944]}, {"species": [{"element": "Th", "occu": 1}], "abc": [0.145158999999999, 0.145158999999999, 0.564523], "properties": {"magmom": 0.001}, "label": "Th", "xyz": [-1.6472085909439889, -4.0265994090559944, -4.0265994090559944]}, {"species": [{"element": "Al", "occu": 1}], "abc": [0.0, 0.0, 0.0], "properties": {"magmom": 0.0}, "label": "Al", "xyz": [0.0, 0.0, 0.0]}, {"species": [{"element": "Al", "occu": 1}], "abc": [0.75, 0.75, 0.75], "properties": {"magmom": 0.0}, "label": "Al", "xyz": [-8.510712, -8.510712, -8.510712]}]}, "task_ids": null, "uncorrected_energy_per_atom": null, "energy_per_atom": -59.402258247999995, "formation_energy_per_atom": 0.7243711380000031, "energy_above_hull": 0.8818198740000011, "is_stable": false, "equilibrium_reaction_energy_per_atom": null, "decomposes_to": null, "xas": null, "grain_boundaries": null, "band_gap": 0.0, "cbm": null, "vbm": null, "efermi": 5.61833869, "is_gap_direct": null, "is_metal": null, "es_source_calc_id": null, "bandstructure": null, "dos": null, "dos_energy_up": null, "dos_energy_down": null, "is_magnetic": null, "ordering": null, "total_magnetization": 0.0121683, "total_magnetization_normalized_vol": null, "total_magnetization_normalized_formula_units": null, "num_magnetic_sites": null, "num_unique_magnetic_sites": null, "types_of_magnetic_species": null, "bulk_modulus": null, "shear_modulus": null, "universal_anisotropy": null, "homogeneous_poisson": null, "e_total": null, "e_ionic": null, "e_electronic": null, "n": null, "e_ij_max": null, "weighted_surface_energy_EV_PER_ANG2": null, "weighted_surface_energy": null, "weighted_work_function": null, "surface_anisotropy": null, "shape_factor": null, "has_reconstructed": null, "possible_species": null, "has_props": null, "theoretical": null, "database_IDs": null, "fields_not_requested": ["builder_meta", "nsites", "elements", "nelements", "composition", "composition_reduced", "chemsys", "symmetry", "property_name", "deprecated", "deprecation_reasons", "last_updated", "origins", "warnings", "task_ids", "uncorrected_energy_per_atom", "equilibrium_reaction_energy_per_atom", "decomposes_to", "xas", "grain_boundaries", "cbm", "vbm", "is_gap_direct", "is_metal", "es_source_calc_id", "bandstructure", "dos", "dos_energy_up", "dos_energy_down", "is_magnetic", "ordering", "total_magnetization_normalized_vol", "total_magnetization_normalized_formula_units", "num_magnetic_sites", "num_unique_magnetic_sites", "types_of_magnetic_species", "bulk_modulus", "shear_modulus", "universal_anisotropy", "homogeneous_poisson", "e_total", "e_ionic", "e_electronic", "n", "e_ij_max", "weighted_surface_energy_EV_PER_ANG2", "weighted_surface_energy", "weighted_work_function", "surface_anisotropy", "shape_factor", "has_reconstructed", "possible_species", "has_props", "theoretical", "database_IDs"]}