{
  "builder_meta": null,
  "nsites": null,
  "elements": null,
  "nelements": null,
  "composition": null,
  "composition_reduced": null,
  "formula_pretty": "Th4C3",
  "formula_anonymous": "A3B4",
  "chemsys": null,
  "volume": 154.23726439840294,
  "density": 10.380537869488531,
  "density_atomic": 22.033894914057562,
  "symmetry": null,
  "property_name": null,
  "material_id": "mp-1217395",
  "deprecated": null,
  "deprecation_reasons": null,
  "last_updated": null,
  "origins": null,
  "warnings": null,
  "structure": {
    "@module": "pymatgen.core.structure",
    "@class": "Structure",
    "charge": 0,
    "lattice": {
      "matrix": [
        [-2.65897772, -2.6604052300000003, -0.00112465],
        [-0.0011288, 2.66040938, -2.65897463],
        [8.15073089, -5.49813038, -8.15071593]
      ],
      "pbc": [true, true, true],
      "a": 3.7613720592498394,
      "b": 3.7613728114034455,
      "c": 12.770983591260109,
      "alpha": 81.57737882554493,
      "beta": 98.4227695200747,
      "gamma": 119.98977755153872,
      "volume": 154.23726439840294
    },
    "properties": {},
    "sites": [
      {
        "species": [{ "element": "Th", "occu": 1 }],
        "abc": [0.24829894, 0.7517020600000001, 0.74538873],
        "properties": { "magmom": 0.03 },
        "label": "Th",
        "xyz": [5.414393076023925, -2.7589850085127514, -8.074487751915079]
      },
      {
        "species": [{ "element": "Th", "occu": 1 }],
        "abc": [0.50176965, 0.49822935, 0.50485985],
        "properties": { "magmom": 0.006 },
        "label": "Th",
        "xyz": [2.780220053303289, -2.7852018439112096, -5.4403127386206735]
      },
      {
        "species": [{ "element": "Th", "occu": 1 }],
        "abc": [0.99430969, 0.00569231, 0.98470125],
        "properties": { "magmom": 0.162 },
        "label": "Th",
        "xyz": [5.382181157826977, -8.044138682446786, -8.042274122934865]
      },
      {
        "species": [{ "element": "Th", "occu": 1 }],
        "abc": [0.7556782, 0.24431979999999903, 0.26512592],
        "properties": { "magmom": 0.043000000000000003 },
        "label": "Th",
        "xyz": [0.15136274040372477, -2.8181164231147147, -2.8114560828942077]
      },
      {
        "species": [{ "element": "C", "occu": 1 }],
        "abc": [0.12256804, 0.87743096, 0.36625959],
        "properties": { "magmom": 0.004 },
        "label": "C",
        "xyz": [2.6583872223600187, -0.00549807710578909, -5.318482383091]
      },
      {
        "species": [{ "element": "C", "occu": 1 }],
        "abc": [0.87495825, 0.12504175, 0.62488225],
        "properties": { "magmom": -0.007 },
        "label": "C",
        "xyz": [2.766611417880112, -5.430765342387788, -5.4267045721859075]
      },
      {
        "species": [{ "element": "C", "occu": 1 }],
        "abc": [0.62741723, 0.37258477, 0.88378442],
        "properties": { "magmom": -0.005 },
        "label": "C",
        "xyz": [5.534779962792242, -5.537118032103651, -8.194874826521916]
      }
    ]
  },
  "task_ids": null,
  "uncorrected_energy_per_atom": null,
  "energy_per_atom": -8.457928449999997,
  "formation_energy_per_atom": -0.266295667499995,
  "energy_above_hull": 0.0,
  "is_stable": true,
  "equilibrium_reaction_energy_per_atom": null,
  "decomposes_to": null,
  "xas": null,
  "grain_boundaries": null,
  "band_gap": 0.0,
  "cbm": null,
  "vbm": null,
  "efermi": 7.19472132,
  "is_gap_direct": null,
  "is_metal": null,
  "es_source_calc_id": null,
  "bandstructure": null,
  "dos": null,
  "dos_energy_up": null,
  "dos_energy_down": null,
  "is_magnetic": null,
  "ordering": null,
  "total_magnetization": 0.6130243,
  "total_magnetization_normalized_vol": null,
  "total_magnetization_normalized_formula_units": null,
  "num_magnetic_sites": null,
  "num_unique_magnetic_sites": null,
  "types_of_magnetic_species": null,
  "bulk_modulus": null,
  "shear_modulus": null,
  "universal_anisotropy": null,
  "homogeneous_poisson": null,
  "e_total": null,
  "e_ionic": null,
  "e_electronic": null,
  "n": null,
  "e_ij_max": null,
  "weighted_surface_energy_EV_PER_ANG2": null,
  "weighted_surface_energy": null,
  "weighted_work_function": null,
  "surface_anisotropy": null,
  "shape_factor": null,
  "has_reconstructed": null,
  "possible_species": null,
  "has_props": null,
  "theoretical": null,
  "database_IDs": null,
  "fields_not_requested": [
    "builder_meta",
    "nsites",
    "elements",
    "nelements",
    "composition",
    "composition_reduced",
    "chemsys",
    "symmetry",
    "property_name",
    "deprecated",
    "deprecation_reasons",
    "last_updated",
    "origins",
    "warnings",
    "task_ids",
    "uncorrected_energy_per_atom",
    "equilibrium_reaction_energy_per_atom",
    "decomposes_to",
    "xas",
    "grain_boundaries",
    "cbm",
    "vbm",
    "is_gap_direct",
    "is_metal",
    "es_source_calc_id",
    "bandstructure",
    "dos",
    "dos_energy_up",
    "dos_energy_down",
    "is_magnetic",
    "ordering",
    "total_magnetization_normalized_vol",
    "total_magnetization_normalized_formula_units",
    "num_magnetic_sites",
    "num_unique_magnetic_sites",
    "types_of_magnetic_species",
    "bulk_modulus",
    "shear_modulus",
    "universal_anisotropy",
    "homogeneous_poisson",
    "e_total",
    "e_ionic",
    "e_electronic",
    "n",
    "e_ij_max",
    "weighted_surface_energy_EV_PER_ANG2",
    "weighted_surface_energy",
    "weighted_work_function",
    "surface_anisotropy",
    "shape_factor",
    "has_reconstructed",
    "possible_species",
    "has_props",
    "theoretical",
    "database_IDs"
  ]
}
