{"builder_meta": null, "nsites": null, "elements": null, "nelements": null, "composition": null, "composition_reduced": null, "formula_pretty": "Th4Mg", "formula_anonymous": "AB4", "chemsys": null, "volume": 376.238833953943, "density": 8.407385487908574, "density_atomic": 37.6238833953943, "symmetry": null, "property_name": null, "material_id": "mp-1208443", "deprecated": null, "deprecation_reasons": null, "last_updated": null, "origins": null, "warnings": null, "structure": {"@module": "pymatgen.core.structure", "@class": "Structure", "charge": 0, "lattice": {"matrix": [[-5.729867, -5.729867, 0.0], [-5.729867, 0.0, -5.729867], [0.0, -5.729867, -5.729867]], "pbc": [true, true, true], "a": 8.10325562199404, "b": 8.10325562199404, "c": 8.10325562199404, "alpha": 60.00000000000001, "beta": 60.00000000000001, "gamma": 60.00000000000001, "volume": 376.238833953943}, "properties": {}, "sites": [{"species": [{"element": "Th", "occu": 1}], "abc": [0.601947, 0.601947, 0.601947], "properties": {"magmom": 0.001}, "label": "Th", "xyz": [-6.898152502097999, -6.898152502097999, -6.898152502097999]}, {"species": [{"element": "Th", "occu": 1}], "abc": [0.194159, 0.601947, 0.601947], "properties": {"magmom": 0.001}, "label": "Th", "xyz": [-4.561581497901999, -4.561581497901999, -6.898152502097999]}, {"species": [{"element": "Th", "occu": 1}], "abc": [0.601947, 0.194159, 0.601947], "properties": {"magmom": 0.001}, "label": "Th", "xyz": [-4.561581497901999, -6.898152502097999, -4.561581497901999]}, {"species": [{"element": "Th", "occu": 1}], "abc": [0.555841, 0.148053, 0.148053], "properties": {"magmom": 0.001}, "label": "Th", "xyz": [-4.033219002098, -4.033219002098, -1.6966479979019997]}, {"species": [{"element": "Th", "occu": 1}], "abc": [0.148053, 0.148053, 0.148053], "properties": {"magmom": 0.001}, "label": "Th", "xyz": [-1.6966479979019997, -1.6966479979019997, -1.6966479979019997]}, {"species": [{"element": "Th", "occu": 1}], "abc": [0.601947, 0.601947, 0.194159], "properties": {"magmom": 0.001}, "label": "Th", "xyz": [-6.898152502097999, -4.561581497901999, -4.561581497901999]}, {"species": [{"element": "Th", "occu": 1}], "abc": [0.148053, 0.555841, 0.148053], "properties": {"magmom": 0.001}, "label": "Th", "xyz": [-4.033219002098, -1.6966479979019997, -4.033219002098]}, {"species": [{"element": "Th", "occu": 1}], "abc": [0.148053, 0.148053, 0.555841], "properties": {"magmom": 0.001}, "label": "Th", "xyz": [-1.6966479979019997, -4.033219002098, -4.033219002098]}, {"species": [{"element": "Mg", "occu": 1}], "abc": [0.0, 0.0, 0.0], "properties": {"magmom": -0.0}, "label": "Mg", "xyz": [0.0, 0.0, 0.0]}, {"species": [{"element": "Mg", "occu": 1}], "abc": [0.75, 0.75, 0.75], "properties": {"magmom": -0.0}, "label": "Mg", "xyz": [-8.5948005, -8.5948005, -8.5948005]}]}, "task_ids": null, "uncorrected_energy_per_atom": null, "energy_per_atom": -5.319957768, "formation_energy_per_atom": 0.937222835000003, "energy_above_hull": 0.937222835000003, "is_stable": false, "equilibrium_reaction_energy_per_atom": null, "decomposes_to": null, "xas": null, "grain_boundaries": null, "band_gap": 0.0, "cbm": null, "vbm": null, "efermi": 5.24938645, "is_gap_direct": null, "is_metal": null, "es_source_calc_id": null, "bandstructure": null, "dos": null, "dos_energy_up": null, "dos_energy_down": null, "is_magnetic": null, "ordering": null, "total_magnetization": 0.0135891, "total_magnetization_normalized_vol": null, "total_magnetization_normalized_formula_units": null, "num_magnetic_sites": null, "num_unique_magnetic_sites": null, "types_of_magnetic_species": null, "bulk_modulus": null, "shear_modulus": null, "universal_anisotropy": null, "homogeneous_poisson": null, "e_total": null, "e_ionic": null, "e_electronic": null, "n": null, "e_ij_max": null, "weighted_surface_energy_EV_PER_ANG2": null, "weighted_surface_energy": null, "weighted_work_function": null, "surface_anisotropy": null, "shape_factor": null, "has_reconstructed": null, "possible_species": null, "has_props": null, "theoretical": null, "database_IDs": null, "fields_not_requested": ["builder_meta", "nsites", "elements", "nelements", "composition", "composition_reduced", "chemsys", "symmetry", "property_name", "deprecated", "deprecation_reasons", "last_updated", "origins", "warnings", "task_ids", "uncorrected_energy_per_atom", "equilibrium_reaction_energy_per_atom", "decomposes_to", "xas", "grain_boundaries", "cbm", "vbm", "is_gap_direct", "is_metal", "es_source_calc_id", "bandstructure", "dos", "dos_energy_up", "dos_energy_down", "is_magnetic", "ordering", "total_magnetization_normalized_vol", "total_magnetization_normalized_formula_units", "num_magnetic_sites", "num_unique_magnetic_sites", "types_of_magnetic_species", "bulk_modulus", "shear_modulus", "universal_anisotropy", "homogeneous_poisson", "e_total", "e_ionic", "e_electronic", "n", "e_ij_max", "weighted_surface_energy_EV_PER_ANG2", "weighted_surface_energy", "weighted_work_function", "surface_anisotropy", "shape_factor", "has_reconstructed", "possible_species", "has_props", "theoretical", "database_IDs"]}