{"builder_meta": null, "nsites": null, "elements": null, "nelements": null, "composition": null, "composition_reduced": null, "formula_pretty": "Th4Os", "formula_anonymous": "AB4", "chemsys": null, "volume": 347.23792280805117, "density": 10.696512557692085, "density_atomic": 34.723792280805114, "symmetry": null, "property_name": null, "material_id": "mp-1208312", "deprecated": null, "deprecation_reasons": null, "last_updated": null, "origins": null, "warnings": null, "structure": {"@module": "pymatgen.core.structure", "@class": "Structure", "charge": 0, "lattice": {"matrix": [[-5.578692, -5.578692, 0.0], [-5.578692, 0.0, -5.578692], [0.0, -5.578692, -5.578692]], "pbc": [true, true, true], "a": 7.8894618867022865, "b": 7.8894618867022865, "c": 7.8894618867022865, "alpha": 59.99999999999999, "beta": 59.99999999999999, "gamma": 59.99999999999999, "volume": 347.23792280805117}, "properties": {}, "sites": [{"species": [{"element": "Th", "occu": 1}], "abc": [0.612884, 0.612884, 0.612884], "properties": {"magmom": -0.0}, "label": "Th", "xyz": [-6.838182135456, -6.838182135456, -6.838182135456]}, {"species": [{"element": "Th", "occu": 1}], "abc": [0.161348, 0.612884, 0.612884], "properties": {"magmom": -0.0}, "label": "Th", "xyz": [-4.3192018645440005, -4.3192018645440005, -6.838182135456]}, {"species": [{"element": "Th", "occu": 1}], "abc": [0.612884, 0.161348, 0.612884], "properties": {"magmom": -0.0}, "label": "Th", "xyz": [-4.3192018645440005, -6.838182135456, -4.3192018645440005]}, {"species": [{"element": "Th", "occu": 1}], "abc": [0.588652, 0.137116, 0.137116], "properties": {"magmom": -0.0}, "label": "Th", "xyz": [-4.048836135456, -4.048836135456, -1.529855864544]}, {"species": [{"element": "Th", "occu": 1}], "abc": [0.137116, 0.137116, 0.137116], "properties": {"magmom": -0.0}, "label": "Th", "xyz": [-1.529855864544, -1.529855864544, -1.529855864544]}, {"species": [{"element": "Th", "occu": 1}], "abc": [0.612884, 0.612884, 0.161348], "properties": {"magmom": -0.0}, "label": "Th", "xyz": [-6.838182135456, -4.3192018645440005, -4.3192018645440005]}, {"species": [{"element": "Th", "occu": 1}], "abc": [0.137116, 0.588652, 0.137116], "properties": {"magmom": -0.0}, "label": "Th", "xyz": [-4.048836135456, -1.529855864544, -4.048836135456]}, {"species": [{"element": "Th", "occu": 1}], "abc": [0.137116, 0.137116, 0.588652], "properties": {"magmom": -0.0}, "label": "Th", "xyz": [-1.529855864544, -4.048836135456, -4.048836135456]}, {"species": [{"element": "Os", "occu": 1}], "abc": [0.0, 0.0, 0.0], "properties": {"magmom": 0.0}, "label": "Os", "xyz": [0.0, 0.0, 0.0]}, {"species": [{"element": "Os", "occu": 1}], "abc": [0.75, 0.75, 0.75], "properties": {"magmom": 0.0}, "label": "Os", "xyz": [-8.368038, -8.368038, -8.368038]}]}, "task_ids": null, "uncorrected_energy_per_atom": null, "energy_per_atom": -69.02552412133335, "formation_energy_per_atom": 0.35173136866666205, "energy_above_hull": 0.6024512359999931, "is_stable": false, "equilibrium_reaction_energy_per_atom": null, "decomposes_to": null, "xas": null, "grain_boundaries": null, "band_gap": 0.0, "cbm": null, "vbm": null, "efermi": 6.08214998, "is_gap_direct": null, "is_metal": null, "es_source_calc_id": null, "bandstructure": null, "dos": null, "dos_energy_up": null, "dos_energy_down": null, "is_magnetic": null, "ordering": null, "total_magnetization": 0.0001099, "total_magnetization_normalized_vol": null, "total_magnetization_normalized_formula_units": null, "num_magnetic_sites": null, "num_unique_magnetic_sites": null, "types_of_magnetic_species": null, "bulk_modulus": null, "shear_modulus": null, "universal_anisotropy": null, "homogeneous_poisson": null, "e_total": null, "e_ionic": null, "e_electronic": null, "n": null, "e_ij_max": null, "weighted_surface_energy_EV_PER_ANG2": null, "weighted_surface_energy": null, "weighted_work_function": null, "surface_anisotropy": null, "shape_factor": null, "has_reconstructed": null, "possible_species": null, "has_props": null, "theoretical": null, "database_IDs": null, "fields_not_requested": ["builder_meta", "nsites", "elements", "nelements", "composition", "composition_reduced", "chemsys", "symmetry", "property_name", "deprecated", "deprecation_reasons", "last_updated", "origins", "warnings", "task_ids", "uncorrected_energy_per_atom", "equilibrium_reaction_energy_per_atom", "decomposes_to", "xas", "grain_boundaries", "cbm", "vbm", "is_gap_direct", "is_metal", "es_source_calc_id", "bandstructure", "dos", "dos_energy_up", "dos_energy_down", "is_magnetic", "ordering", "total_magnetization_normalized_vol", "total_magnetization_normalized_formula_units", "num_magnetic_sites", "num_unique_magnetic_sites", "types_of_magnetic_species", "bulk_modulus", "shear_modulus", "universal_anisotropy", "homogeneous_poisson", "e_total", "e_ionic", "e_electronic", "n", "e_ij_max", "weighted_surface_energy_EV_PER_ANG2", "weighted_surface_energy", "weighted_work_function", "surface_anisotropy", "shape_factor", "has_reconstructed", "possible_species", "has_props", "theoretical", "database_IDs"]}