{
  "builder_meta": null,
  "nsites": null,
  "elements": null,
  "nelements": null,
  "composition": null,
  "composition_reduced": null,
  "formula_pretty": "Th4Ru",
  "formula_anonymous": "AB4",
  "chemsys": null,
  "volume": 329.82629110512823,
  "density": 10.363417252197262,
  "density_atomic": 32.982629110512825,
  "symmetry": null,
  "property_name": null,
  "material_id": "mp-1208262",
  "deprecated": null,
  "deprecation_reasons": null,
  "last_updated": null,
  "origins": null,
  "warnings": null,
  "structure": {
    "@module": "pymatgen.core.structure",
    "@class": "Structure",
    "charge": 0,
    "lattice": {
      "matrix": [
        [-5.483844, -5.483844, 0.0],
        [-5.483844, 0.0, -5.483844],
        [0.0, -5.483844, -5.483844]
      ],
      "pbc": [true, true, true],
      "a": 7.755326558738323,
      "b": 7.755326558738323,
      "c": 7.755326558738323,
      "alpha": 59.99999999999999,
      "beta": 59.99999999999999,
      "gamma": 59.99999999999999,
      "volume": 329.82629110512823
    },
    "properties": {},
    "sites": [
      {
        "species": [{ "element": "Th", "occu": 1 }],
        "abc": [0.611436, 0.611436, 0.611436],
        "properties": { "magmom": -0.0 },
        "label": "Th",
        "xyz": [-6.706039279968, -6.706039279968, -6.706039279968]
      },
      {
        "species": [{ "element": "Th", "occu": 1 }],
        "abc": [0.165691, 0.611436, 0.611436],
        "properties": { "magmom": -0.0 },
        "label": "Th",
        "xyz": [-4.261643236188, -4.261643236188, -6.706039279968]
      },
      {
        "species": [{ "element": "Th", "occu": 1 }],
        "abc": [0.611436, 0.165691, 0.611436],
        "properties": { "magmom": -0.0 },
        "label": "Th",
        "xyz": [-4.261643236188, -6.706039279968, -4.261643236188]
      },
      {
        "species": [{ "element": "Th", "occu": 1 }],
        "abc": [0.584309, 0.138564, 0.138564],
        "properties": { "magmom": -0.0 },
        "label": "Th",
        "xyz": [-3.964122763812, -3.964122763812, -1.519726720032]
      },
      {
        "species": [{ "element": "Th", "occu": 1 }],
        "abc": [0.138564, 0.138564, 0.138564],
        "properties": { "magmom": -0.0 },
        "label": "Th",
        "xyz": [-1.519726720032, -1.519726720032, -1.519726720032]
      },
      {
        "species": [{ "element": "Th", "occu": 1 }],
        "abc": [0.611436, 0.611436, 0.165691],
        "properties": { "magmom": -0.0 },
        "label": "Th",
        "xyz": [-6.706039279968, -4.261643236188, -4.261643236188]
      },
      {
        "species": [{ "element": "Th", "occu": 1 }],
        "abc": [0.138564, 0.584309, 0.138564],
        "properties": { "magmom": -0.0 },
        "label": "Th",
        "xyz": [-3.964122763812, -1.519726720032, -3.964122763812]
      },
      {
        "species": [{ "element": "Th", "occu": 1 }],
        "abc": [0.138564, 0.138564, 0.584309],
        "properties": { "magmom": -0.0 },
        "label": "Th",
        "xyz": [-1.519726720032, -3.964122763812, -3.964122763812]
      },
      {
        "species": [{ "element": "Ru", "occu": 1 }],
        "abc": [0.0, 0.0, 0.0],
        "properties": { "magmom": -0.0 },
        "label": "Ru",
        "xyz": [0.0, 0.0, 0.0]
      },
      {
        "species": [{ "element": "Ru", "occu": 1 }],
        "abc": [0.75, 0.75, 0.75],
        "properties": { "magmom": 0.0 },
        "label": "Ru",
        "xyz": [-8.225766, -8.225766, -8.225766]
      }
    ]
  },
  "task_ids": null,
  "uncorrected_energy_per_atom": null,
  "energy_per_atom": -63.63336883433334,
  "formation_energy_per_atom": 0.231747944666665,
  "energy_above_hull": 0.514305609666664,
  "is_stable": false,
  "equilibrium_reaction_energy_per_atom": null,
  "decomposes_to": null,
  "xas": null,
  "grain_boundaries": null,
  "band_gap": 0.0,
  "cbm": null,
  "vbm": null,
  "efermi": 6.47046206,
  "is_gap_direct": null,
  "is_metal": null,
  "es_source_calc_id": null,
  "bandstructure": null,
  "dos": null,
  "dos_energy_up": null,
  "dos_energy_down": null,
  "is_magnetic": null,
  "ordering": null,
  "total_magnetization": 0.000363,
  "total_magnetization_normalized_vol": null,
  "total_magnetization_normalized_formula_units": null,
  "num_magnetic_sites": null,
  "num_unique_magnetic_sites": null,
  "types_of_magnetic_species": null,
  "bulk_modulus": null,
  "shear_modulus": null,
  "universal_anisotropy": null,
  "homogeneous_poisson": null,
  "e_total": null,
  "e_ionic": null,
  "e_electronic": null,
  "n": null,
  "e_ij_max": null,
  "weighted_surface_energy_EV_PER_ANG2": null,
  "weighted_surface_energy": null,
  "weighted_work_function": null,
  "surface_anisotropy": null,
  "shape_factor": null,
  "has_reconstructed": null,
  "possible_species": null,
  "has_props": null,
  "theoretical": null,
  "database_IDs": null,
  "fields_not_requested": [
    "builder_meta",
    "nsites",
    "elements",
    "nelements",
    "composition",
    "composition_reduced",
    "chemsys",
    "symmetry",
    "property_name",
    "deprecated",
    "deprecation_reasons",
    "last_updated",
    "origins",
    "warnings",
    "task_ids",
    "uncorrected_energy_per_atom",
    "equilibrium_reaction_energy_per_atom",
    "decomposes_to",
    "xas",
    "grain_boundaries",
    "cbm",
    "vbm",
    "is_gap_direct",
    "is_metal",
    "es_source_calc_id",
    "bandstructure",
    "dos",
    "dos_energy_up",
    "dos_energy_down",
    "is_magnetic",
    "ordering",
    "total_magnetization_normalized_vol",
    "total_magnetization_normalized_formula_units",
    "num_magnetic_sites",
    "num_unique_magnetic_sites",
    "types_of_magnetic_species",
    "bulk_modulus",
    "shear_modulus",
    "universal_anisotropy",
    "homogeneous_poisson",
    "e_total",
    "e_ionic",
    "e_electronic",
    "n",
    "e_ij_max",
    "weighted_surface_energy_EV_PER_ANG2",
    "weighted_surface_energy",
    "weighted_work_function",
    "surface_anisotropy",
    "shape_factor",
    "has_reconstructed",
    "possible_species",
    "has_props",
    "theoretical",
    "database_IDs"
  ]
}
