{"builder_meta": null, "nsites": null, "elements": null, "nelements": null, "composition": null, "composition_reduced": null, "formula_pretty": "Th5Bi3", "formula_anonymous": "A3B5", "chemsys": null, "volume": 517.2575334196101, "density": 11.474368109373003, "density_atomic": 32.32859583872563, "symmetry": null, "property_name": null, "material_id": "mp-1106314", "deprecated": null, "deprecation_reasons": null, "last_updated": null, "origins": null, "warnings": null, "structure": {"@module": "pymatgen.core.structure", "@class": "Structure", "charge": 0, "lattice": {"matrix": [[0.0, 0.0, -6.561079], [-4.772449, -8.266125, 0.0], [-4.766819, 8.262874, 0.0]], "pbc": [true, true, true], "a": 6.561079, "b": 9.544898740857652, "c": 9.539268846124267, "alpha": 120.0195269751396, "beta": 90.0, "gamma": 90.0, "volume": 517.2575334196101}, "properties": {}, "sites": [{"species": [{"element": "Th", "occu": 1}], "abc": [0.5, 0.333295, 0.666623], "properties": {"magmom": -0.0}, "label": "Th", "xyz": [-4.768304571692, 2.7531637226269994, -3.2805395]}, {"species": [{"element": "Th", "occu": 1}], "abc": [0.5, 0.666671999999999, 0.333377], "properties": {"magmom": 0.0}, "label": "Th", "xyz": [-4.770805937490995, -2.7561419405019927, -3.2805395]}, {"species": [{"element": "Th", "occu": 1}], "abc": [0.0, 0.666705, 0.333377], "properties": {"magmom": -0.0}, "label": "Th", "xyz": [-4.770963428308, -2.756414722627, 0.0]}, {"species": [{"element": "Th", "occu": 1}], "abc": [0.0, 0.333327999999999, 0.666623], "properties": {"magmom": 0.0}, "label": "Th", "xyz": [-4.768462062508995, 2.7528909405020077, 0.0]}, {"species": [{"element": "Th", "occu": 1}], "abc": [0.749993, 0.2525, 0.0], "properties": {"magmom": -0.003}, "label": "Th", "xyz": [-1.2050433725, -2.0871965625, -4.920763322447001]}, {"species": [{"element": "Th", "occu": 1}], "abc": [0.750004, 0.747699, 0.74772], "properties": {"magmom": 0.004}, "label": "Th", "xyz": [-7.132601247531, -0.0022572490949999136, -4.920835494316]}, {"species": [{"element": "Th", "occu": 1}], "abc": [0.750004, 0.999979, 0.25228], "properties": {"magmom": -0.001}, "label": "Th", "xyz": [-5.974921875891, -6.181393558655001, -4.920835494316]}, {"species": [{"element": "Th", "occu": 1}], "abc": [0.249993, 0.7475, 0.0], "properties": {"magmom": -0.002}, "label": "Th", "xyz": [-3.5674056275000003, -6.178928437500001, -1.640223822447]}, {"species": [{"element": "Th", "occu": 1}], "abc": [0.250004, 0.252301, 0.25228], "properties": {"magmom": 0.006}, "label": "Th", "xyz": [-2.406666752469, -0.0009937509049997573, -1.640295994316]}, {"species": [{"element": "Th", "occu": 1}], "abc": [0.250004, 2.1000000000000002e-05, 0.74772], "properties": {"magmom": -0.0}, "label": "Th", "xyz": [-3.564346124109, 6.178142558655001, -1.640295994316]}, {"species": [{"element": "Bi", "occu": 1}], "abc": [0.749991, 0.611, 0.0], "properties": {"magmom": 0.001}, "label": "Bi", "xyz": [-2.9159663389999997, -5.050602375, -4.920750200289]}, {"species": [{"element": "Bi", "occu": 1}], "abc": [0.750004, 0.388974, 0.388965], "properties": {"magmom": -0.002}, "label": "Bi", "xyz": [-3.710484329661, -0.0013389203399998273, -4.920835494316]}, {"species": [{"element": "Bi", "occu": 1}], "abc": [0.750004, 1e-05, 0.611035], "properties": {"magmom": 0.001}, "label": "Bi", "xyz": [-2.912740972155, 5.048822553340001, -4.920835494316]}, {"species": [{"element": "Bi", "occu": 1}], "abc": [0.249991, 0.389, 0.0], "properties": {"magmom": 0.001}, "label": "Bi", "xyz": [-1.856482661, -3.215522625, -1.640210700289]}, {"species": [{"element": "Bi", "occu": 1}], "abc": [0.250004, 0.611026, 0.611035], "properties": {"magmom": -0.002}, "label": "Bi", "xyz": [-5.828783670339, -0.0019120796599993994, -1.640295994316]}, {"species": [{"element": "Bi", "occu": 1}], "abc": [0.250004, 0.99999, 0.388965], "properties": {"magmom": 0.0}, "label": "Bi", "xyz": [-6.626527027845, -5.052073553340001, -1.640295994316]}]}, "task_ids": null, "uncorrected_energy_per_atom": null, "energy_per_atom": -6.505823628125, "formation_energy_per_atom": -0.413399355624998, "energy_above_hull": 0.0, "is_stable": true, "equilibrium_reaction_energy_per_atom": null, "decomposes_to": null, "xas": null, "grain_boundaries": null, "band_gap": 0.0, "cbm": null, "vbm": null, "efermi": 7.53657653, "is_gap_direct": null, "is_metal": null, "es_source_calc_id": null, "bandstructure": null, "dos": null, "dos_energy_up": null, "dos_energy_down": null, "is_magnetic": null, "ordering": null, "total_magnetization": 0.0081108, "total_magnetization_normalized_vol": null, "total_magnetization_normalized_formula_units": null, "num_magnetic_sites": null, "num_unique_magnetic_sites": null, "types_of_magnetic_species": null, "bulk_modulus": null, "shear_modulus": null, "universal_anisotropy": null, "homogeneous_poisson": null, "e_total": null, "e_ionic": null, "e_electronic": null, "n": null, "e_ij_max": null, "weighted_surface_energy_EV_PER_ANG2": null, "weighted_surface_energy": null, "weighted_work_function": null, "surface_anisotropy": null, "shape_factor": null, "has_reconstructed": null, "possible_species": null, "has_props": null, "theoretical": null, "database_IDs": null, "fields_not_requested": ["builder_meta", "nsites", "elements", "nelements", "composition", "composition_reduced", "chemsys", "symmetry", "property_name", "deprecated", "deprecation_reasons", "last_updated", "origins", "warnings", "task_ids", "uncorrected_energy_per_atom", "equilibrium_reaction_energy_per_atom", "decomposes_to", "xas", "grain_boundaries", "cbm", "vbm", "is_gap_direct", "is_metal", "es_source_calc_id", "bandstructure", "dos", "dos_energy_up", "dos_energy_down", "is_magnetic", "ordering", "total_magnetization_normalized_vol", "total_magnetization_normalized_formula_units", "num_magnetic_sites", "num_unique_magnetic_sites", "types_of_magnetic_species", "bulk_modulus", "shear_modulus", "universal_anisotropy", "homogeneous_poisson", "e_total", "e_ionic", "e_electronic", "n", "e_ij_max", "weighted_surface_energy_EV_PER_ANG2", "weighted_surface_energy", "weighted_work_function", "surface_anisotropy", "shape_factor", "has_reconstructed", "possible_species", "has_props", "theoretical", "database_IDs"]}