{
  "builder_meta": null,
  "nsites": null,
  "elements": null,
  "nelements": null,
  "composition": null,
  "composition_reduced": null,
  "formula_pretty": "Th5C4",
  "formula_anonymous": "A4B5",
  "chemsys": null,
  "volume": 189.64403720609377,
  "density": 10.579390175757954,
  "density_atomic": 21.071559689565973,
  "symmetry": null,
  "property_name": null,
  "material_id": "mp-1217379",
  "deprecated": null,
  "deprecation_reasons": null,
  "last_updated": null,
  "origins": null,
  "warnings": null,
  "structure": {
    "@module": "pymatgen.core.structure",
    "@class": "Structure",
    "charge": 0,
    "lattice": {
      "matrix": [
        [15.473714, -1.883278, 0.0],
        [15.473714, 1.883278, 0.0],
        [15.244504, 0.0, 3.25387]
      ],
      "pbc": [true, true, true],
      "a": 15.587897901227091,
      "b": 15.587897901227091,
      "c": 15.587898260603192,
      "alpha": 13.878474537283017,
      "beta": 13.878474537283017,
      "gamma": 13.878475128072298,
      "volume": 189.64403720609377
    },
    "properties": {},
    "sites": [
      {
        "species": [{ "element": "Th", "occu": 1 }],
        "abc": [0.100559, 0.100559, 0.100559],
        "properties": { "magmom": -0.0 },
        "label": "Th",
        "xyz": [4.645014489988, 0.0, 0.32720591333]
      },
      {
        "species": [{ "element": "Th", "occu": 1 }],
        "abc": [0.899440999999999, 0.899440999999999, 0.899440999999999],
        "properties": { "magmom": -0.0 },
        "label": "Th",
        "xyz": [41.54691751001195, 0.0, 2.926664086669997]
      },
      {
        "species": [{ "element": "Th", "occu": 1 }],
        "abc": [0.5, 0.5, 0.5],
        "properties": { "magmom": -0.016 },
        "label": "Th",
        "xyz": [23.095965999999997, 0.0, 1.626935]
      },
      {
        "species": [{ "element": "Th", "occu": 1 }],
        "abc": [0.702599, 0.702599, 0.702599],
        "properties": { "magmom": 0.073 },
        "label": "Th",
        "xyz": [32.454405231268, 0.0, 2.28616580813]
      },
      {
        "species": [{ "element": "Th", "occu": 1 }],
        "abc": [0.297400999999999, 0.297400999999999, 0.297400999999999],
        "properties": { "magmom": 0.073 },
        "label": "Th",
        "xyz": [13.737526768731955, 0.0, 0.9677041918699969]
      },
      {
        "species": [{ "element": "C", "occu": 1 }],
        "abc": [0.603932999999999, 0.603932999999999, 0.603932999999999],
        "properties": { "magmom": 0.01 },
        "label": "C",
        "xyz": [27.896832068555952, 0.0, 1.965119470709997]
      },
      {
        "species": [{ "element": "C", "occu": 1 }],
        "abc": [0.201181, 0.201181, 0.201181],
        "properties": { "magmom": -0.006 },
        "label": "C",
        "xyz": [9.292939071692, 0.0, 0.65461682047]
      },
      {
        "species": [{ "element": "C", "occu": 1 }],
        "abc": [0.798819, 0.798819, 0.798819],
        "properties": { "magmom": -0.006 },
        "label": "C",
        "xyz": [36.898992928308, 0.0, 2.59925317953]
      },
      {
        "species": [{ "element": "C", "occu": 1 }],
        "abc": [0.396067, 0.396067, 0.396067],
        "properties": { "magmom": 0.01 },
        "label": "C",
        "xyz": [18.295099931444, 0.0, 1.2887505292900001]
      }
    ]
  },
  "task_ids": null,
  "uncorrected_energy_per_atom": null,
  "energy_per_atom": -8.480011335555554,
  "formation_energy_per_atom": -0.259572088888886,
  "energy_above_hull": 0.008746711111111001,
  "is_stable": false,
  "equilibrium_reaction_energy_per_atom": null,
  "decomposes_to": null,
  "xas": null,
  "grain_boundaries": null,
  "band_gap": 0.0,
  "cbm": null,
  "vbm": null,
  "efermi": 7.2002067,
  "is_gap_direct": null,
  "is_metal": null,
  "es_source_calc_id": null,
  "bandstructure": null,
  "dos": null,
  "dos_energy_up": null,
  "dos_energy_down": null,
  "is_magnetic": null,
  "ordering": null,
  "total_magnetization": 0.3790638,
  "total_magnetization_normalized_vol": null,
  "total_magnetization_normalized_formula_units": null,
  "num_magnetic_sites": null,
  "num_unique_magnetic_sites": null,
  "types_of_magnetic_species": null,
  "bulk_modulus": null,
  "shear_modulus": null,
  "universal_anisotropy": null,
  "homogeneous_poisson": null,
  "e_total": null,
  "e_ionic": null,
  "e_electronic": null,
  "n": null,
  "e_ij_max": null,
  "weighted_surface_energy_EV_PER_ANG2": null,
  "weighted_surface_energy": null,
  "weighted_work_function": null,
  "surface_anisotropy": null,
  "shape_factor": null,
  "has_reconstructed": null,
  "possible_species": null,
  "has_props": null,
  "theoretical": null,
  "database_IDs": null,
  "fields_not_requested": [
    "builder_meta",
    "nsites",
    "elements",
    "nelements",
    "composition",
    "composition_reduced",
    "chemsys",
    "symmetry",
    "property_name",
    "deprecated",
    "deprecation_reasons",
    "last_updated",
    "origins",
    "warnings",
    "task_ids",
    "uncorrected_energy_per_atom",
    "equilibrium_reaction_energy_per_atom",
    "decomposes_to",
    "xas",
    "grain_boundaries",
    "cbm",
    "vbm",
    "is_gap_direct",
    "is_metal",
    "es_source_calc_id",
    "bandstructure",
    "dos",
    "dos_energy_up",
    "dos_energy_down",
    "is_magnetic",
    "ordering",
    "total_magnetization_normalized_vol",
    "total_magnetization_normalized_formula_units",
    "num_magnetic_sites",
    "num_unique_magnetic_sites",
    "types_of_magnetic_species",
    "bulk_modulus",
    "shear_modulus",
    "universal_anisotropy",
    "homogeneous_poisson",
    "e_total",
    "e_ionic",
    "e_electronic",
    "n",
    "e_ij_max",
    "weighted_surface_energy_EV_PER_ANG2",
    "weighted_surface_energy",
    "weighted_work_function",
    "surface_anisotropy",
    "shape_factor",
    "has_reconstructed",
    "possible_species",
    "has_props",
    "theoretical",
    "database_IDs"
  ]
}
