{
  "builder_meta": null,
  "nsites": null,
  "elements": null,
  "nelements": null,
  "composition": null,
  "composition_reduced": null,
  "formula_pretty": "Th5C",
  "formula_anonymous": "AB5",
  "chemsys": null,
  "volume": 169.18135710870405,
  "density": 11.50531942569128,
  "density_atomic": 28.196892851450674,
  "symmetry": null,
  "property_name": null,
  "material_id": "mp-1217298",
  "deprecated": null,
  "deprecation_reasons": null,
  "last_updated": null,
  "origins": null,
  "warnings": null,
  "structure": {
    "@module": "pymatgen.core.structure",
    "@class": "Structure",
    "charge": 0,
    "lattice": {
      "matrix": [
        [15.03022415, -1.80476747, -0.007826360000000001],
        [15.03022415, 1.80476747, -0.007826360000000001],
        [14.81513813, 0.0, 3.11071418]
      ],
      "pbc": [true, true, true],
      "a": 15.138192919629617,
      "b": 15.138192919629617,
      "c": 15.138192115329787,
      "alpha": 13.694117762792551,
      "beta": 13.694117762792551,
      "gamma": 13.69411727406269,
      "volume": 169.18135710870402
    },
    "properties": {},
    "sites": [
      {
        "species": [{ "element": "Th", "occu": 1 }],
        "abc": [0.60213165, 0.60213165, 0.60213165],
        "properties": { "magmom": -0.0 },
        "label": "Th",
        "xyz": [27.02101090181351, 0.0, 1.863634463761209]
      },
      {
        "species": [{ "element": "Th", "occu": 1 }],
        "abc": [0.0, 0.0, 0.0],
        "properties": { "magmom": -0.0 },
        "label": "Th",
        "xyz": [0.0, 0.0, 0.0]
      },
      {
        "species": [{ "element": "Th", "occu": 1 }],
        "abc": [0.39786835, 0.39786835, 0.39786835],
        "properties": { "magmom": -0.0 },
        "label": "Th",
        "xyz": [17.85457552818649, 0.0, 1.231426996238791]
      },
      {
        "species": [{ "element": "Th", "occu": 1 }],
        "abc": [0.20015716, 0.20015716, 0.20015716],
        "properties": { "magmom": 0.0 },
        "label": "Th",
        "xyz": [8.98216993316334, 0.0, 0.6194987118590536]
      },
      {
        "species": [{ "element": "Th", "occu": 1 }],
        "abc": [0.79984284, 0.79984284, 0.79984284],
        "properties": { "magmom": 0.0 },
        "label": "Th",
        "xyz": [35.893416496836664, 0.0, 2.4755627481409466]
      },
      {
        "species": [{ "element": "C", "occu": 1 }],
        "abc": [0.5, 0.5, 0.5],
        "properties": { "magmom": 0.0 },
        "label": "C",
        "xyz": [22.437793215, 0.0, 1.54753073]
      }
    ]
  },
  "task_ids": null,
  "uncorrected_energy_per_atom": null,
  "energy_per_atom": -7.828389631666671,
  "formation_energy_per_atom": -0.11206350791666801,
  "energy_above_hull": 0.0,
  "is_stable": true,
  "equilibrium_reaction_energy_per_atom": null,
  "decomposes_to": null,
  "xas": null,
  "grain_boundaries": null,
  "band_gap": 0.0,
  "cbm": null,
  "vbm": null,
  "efermi": 7.76013966,
  "is_gap_direct": null,
  "is_metal": null,
  "es_source_calc_id": null,
  "bandstructure": null,
  "dos": null,
  "dos_energy_up": null,
  "dos_energy_down": null,
  "is_magnetic": null,
  "ordering": null,
  "total_magnetization": 2.6400000000000005e-5,
  "total_magnetization_normalized_vol": null,
  "total_magnetization_normalized_formula_units": null,
  "num_magnetic_sites": null,
  "num_unique_magnetic_sites": null,
  "types_of_magnetic_species": null,
  "bulk_modulus": null,
  "shear_modulus": null,
  "universal_anisotropy": null,
  "homogeneous_poisson": null,
  "e_total": null,
  "e_ionic": null,
  "e_electronic": null,
  "n": null,
  "e_ij_max": null,
  "weighted_surface_energy_EV_PER_ANG2": null,
  "weighted_surface_energy": null,
  "weighted_work_function": null,
  "surface_anisotropy": null,
  "shape_factor": null,
  "has_reconstructed": null,
  "possible_species": null,
  "has_props": null,
  "theoretical": null,
  "database_IDs": null,
  "fields_not_requested": [
    "builder_meta",
    "nsites",
    "elements",
    "nelements",
    "composition",
    "composition_reduced",
    "chemsys",
    "symmetry",
    "property_name",
    "deprecated",
    "deprecation_reasons",
    "last_updated",
    "origins",
    "warnings",
    "task_ids",
    "uncorrected_energy_per_atom",
    "equilibrium_reaction_energy_per_atom",
    "decomposes_to",
    "xas",
    "grain_boundaries",
    "cbm",
    "vbm",
    "is_gap_direct",
    "is_metal",
    "es_source_calc_id",
    "bandstructure",
    "dos",
    "dos_energy_up",
    "dos_energy_down",
    "is_magnetic",
    "ordering",
    "total_magnetization_normalized_vol",
    "total_magnetization_normalized_formula_units",
    "num_magnetic_sites",
    "num_unique_magnetic_sites",
    "types_of_magnetic_species",
    "bulk_modulus",
    "shear_modulus",
    "universal_anisotropy",
    "homogeneous_poisson",
    "e_total",
    "e_ionic",
    "e_electronic",
    "n",
    "e_ij_max",
    "weighted_surface_energy_EV_PER_ANG2",
    "weighted_surface_energy",
    "weighted_work_function",
    "surface_anisotropy",
    "shape_factor",
    "has_reconstructed",
    "possible_species",
    "has_props",
    "theoretical",
    "database_IDs"
  ]
}
