{"builder_meta": null, "nsites": null, "elements": null, "nelements": null, "composition": null, "composition_reduced": null, "formula_pretty": "Th5Pb4", "formula_anonymous": "A4B5", "chemsys": null, "volume": 555.3232813918131, "density": 11.895039184961298, "density_atomic": 30.851293410656282, "symmetry": null, "property_name": null, "material_id": "mp-1106365", "deprecated": null, "deprecation_reasons": null, "last_updated": null, "origins": null, "warnings": null, "structure": {"@module": "pymatgen.core.structure", "@class": "Structure", "charge": 0, "lattice": {"matrix": [[0.0, 0.0, -6.62073569], [-4.92065527, -8.52291281, 0.0], [-4.92063252, 8.52289919, -0.0]], "pbc": [true, true, true], "a": 6.62073569, "b": 9.841386642797897, "c": 9.8413634725979, "alpha": 120.0005866636097, "beta": 90.0, "gamma": 90.0, "volume": 555.323281391813}, "properties": {}, "sites": [{"species": [{"element": "Th", "occu": 1}], "abc": [0.499998999999999, 0.33333303000000003, 0.66666505], "properties": {"magmom": 0.0}, "label": "Th", "xyz": [-4.920630655711994, 2.8409506632631953, -3.3103612242643035]}, {"species": [{"element": "Th", "occu": 1}], "abc": [0.5, 0.66666797, 0.33333495], "properties": {"magmom": 0.0}, "label": "Th", "xyz": [-4.920662054943276, -2.840972806176005, -3.310367845]}, {"species": [{"element": "Th", "occu": 1}], "abc": [0.0, 0.66666697, 0.33333495], "properties": {"magmom": 0.0}, "label": "Th", "xyz": [-4.920657134288006, -2.840964283263194, 0.0]}, {"species": [{"element": "Th", "occu": 1}], "abc": [0.0, 0.33333203, 0.66666505], "properties": {"magmom": 0.0}, "label": "Th", "xyz": [-4.920625735056724, 2.8409591861760055, 0.0]}, {"species": [{"element": "Th", "occu": 1}], "abc": [0.749999, 0.28085889, 0.0], "properties": {"magmom": -0.0}, "label": "Th", "xyz": [-1.3820097772048505, -2.3937358313833808, -4.96554514676431]}, {"species": [{"element": "Th", "occu": 1}], "abc": [0.75, 0.71914047, 0.71913993], "properties": {"magmom": -0.0}, "label": "Th", "xyz": [-7.077265669564301, -1.4397058763826465e-05, -4.9655517675]}, {"species": [{"element": "Th", "occu": 1}], "abc": [0.75, 1.539999999999999e-06, 0.28086007], "properties": {"magmom": -0.0}, "label": "Th", "xyz": [-1.3820167718205922, 2.393728937820616, -4.9655517675]}, {"species": [{"element": "Th", "occu": 1}], "abc": [0.249999, 0.71914111, -0.0], "properties": {"magmom": -0.0}, "label": "Th", "xyz": [-3.53864549279515, -6.129176978616619, -1.65517730176431]}, {"species": [{"element": "Th", "occu": 1}], "abc": [0.25, 0.28085953, 0.28086007], "properties": {"magmom": -0.0}, "label": "Th", "xyz": [-2.7640221204357, 7.770587644451155e-07, -1.6551839225]}, {"species": [{"element": "Th", "occu": 1}], "abc": [0.25, 0.99999846, 0.71913993], "properties": {"magmom": -0.0}, "label": "Th", "xyz": [-8.459271018179408, -2.393742557820615, -1.6551839225]}, {"species": [{"element": "Pb", "occu": 1}], "abc": [0.5, 0.0, 0.0], "properties": {"magmom": 0.0}, "label": "Pb", "xyz": [0.0, 0.0, -3.310367845]}, {"species": [{"element": "Pb", "occu": 1}], "abc": [-0.0, 0.0, 0.0], "properties": {"magmom": 0.0}, "label": "Pb", "xyz": [0.0, 0.0, 0.0]}, {"species": [{"element": "Pb", "occu": 1}], "abc": [0.749999, 0.61965614, -0.0], "properties": {"magmom": -0.0}, "label": "Pb", "xyz": [-3.049114250878858, -5.281275253401153, -4.96554514676431]}, {"species": [{"element": "Pb", "occu": 1}], "abc": [0.750000999999999, 0.38034581, 0.38034243], "properties": {"magmom": 0.0}, "label": "Pb", "xyz": [-3.7430759441927424, -3.398770919371685e-05, -4.965558388235683]}, {"species": [{"element": "Pb", "occu": 1}], "abc": [0.750000999999999, 3.39e-06, 0.61965757], "properties": {"magmom": 0.0}, "label": "Pb", "xyz": [-3.0491238712275415, 5.281250108755942, -4.965558388235683]}, {"species": [{"element": "Pb", "occu": 1}], "abc": [0.249999, 0.38034386000000003, 0.0], "properties": {"magmom": -0.0}, "label": "Pb", "xyz": [-1.8715410191211423, -3.2416375565988464, -1.65517730176431]}, {"species": [{"element": "Pb", "occu": 1}], "abc": [0.250001, 0.61965419, 0.61965757], "properties": {"magmom": 0.0}, "label": "Pb", "xyz": [-6.098211845807258, 2.0367709194779593e-05, -1.65519054323569]}, {"species": [{"element": "Pb", "occu": 1}], "abc": [0.250001, -3.39e-06, 0.38034243], "properties": {"magmom": 0.0}, "label": "Pb", "xyz": [-1.8715086487724584, 3.241649081244058, -1.65519054323569]}]}, "task_ids": null, "uncorrected_energy_per_atom": null, "energy_per_atom": -66.33603093555556, "formation_energy_per_atom": -0.5008256922222161, "energy_above_hull": 0.0, "is_stable": true, "equilibrium_reaction_energy_per_atom": null, "decomposes_to": null, "xas": null, "grain_boundaries": null, "band_gap": 0.0, "cbm": null, "vbm": null, "efermi": 7.51730424, "is_gap_direct": null, "is_metal": null, "es_source_calc_id": null, "bandstructure": null, "dos": null, "dos_energy_up": null, "dos_energy_down": null, "is_magnetic": null, "ordering": null, "total_magnetization": 9e-07, "total_magnetization_normalized_vol": null, "total_magnetization_normalized_formula_units": null, "num_magnetic_sites": null, "num_unique_magnetic_sites": null, "types_of_magnetic_species": null, "bulk_modulus": null, "shear_modulus": null, "universal_anisotropy": null, "homogeneous_poisson": null, "e_total": null, "e_ionic": null, "e_electronic": null, "n": null, "e_ij_max": null, "weighted_surface_energy_EV_PER_ANG2": null, "weighted_surface_energy": null, "weighted_work_function": null, "surface_anisotropy": null, "shape_factor": null, "has_reconstructed": null, "possible_species": null, "has_props": null, "theoretical": null, "database_IDs": null, "fields_not_requested": ["builder_meta", "nsites", "elements", "nelements", "composition", "composition_reduced", "chemsys", "symmetry", "property_name", "deprecated", "deprecation_reasons", "last_updated", "origins", "warnings", "task_ids", "uncorrected_energy_per_atom", "equilibrium_reaction_energy_per_atom", "decomposes_to", "xas", "grain_boundaries", "cbm", "vbm", "is_gap_direct", "is_metal", "es_source_calc_id", "bandstructure", "dos", "dos_energy_up", "dos_energy_down", "is_magnetic", "ordering", "total_magnetization_normalized_vol", "total_magnetization_normalized_formula_units", "num_magnetic_sites", "num_unique_magnetic_sites", "types_of_magnetic_species", "bulk_modulus", "shear_modulus", "universal_anisotropy", "homogeneous_poisson", "e_total", "e_ionic", "e_electronic", "n", "e_ij_max", "weighted_surface_energy_EV_PER_ANG2", "weighted_surface_energy", "weighted_work_function", "surface_anisotropy", "shape_factor", "has_reconstructed", "possible_species", "has_props", "theoretical", "database_IDs"]}