{
  "builder_meta": null,
  "nsites": null,
  "elements": null,
  "nelements": null,
  "composition": null,
  "composition_reduced": null,
  "formula_pretty": "Th5Pb3",
  "formula_anonymous": "A3B5",
  "chemsys": null,
  "volume": 518.1779690237673,
  "density": 11.419753746818305,
  "density_atomic": 32.38612306398546,
  "symmetry": null,
  "property_name": null,
  "material_id": "mp-1106281",
  "deprecated": null,
  "deprecation_reasons": null,
  "last_updated": null,
  "origins": null,
  "warnings": null,
  "structure": {
    "@module": "pymatgen.core.structure",
    "@class": "Structure",
    "charge": 0,
    "lattice": {
      "matrix": [
        [0.0, 0.0, -6.578667],
        [-4.768305, -8.258948, 0.0],
        [-4.768672, 8.25916, 0.0]
      ],
      "pbc": [true, true, true],
      "a": 6.578667,
      "b": 9.53661127653471,
      "c": 9.536978376256496,
      "alpha": 119.99873622610511,
      "beta": 90.0,
      "gamma": 90.0,
      "volume": 518.1779690237673
    },
    "properties": {},
    "sites": [
      {
        "species": [{ "element": "Th", "occu": 1 }],
        "abc": [0.499998999999999, 0.333356, 0.666736],
        "properties": { "magmom": 0.011 },
        "label": "Th",
        "xyz": [-4.7689883761719996, 2.7535094322719993, -3.289326921332994]
      },
      {
        "species": [{ "element": "Th", "occu": 1 }],
        "abc": [0.499998999999999, 0.6666200000000001, 0.333264],
        "properties": { "magmom": 0.009000000000000001 },
        "label": "Th",
        "xyz": [-4.767874184508, -2.7530992175200013, -3.289326921332994]
      },
      {
        "species": [{ "element": "Th", "occu": 1 }],
        "abc": [0.999999, 0.666644, 0.333264],
        "properties": { "magmom": 0.01 },
        "label": "Th",
        "xyz": [-4.767988623828, -2.7532974322720007, -6.578660421333]
      },
      {
        "species": [{ "element": "Th", "occu": 1 }],
        "abc": [0.999999, 0.33338, 0.666736],
        "properties": { "magmom": 0.012 },
        "label": "Th",
        "xyz": [-4.769102815491999, 2.753311217519999, -6.578660421333]
      },
      {
        "species": [{ "element": "Th", "occu": 1 }],
        "abc": [0.749996, 0.252415, 0.0],
        "properties": { "magmom": -0.005 },
        "label": "Th",
        "xyz": [-1.203591706575, -2.08468235942, -4.933973935332]
      },
      {
        "species": [{ "element": "Th", "occu": 1 }],
        "abc": [0.750003, 0.747626, 0.747659],
        "properties": { "magmom": -0.005 },
        "label": "Th",
        "xyz": [-7.130249332778, 0.00043104899199875035, -4.934019986001]
      },
      {
        "species": [{ "element": "Th", "occu": 1 }],
        "abc": [0.750003, 0.999968, 0.252341],
        "properties": { "magmom": -0.005 },
        "label": "Th",
        "xyz": [-5.971483875391999, -6.174559020104001, -4.934019986001]
      },
      {
        "species": [{ "element": "Th", "occu": 1 }],
        "abc": [0.249996, 0.7475849999999991, 0.0],
        "properties": { "magmom": -0.005 },
        "label": "Th",
        "xyz": [-3.564713293424995, -6.174265640579993, -1.644640435332]
      },
      {
        "species": [{ "element": "Th", "occu": 1 }],
        "abc": [0.250003, 0.252374, 0.252341],
        "properties": { "magmom": -0.005 },
        "label": "Th",
        "xyz": [-2.4067276672219995, -0.00021904899200020367, -1.644686486001]
      },
      {
        "species": [{ "element": "Th", "occu": 1 }],
        "abc": [0.250003, 3.2000000000000005e-5, 0.747659],
        "properties": { "magmom": -0.005 },
        "label": "Th",
        "xyz": [-3.5654931246079995, 6.174771020103999, -1.644686486001]
      },
      {
        "species": [{ "element": "Pb", "occu": 1 }],
        "abc": [0.749995, 0.612169, 0.0],
        "properties": { "magmom": -0.0 },
        "label": "Pb",
        "xyz": [-2.9190085035449997, -5.055871938211999, -4.933967356665]
      },
      {
        "species": [{ "element": "Pb", "occu": 1 }],
        "abc": [0.750003, 0.387828, 0.387835],
        "properties": { "magmom": -0.0 },
        "label": "Pb",
        "xyz": [-3.69874009666, 0.0001400336559993498, -4.934019986001]
      },
      {
        "species": [{ "element": "Pb", "occu": 1 }],
        "abc": [0.750003, 0.999992, 0.612165],
        "properties": { "magmom": -0.0 },
        "label": "Pb",
        "xyz": [-7.687480948439999, -3.202913247016001, -4.934019986001]
      },
      {
        "species": [{ "element": "Pb", "occu": 1 }],
        "abc": [0.249995, 0.387831, 0.0],
        "properties": { "magmom": -0.0 },
        "label": "Pb",
        "xyz": [-1.8492964964549998, -3.203076061788, -1.644633856665]
      },
      {
        "species": [{ "element": "Pb", "occu": 1 }],
        "abc": [0.250003, 0.612171999999999, 0.612165],
        "properties": { "magmom": -0.0 },
        "label": "Pb",
        "xyz": [-5.838236903339995, 7.196634400763458e-5, -1.644686486001]
      },
      {
        "species": [{ "element": "Pb", "occu": 1 }],
        "abc": [0.250003, 8e-6, 0.387835],
        "properties": { "magmom": -0.0 },
        "label": "Pb",
        "xyz": [-1.8494960515599999, 3.2031252470159997, -1.644686486001]
      }
    ]
  },
  "task_ids": null,
  "uncorrected_energy_per_atom": null,
  "energy_per_atom": -67.40635371640624,
  "formation_energy_per_atom": -0.377389581406248,
  "energy_above_hull": 0.045182096406250004,
  "is_stable": false,
  "equilibrium_reaction_energy_per_atom": null,
  "decomposes_to": null,
  "xas": null,
  "grain_boundaries": null,
  "band_gap": 0.0,
  "cbm": null,
  "vbm": null,
  "efermi": 7.30177013,
  "is_gap_direct": null,
  "is_metal": null,
  "es_source_calc_id": null,
  "bandstructure": null,
  "dos": null,
  "dos_energy_up": null,
  "dos_energy_down": null,
  "is_magnetic": null,
  "ordering": null,
  "total_magnetization": 0.0074078,
  "total_magnetization_normalized_vol": null,
  "total_magnetization_normalized_formula_units": null,
  "num_magnetic_sites": null,
  "num_unique_magnetic_sites": null,
  "types_of_magnetic_species": null,
  "bulk_modulus": null,
  "shear_modulus": null,
  "universal_anisotropy": null,
  "homogeneous_poisson": null,
  "e_total": null,
  "e_ionic": null,
  "e_electronic": null,
  "n": null,
  "e_ij_max": null,
  "weighted_surface_energy_EV_PER_ANG2": null,
  "weighted_surface_energy": null,
  "weighted_work_function": null,
  "surface_anisotropy": null,
  "shape_factor": null,
  "has_reconstructed": null,
  "possible_species": null,
  "has_props": null,
  "theoretical": null,
  "database_IDs": null,
  "fields_not_requested": [
    "builder_meta",
    "nsites",
    "elements",
    "nelements",
    "composition",
    "composition_reduced",
    "chemsys",
    "symmetry",
    "property_name",
    "deprecated",
    "deprecation_reasons",
    "last_updated",
    "origins",
    "warnings",
    "task_ids",
    "uncorrected_energy_per_atom",
    "equilibrium_reaction_energy_per_atom",
    "decomposes_to",
    "xas",
    "grain_boundaries",
    "cbm",
    "vbm",
    "is_gap_direct",
    "is_metal",
    "es_source_calc_id",
    "bandstructure",
    "dos",
    "dos_energy_up",
    "dos_energy_down",
    "is_magnetic",
    "ordering",
    "total_magnetization_normalized_vol",
    "total_magnetization_normalized_formula_units",
    "num_magnetic_sites",
    "num_unique_magnetic_sites",
    "types_of_magnetic_species",
    "bulk_modulus",
    "shear_modulus",
    "universal_anisotropy",
    "homogeneous_poisson",
    "e_total",
    "e_ionic",
    "e_electronic",
    "n",
    "e_ij_max",
    "weighted_surface_energy_EV_PER_ANG2",
    "weighted_surface_energy",
    "weighted_work_function",
    "surface_anisotropy",
    "shape_factor",
    "has_reconstructed",
    "possible_species",
    "has_props",
    "theoretical",
    "database_IDs"
  ]
}
