{
  "builder_meta": null,
  "nsites": null,
  "elements": null,
  "nelements": null,
  "composition": null,
  "composition_reduced": null,
  "formula_pretty": "Th5Sn4",
  "formula_anonymous": "A4B5",
  "chemsys": null,
  "volume": 538.4480883783806,
  "density": 10.084655315246652,
  "density_atomic": 29.91378268768781,
  "symmetry": null,
  "property_name": null,
  "material_id": "mp-30874",
  "deprecated": null,
  "deprecation_reasons": null,
  "last_updated": null,
  "origins": null,
  "warnings": null,
  "structure": {
    "@module": "pymatgen.core.structure",
    "@class": "Structure",
    "charge": 0,
    "lattice": {
      "matrix": [
        [9.72693381, -1.9860000000000003e-5, 1.775e-5],
        [-4.86348396, 8.42376001, -7.309999999999999e-6],
        [1.251e-5, 1.05e-6, 6.5714681200000005]
      ],
      "pbc": [true, true, true],
      "a": 9.72693381003647,
      "b": 9.726932144068135,
      "c": 6.571468120011993,
      "alpha": 90.00008966746196,
      "beta": 89.99978637189514,
      "gamma": 120.00023865215918,
      "volume": 538.4480883783806
    },
    "properties": {},
    "sites": [
      {
        "species": [{ "element": "Th", "occu": 1 }],
        "abc": [0.33333454, 0.66666644, -4.9e-7],
        "properties": { "magmom": 0.0 },
        "label": "Th",
        "xyz": [1.4695503657035413e-6, 5.615831477256585, -2.176662970199999e-6]
      },
      {
        "species": [{ "element": "Th", "occu": 1 }],
        "abc": [0.66666622, 0.33333212, 0.50000046],
        "properties": { "magmom": -0.0 },
        "label": "Th",
        "xyz": [4.863469031335858, 2.8078970675138755, 3.285746479542943]
      },
      {
        "species": [{ "element": "Th", "occu": 1 }],
        "abc": [0.6666652200000001, 0.33333312, -4.599999999999998e-7],
        "properties": { "magmom": -0.0 },
        "label": "Th",
        "xyz": [4.86344818590658, 2.807904966292779, 6.373767212600004e-6]
      },
      {
        "species": [{ "element": "Th", "occu": 1 }],
        "abc": [0.33333354, 0.66666744, 0.49999949],
        "properties": { "magmom": 0.0 },
        "label": "Th",
        "xyz": [-6.865867655350916e-6, 5.615840426036435, 3.2857317518826075]
      },
      {
        "species": [{ "element": "Th", "occu": 1 }],
        "abc": [0.27868672, 4.13e-5, 0.249999],
        "properties": { "magmom": -0.0 },
        "label": "Th",
        "xyz": [2.7105695447659452, 0.0003426290691038, 1.642865404919257]
      },
      {
        "species": [{ "element": "Th", "occu": 1 }],
        "abc": [0.27868705, 0.278644799999999, 0.75],
        "properties": { "magmom": 0.0 },
        "label": "Th",
        "xyz": [1.3555953562167573, 2.347232176009627, 4.92860399980165]
      },
      {
        "species": [{ "element": "Th", "occu": 1 }],
        "abc": [-4.2110000000000015e-5, 0.72131252, 0.750000999999999],
        "properties": { "magmom": -0.0 },
        "label": "Th",
        "xyz": [-3.508492089837408, 6.07616434902568, 4.92860238792614]
      },
      {
        "species": [{ "element": "Th", "occu": 1 }],
        "abc": [-4.2060000000000014e-5, 0.27864447000000003, 0.249999],
        "properties": { "magmom": -0.0 },
        "label": "Th",
        "xyz": [-1.3555888977362598, 2.347234406727907, 1.6428584208942394]
      },
      {
        "species": [{ "element": "Th", "occu": 1 }],
        "abc": [0.72135539, 0.72131248, 0.25],
        "properties": { "magmom": 0.0 },
        "label": "Th",
        "xyz": [3.508487582888916, 6.07614916011988, 1.6428745612639437]
      },
      {
        "species": [{ "element": "Th", "occu": 1 }],
        "abc": [0.72135519, 4.244e-5, 0.750000999999999],
        "properties": { "magmom": 0.0 },
        "label": "Th",
        "xyz": [7.016377162883222, 0.000343965761801, 4.9286204652125]
      },
      {
        "species": [{ "element": "Sn", "occu": 1 }],
        "abc": [3.0000000000000004e-8, 3.899999999999998e-7, -3.7e-7],
        "properties": { "magmom": -0.0 },
        "label": "Sn",
        "xyz": [-1.604955358799999e-6, 3.285265419599999e-6, -2.4314455228e-6]
      },
      {
        "species": [{ "element": "Sn", "occu": 1 }],
        "abc": [3.0000000000000004e-8, 3.899999999999998e-7, 0.50000037],
        "properties": { "magmom": -0.0 },
        "label": "Sn",
        "xyz": [4.650053898600001e-6, 3.8102661965999987e-6, 3.2857364914408858]
      },
      {
        "species": [{ "element": "Sn", "occu": 1 }],
        "abc": [0.61864374, 6.514e-5, 0.250001],
        "properties": { "magmom": -0.0 },
        "label": "Sn",
        "xyz": [6.017193031118206, 0.0005366999634250001, 1.6428845819183315]
      },
      {
        "species": [{ "element": "Sn", "occu": 1 }],
        "abc": [0.61864366, 0.61857892, 0.75],
        "properties": { "magmom": -0.0 },
        "label": "Sn",
        "xyz": [3.0090666598820217, 5.210748870561902, 4.92860754911306]
      },
      {
        "species": [{ "element": "Sn", "occu": 1 }],
        "abc": [-6.484000000000001e-5, 0.38135606, 0.749999],
        "properties": { "magmom": -0.0 },
        "label": "Sn",
        "xyz": [-1.855340392759548, 3.212452716585833, 4.928591729668171]
      },
      {
        "species": [{ "element": "Sn", "occu": 1 }],
        "abc": [-6.317e-5, 0.61858163, 0.250001],
        "properties": { "magmom": 0.0 },
        "label": "Sn",
        "xyz": [-3.0090731583519226, 5.210783461470223, 1.6428690785151372]
      },
      {
        "species": [{ "element": "Sn", "occu": 1 }],
        "abc": [0.38142106000000003, 0.38135626, 0.25],
        "properties": { "magmom": -0.0 },
        "label": "Sn",
        "xyz": [1.8553404783044496, 3.212446300028911, 1.6428710125095545]
      },
      {
        "species": [{ "element": "Sn", "occu": 1 }],
        "abc": [0.3814188, 6.308e-5, 0.749999],
        "properties": { "magmom": -0.0 },
        "label": "Sn",
        "xyz": [3.7097380154089215, 0.0005245833030128, 4.928601288254465]
      }
    ]
  },
  "task_ids": null,
  "uncorrected_energy_per_atom": null,
  "energy_per_atom": -52.48594317,
  "formation_energy_per_atom": -0.6680491844444411,
  "energy_above_hull": 0.0,
  "is_stable": true,
  "equilibrium_reaction_energy_per_atom": null,
  "decomposes_to": null,
  "xas": null,
  "grain_boundaries": null,
  "band_gap": 0.0,
  "cbm": null,
  "vbm": null,
  "efermi": 7.61027084,
  "is_gap_direct": null,
  "is_metal": null,
  "es_source_calc_id": null,
  "bandstructure": null,
  "dos": null,
  "dos_energy_up": null,
  "dos_energy_down": null,
  "is_magnetic": null,
  "ordering": null,
  "total_magnetization": 2e-7,
  "total_magnetization_normalized_vol": null,
  "total_magnetization_normalized_formula_units": null,
  "num_magnetic_sites": null,
  "num_unique_magnetic_sites": null,
  "types_of_magnetic_species": null,
  "bulk_modulus": null,
  "shear_modulus": null,
  "universal_anisotropy": null,
  "homogeneous_poisson": null,
  "e_total": null,
  "e_ionic": null,
  "e_electronic": null,
  "n": null,
  "e_ij_max": null,
  "weighted_surface_energy_EV_PER_ANG2": null,
  "weighted_surface_energy": null,
  "weighted_work_function": null,
  "surface_anisotropy": null,
  "shape_factor": null,
  "has_reconstructed": null,
  "possible_species": null,
  "has_props": null,
  "theoretical": null,
  "database_IDs": null,
  "fields_not_requested": [
    "builder_meta",
    "nsites",
    "elements",
    "nelements",
    "composition",
    "composition_reduced",
    "chemsys",
    "symmetry",
    "property_name",
    "deprecated",
    "deprecation_reasons",
    "last_updated",
    "origins",
    "warnings",
    "task_ids",
    "uncorrected_energy_per_atom",
    "equilibrium_reaction_energy_per_atom",
    "decomposes_to",
    "xas",
    "grain_boundaries",
    "cbm",
    "vbm",
    "is_gap_direct",
    "is_metal",
    "es_source_calc_id",
    "bandstructure",
    "dos",
    "dos_energy_up",
    "dos_energy_down",
    "is_magnetic",
    "ordering",
    "total_magnetization_normalized_vol",
    "total_magnetization_normalized_formula_units",
    "num_magnetic_sites",
    "num_unique_magnetic_sites",
    "types_of_magnetic_species",
    "bulk_modulus",
    "shear_modulus",
    "universal_anisotropy",
    "homogeneous_poisson",
    "e_total",
    "e_ionic",
    "e_electronic",
    "n",
    "e_ij_max",
    "weighted_surface_energy_EV_PER_ANG2",
    "weighted_surface_energy",
    "weighted_work_function",
    "surface_anisotropy",
    "shape_factor",
    "has_reconstructed",
    "possible_species",
    "has_props",
    "theoretical",
    "database_IDs"
  ]
}
