{
  "builder_meta": null,
  "nsites": null,
  "elements": null,
  "nelements": null,
  "composition": null,
  "composition_reduced": null,
  "formula_pretty": "Th5Sn3",
  "formula_anonymous": "A3B5",
  "chemsys": null,
  "volume": 502.05399592613037,
  "density": 10.030431451835726,
  "density_atomic": 31.378374745383148,
  "symmetry": null,
  "property_name": null,
  "material_id": "mp-30873",
  "deprecated": null,
  "deprecation_reasons": null,
  "last_updated": null,
  "origins": null,
  "warnings": null,
  "structure": {
    "@module": "pymatgen.core.structure",
    "@class": "Structure",
    "charge": 0,
    "lattice": {
      "matrix": [
        [9.45500252, 1.029999999999998e-6, 0.0],
        [-4.72750074, 8.18827168, 0.0],
        [0.0, 0.0, 6.48479883]
      ],
      "pbc": [true, true, true],
      "a": 9.455002520000058,
      "b": 9.455001657968683,
      "c": 6.48479883,
      "alpha": 90.0,
      "beta": 90.0,
      "gamma": 119.99999313571732,
      "volume": 502.05399592613037
    },
    "properties": {},
    "sites": [
      {
        "species": [{ "element": "Th", "occu": 1 }],
        "abc": [0.333333999999999, 0.666667, 0.0],
        "properties": { "magmom": -0.0 },
        "label": "Th",
        "xyz": [5.074168090590803e-6, 5.4588508594245795, 0.0]
      },
      {
        "species": [{ "element": "Th", "occu": 1 }],
        "abc": [0.666666, 0.333333, 0.5],
        "properties": { "magmom": -0.0 },
        "label": "Th",
        "xyz": [4.7274967058319, 2.7294218505754198, 3.242399415]
      },
      {
        "species": [{ "element": "Th", "occu": 1 }],
        "abc": [0.666666, 0.333333, 0.0],
        "properties": { "magmom": -0.0 },
        "label": "Th",
        "xyz": [4.7274967058319, 2.7294218505754198, 0.0]
      },
      {
        "species": [{ "element": "Th", "occu": 1 }],
        "abc": [0.333333999999999, 0.666667, 0.5],
        "properties": { "magmom": -0.0 },
        "label": "Th",
        "xyz": [5.074168090590803e-6, 5.4588508594245795, 3.242399415]
      },
      {
        "species": [{ "element": "Th", "occu": 1 }],
        "abc": [0.25479744, -0.0, 0.25],
        "properties": { "magmom": -0.0 },
        "label": "Th",
        "xyz": [2.4091104372895487, 2.624413631999995e-7, 1.6211997075]
      },
      {
        "species": [{ "element": "Th", "occu": 1 }],
        "abc": [0.25479744, 0.25479744, 0.75],
        "properties": { "magmom": -0.0 },
        "label": "Th",
        "xyz": [1.2045553511394431, 2.0863509245298624, 4.8635991225]
      },
      {
        "species": [{ "element": "Th", "occu": 1 }],
        "abc": [0.0, 0.7452025600000001, 0.75],
        "properties": { "magmom": -0.0 },
        "label": "Th",
        "xyz": [-3.5229456538498947, 6.1019210179115015, 4.8635991225]
      },
      {
        "species": [{ "element": "Th", "occu": 1 }],
        "abc": [-0.0, 0.25479744, 0.25],
        "properties": { "magmom": -0.0 },
        "label": "Th",
        "xyz": [-1.2045550861501055, 2.086350662088499, 1.6211997075]
      },
      {
        "species": [{ "element": "Th", "occu": 1 }],
        "abc": [0.7452025600000001, 0.7452025600000001, 0.25],
        "properties": { "magmom": -0.0 },
        "label": "Th",
        "xyz": [3.5229464288605574, 6.101921785470139, 1.6211997075]
      },
      {
        "species": [{ "element": "Th", "occu": 1 }],
        "abc": [0.7452025600000001, 0.0, 0.75],
        "properties": { "magmom": -0.0 },
        "label": "Th",
        "xyz": [7.045892082710452, 7.675586367999985e-7, 4.8635991225]
      },
      {
        "species": [{ "element": "Sn", "occu": 1 }],
        "abc": [0.61411853, 0.0, 0.25],
        "properties": { "magmom": 0.0 },
        "label": "Sn",
        "xyz": [5.806492248728697, 6.325420858999988e-7, 1.6211997075]
      },
      {
        "species": [{ "element": "Sn", "occu": 1 }],
        "abc": [0.61411853, 0.61411853, 0.75],
        "properties": { "magmom": 0.0 },
        "label": "Sn",
        "xyz": [2.903246443705984, 5.028569999904317, 4.8635991225]
      },
      {
        "species": [{ "element": "Sn", "occu": 1 }],
        "abc": [-0.0, 0.38588147, 0.75],
        "properties": { "magmom": 0.0 },
        "label": "Sn",
        "xyz": [-1.8242549349772879, 3.1597023126377697, 4.8635991225]
      },
      {
        "species": [{ "element": "Sn", "occu": 1 }],
        "abc": [0.0, 0.61411853, 0.25],
        "properties": { "magmom": 0.0 },
        "label": "Sn",
        "xyz": [-2.9032458050227126, 5.0285693673622305, 1.6211997075]
      },
      {
        "species": [{ "element": "Sn", "occu": 1 }],
        "abc": [0.38588147, 0.38588147, 0.25],
        "properties": { "magmom": 0.0 },
        "label": "Sn",
        "xyz": [1.824255336294017, 3.159702710095684, 1.6211997075]
      },
      {
        "species": [{ "element": "Sn", "occu": 1 }],
        "abc": [0.38588147, -0.0, 0.75],
        "properties": { "magmom": 0.0 },
        "label": "Sn",
        "xyz": [3.648510271271305, 3.9745791409999924e-7, 4.8635991225]
      }
    ]
  },
  "task_ids": null,
  "uncorrected_energy_per_atom": null,
  "energy_per_atom": -55.7690667075,
  "formation_energy_per_atom": -0.5672089462499981,
  "energy_above_hull": 0.0,
  "is_stable": true,
  "equilibrium_reaction_energy_per_atom": null,
  "decomposes_to": null,
  "xas": null,
  "grain_boundaries": null,
  "band_gap": 0.0,
  "cbm": null,
  "vbm": null,
  "efermi": 7.5408212500000005,
  "is_gap_direct": null,
  "is_metal": null,
  "es_source_calc_id": null,
  "bandstructure": null,
  "dos": null,
  "dos_energy_up": null,
  "dos_energy_down": null,
  "is_magnetic": null,
  "ordering": null,
  "total_magnetization": 1.22e-5,
  "total_magnetization_normalized_vol": null,
  "total_magnetization_normalized_formula_units": null,
  "num_magnetic_sites": null,
  "num_unique_magnetic_sites": null,
  "types_of_magnetic_species": null,
  "bulk_modulus": null,
  "shear_modulus": null,
  "universal_anisotropy": null,
  "homogeneous_poisson": null,
  "e_total": null,
  "e_ionic": null,
  "e_electronic": null,
  "n": null,
  "e_ij_max": null,
  "weighted_surface_energy_EV_PER_ANG2": null,
  "weighted_surface_energy": null,
  "weighted_work_function": null,
  "surface_anisotropy": null,
  "shape_factor": null,
  "has_reconstructed": null,
  "possible_species": null,
  "has_props": null,
  "theoretical": null,
  "database_IDs": null,
  "fields_not_requested": [
    "builder_meta",
    "nsites",
    "elements",
    "nelements",
    "composition",
    "composition_reduced",
    "chemsys",
    "symmetry",
    "property_name",
    "deprecated",
    "deprecation_reasons",
    "last_updated",
    "origins",
    "warnings",
    "task_ids",
    "uncorrected_energy_per_atom",
    "equilibrium_reaction_energy_per_atom",
    "decomposes_to",
    "xas",
    "grain_boundaries",
    "cbm",
    "vbm",
    "is_gap_direct",
    "is_metal",
    "es_source_calc_id",
    "bandstructure",
    "dos",
    "dos_energy_up",
    "dos_energy_down",
    "is_magnetic",
    "ordering",
    "total_magnetization_normalized_vol",
    "total_magnetization_normalized_formula_units",
    "num_magnetic_sites",
    "num_unique_magnetic_sites",
    "types_of_magnetic_species",
    "bulk_modulus",
    "shear_modulus",
    "universal_anisotropy",
    "homogeneous_poisson",
    "e_total",
    "e_ionic",
    "e_electronic",
    "n",
    "e_ij_max",
    "weighted_surface_energy_EV_PER_ANG2",
    "weighted_surface_energy",
    "weighted_work_function",
    "surface_anisotropy",
    "shape_factor",
    "has_reconstructed",
    "possible_species",
    "has_props",
    "theoretical",
    "database_IDs"
  ]
}
