{
  "builder_meta": null,
  "nsites": null,
  "elements": null,
  "nelements": null,
  "composition": null,
  "composition_reduced": null,
  "formula_pretty": "Th5Tl3",
  "formula_anonymous": "A3B5",
  "chemsys": null,
  "volume": 504.3087481942869,
  "density": 11.678166167118718,
  "density_atomic": 31.519296762142933,
  "symmetry": null,
  "property_name": null,
  "material_id": "mp-1208285",
  "deprecated": null,
  "deprecation_reasons": null,
  "last_updated": null,
  "origins": null,
  "warnings": null,
  "structure": {
    "@module": "pymatgen.core.structure",
    "@class": "Structure",
    "charge": 0,
    "lattice": {
      "matrix": [
        [0.0, 0.0, -6.383262],
        [-4.77564, -8.271652, 0.0],
        [-4.77564, 8.271652, 0.0]
      ],
      "pbc": [true, true, true],
      "a": 6.383262,
      "b": 9.55128076326437,
      "c": 9.55128076326437,
      "alpha": 120.00000528695206,
      "beta": 90.0,
      "gamma": 90.0,
      "volume": 504.3087481942869
    },
    "properties": {},
    "sites": [
      {
        "species": [{ "element": "Th", "occu": 1 }],
        "abc": [0.0, 0.666667, 0.333333],
        "properties": { "magmom": 0.151 },
        "label": "Th",
        "xyz": [-4.77564, -2.7572228477680003, 0.0]
      },
      {
        "species": [{ "element": "Th", "occu": 1 }],
        "abc": [0.0, 0.333333, 0.666667],
        "properties": { "magmom": 0.148 },
        "label": "Th",
        "xyz": [-4.77564, 2.7572228477680003, 0.0]
      },
      {
        "species": [{ "element": "Th", "occu": 1 }],
        "abc": [0.5, 0.333333, 0.666667],
        "properties": { "magmom": 0.149 },
        "label": "Th",
        "xyz": [-4.77564, 2.7572228477680003, -3.191631]
      },
      {
        "species": [{ "element": "Th", "occu": 1 }],
        "abc": [0.5, 0.666667, 0.333333],
        "properties": { "magmom": 0.151 },
        "label": "Th",
        "xyz": [-4.77564, -2.7572228477680003, -3.191631]
      },
      {
        "species": [{ "element": "Th", "occu": 1 }],
        "abc": [0.75, 0.757757999999999, 0.757757999999999],
        "properties": { "magmom": 0.032 },
        "label": "Th",
        "xyz": [-7.237558830239991, 0.0, -4.7874465]
      },
      {
        "species": [{ "element": "Th", "occu": 1 }],
        "abc": [0.25, 0.242241999999999, 0.242241999999999],
        "properties": { "magmom": 0.031 },
        "label": "Th",
        "xyz": [-2.3137211697599906, 0.0, -1.5958155]
      },
      {
        "species": [{ "element": "Th", "occu": 1 }],
        "abc": [0.75, 0.0, 0.242241999999999],
        "properties": { "magmom": 0.023 },
        "label": "Th",
        "xyz": [-1.1568605848799953, 2.003741523783992, -4.7874465]
      },
      {
        "species": [{ "element": "Th", "occu": 1 }],
        "abc": [0.25, 0.0, 0.757757999999999],
        "properties": { "magmom": 0.023 },
        "label": "Th",
        "xyz": [-3.6187794151199957, 6.267910476215992, -1.5958155]
      },
      {
        "species": [{ "element": "Th", "occu": 1 }],
        "abc": [0.75, 0.242241999999999, 0.0],
        "properties": { "magmom": 0.03 },
        "label": "Th",
        "xyz": [-1.1568605848799953, -2.003741523783992, -4.7874465]
      },
      {
        "species": [{ "element": "Th", "occu": 1 }],
        "abc": [0.25, 0.757757999999999, 0.0],
        "properties": { "magmom": 0.03 },
        "label": "Th",
        "xyz": [-3.6187794151199957, -6.267910476215992, -1.5958155]
      },
      {
        "species": [{ "element": "Tl", "occu": 1 }],
        "abc": [0.75, 0.389771, 0.389771],
        "properties": { "magmom": 0.002 },
        "label": "Tl",
        "xyz": [-3.7228119568799998, 0.0, -4.7874465]
      },
      {
        "species": [{ "element": "Tl", "occu": 1 }],
        "abc": [0.25, 0.610229, 0.610229],
        "properties": { "magmom": 0.002 },
        "label": "Tl",
        "xyz": [-5.82846804312, 0.0, -1.5958155]
      },
      {
        "species": [{ "element": "Tl", "occu": 1 }],
        "abc": [0.75, 0.0, 0.610229],
        "properties": { "magmom": 0.001 },
        "label": "Tl",
        "xyz": [-2.91423402156, 5.047601928308, -4.7874465]
      },
      {
        "species": [{ "element": "Tl", "occu": 1 }],
        "abc": [0.25, 0.0, 0.389771],
        "properties": { "magmom": 0.001 },
        "label": "Tl",
        "xyz": [-1.8614059784399999, 3.2240500716919995, -1.5958155]
      },
      {
        "species": [{ "element": "Tl", "occu": 1 }],
        "abc": [0.75, 0.610229, 0.0],
        "properties": { "magmom": 0.002 },
        "label": "Tl",
        "xyz": [-2.91423402156, -5.047601928308, -4.7874465]
      },
      {
        "species": [{ "element": "Tl", "occu": 1 }],
        "abc": [0.25, 0.389771, 0.0],
        "properties": { "magmom": 0.002 },
        "label": "Tl",
        "xyz": [-1.8614059784399999, -3.2240500716919995, -1.5958155]
      }
    ]
  },
  "task_ids": null,
  "uncorrected_energy_per_atom": null,
  "energy_per_atom": -65.99862749125,
  "formation_energy_per_atom": -0.13434943000000002,
  "energy_above_hull": 0.059748236874995,
  "is_stable": false,
  "equilibrium_reaction_energy_per_atom": null,
  "decomposes_to": null,
  "xas": null,
  "grain_boundaries": null,
  "band_gap": 0.0,
  "cbm": null,
  "vbm": null,
  "efermi": 7.1177133,
  "is_gap_direct": null,
  "is_metal": null,
  "es_source_calc_id": null,
  "bandstructure": null,
  "dos": null,
  "dos_energy_up": null,
  "dos_energy_down": null,
  "is_magnetic": null,
  "ordering": null,
  "total_magnetization": 1.2753296,
  "total_magnetization_normalized_vol": null,
  "total_magnetization_normalized_formula_units": null,
  "num_magnetic_sites": null,
  "num_unique_magnetic_sites": null,
  "types_of_magnetic_species": null,
  "bulk_modulus": null,
  "shear_modulus": null,
  "universal_anisotropy": null,
  "homogeneous_poisson": null,
  "e_total": null,
  "e_ionic": null,
  "e_electronic": null,
  "n": null,
  "e_ij_max": null,
  "weighted_surface_energy_EV_PER_ANG2": null,
  "weighted_surface_energy": null,
  "weighted_work_function": null,
  "surface_anisotropy": null,
  "shape_factor": null,
  "has_reconstructed": null,
  "possible_species": null,
  "has_props": null,
  "theoretical": null,
  "database_IDs": null,
  "fields_not_requested": [
    "builder_meta",
    "nsites",
    "elements",
    "nelements",
    "composition",
    "composition_reduced",
    "chemsys",
    "symmetry",
    "property_name",
    "deprecated",
    "deprecation_reasons",
    "last_updated",
    "origins",
    "warnings",
    "task_ids",
    "uncorrected_energy_per_atom",
    "equilibrium_reaction_energy_per_atom",
    "decomposes_to",
    "xas",
    "grain_boundaries",
    "cbm",
    "vbm",
    "is_gap_direct",
    "is_metal",
    "es_source_calc_id",
    "bandstructure",
    "dos",
    "dos_energy_up",
    "dos_energy_down",
    "is_magnetic",
    "ordering",
    "total_magnetization_normalized_vol",
    "total_magnetization_normalized_formula_units",
    "num_magnetic_sites",
    "num_unique_magnetic_sites",
    "types_of_magnetic_species",
    "bulk_modulus",
    "shear_modulus",
    "universal_anisotropy",
    "homogeneous_poisson",
    "e_total",
    "e_ionic",
    "e_electronic",
    "n",
    "e_ij_max",
    "weighted_surface_energy_EV_PER_ANG2",
    "weighted_surface_energy",
    "weighted_work_function",
    "surface_anisotropy",
    "shape_factor",
    "has_reconstructed",
    "possible_species",
    "has_props",
    "theoretical",
    "database_IDs"
  ]
}
