{"builder_meta": null, "nsites": null, "elements": null, "nelements": null, "composition": null, "composition_reduced": null, "formula_pretty": "Th6Cd7", "formula_anonymous": "A6B7", "chemsys": null, "volume": 693.0343407647276, "density": 10.442453909353583, "density_atomic": 26.655166952489523, "symmetry": null, "property_name": null, "material_id": "mp-30499", "deprecated": null, "deprecation_reasons": null, "last_updated": null, "origins": null, "warnings": null, "structure": {"@module": "pymatgen.core.structure", "@class": "Structure", "charge": 0, "lattice": {"matrix": [[6.02609668, 0.0, 0.0], [0.0, 9.88648379, -0.0], [0.0, 0.0, 11.63260018]], "pbc": [true, true, true], "a": 6.02609668, "b": 9.88648379, "c": 11.63260018, "alpha": 90.0, "beta": 90.0, "gamma": 90.0, "volume": 693.0343407647276}, "properties": {}, "sites": [{"species": [{"element": "Th", "occu": 1}], "abc": [-0.0, 0.65587013, 0.95653054], "properties": {"magmom": -0.0}, "label": "Th", "xyz": [0.0, 6.484249408590193, 11.126937331779498]}, {"species": [{"element": "Th", "occu": 1}], "abc": [-0.0, 0.34412987, 0.04346946], "properties": {"magmom": -0.0}, "label": "Th", "xyz": [0.0, 3.4022343814098073, 0.5056628482205029]}, {"species": [{"element": "Th", "occu": 1}], "abc": [-0.0, 0.15587013, 0.54346946], "properties": {"magmom": -0.0}, "label": "Th", "xyz": [0.0, 1.5410075135901926, 6.321962938220503]}, {"species": [{"element": "Th", "occu": 1}], "abc": [-0.0, 0.8441298700000001, 0.45653054], "properties": {"magmom": -0.0}, "label": "Th", "xyz": [0.0, 8.345476276409808, 5.310637241779498]}, {"species": [{"element": "Th", "occu": 1}], "abc": [0.5, 0.83061669, 0.912530299999999], "properties": {"magmom": 0.0}, "label": "Th", "xyz": [3.01304834, 8.211878441388455, 10.615100132035444]}, {"species": [{"element": "Th", "occu": 1}], "abc": [0.5, 0.16938331, 0.0874697], "properties": {"magmom": 0.0}, "label": "Th", "xyz": [3.01304834, 1.6746053486115449, 1.017500047964546]}, {"species": [{"element": "Th", "occu": 1}], "abc": [0.5, 0.33061669, 0.5874697], "properties": {"magmom": 0.0}, "label": "Th", "xyz": [3.01304834, 3.268636546388455, 6.8338001379645466]}, {"species": [{"element": "Th", "occu": 1}], "abc": [0.5, 0.6693833100000001, 0.412530299999999], "properties": {"magmom": 0.0}, "label": "Th", "xyz": [3.01304834, 6.617847243611545, 4.798800042035443]}, {"species": [{"element": "Th", "occu": 1}], "abc": [0.5, 0.44740192, 0.87340469], "properties": {"magmom": -0.0}, "label": "Th", "xyz": [3.01304834, 4.423231829694877, 10.159967554106844]}, {"species": [{"element": "Th", "occu": 1}], "abc": [0.5, 0.55259808, 0.12659531000000002], "properties": {"magmom": -0.0}, "label": "Th", "xyz": [3.01304834, 5.463251960305123, 1.4726326258931561]}, {"species": [{"element": "Th", "occu": 1}], "abc": [0.5, 0.94740192, 0.62659531], "properties": {"magmom": -0.0}, "label": "Th", "xyz": [3.01304834, 9.366473724694877, 7.288932715893156]}, {"species": [{"element": "Th", "occu": 1}], "abc": [0.5, 0.05259808, 0.37340469], "properties": {"magmom": -0.0}, "label": "Th", "xyz": [3.01304834, 0.5200100653051232, 4.3436674641068445]}, {"species": [{"element": "Cd", "occu": 1}], "abc": [-0.0, -0.0, 0.0], "properties": {"magmom": 0.0}, "label": "Cd", "xyz": [0.0, 0.0, 0.0]}, {"species": [{"element": "Cd", "occu": 1}], "abc": [-0.0, 0.5, 0.5], "properties": {"magmom": 0.0}, "label": "Cd", "xyz": [0.0, 4.943241895, 5.81630009]}, {"species": [{"element": "Cd", "occu": 1}], "abc": [-0.0, 0.90038038, 0.75298635], "properties": {"magmom": 0.0}, "label": "Cd", "xyz": [0.0, 8.90159603170404, 8.759189150547543]}, {"species": [{"element": "Cd", "occu": 1}], "abc": [-0.0, 0.09961962, 0.24701365], "properties": {"magmom": 0.0}, "label": "Cd", "xyz": [0.0, 0.9848877582959599, 2.8734110294524573]}, {"species": [{"element": "Cd", "occu": 1}], "abc": [-0.0, 0.40038038000000004, 0.74701365], "properties": {"magmom": 0.0}, "label": "Cd", "xyz": [0.0, 3.9583541367040405, 8.689711119452458]}, {"species": [{"element": "Cd", "occu": 1}], "abc": [-0.0, 0.59961962, 0.25298635], "properties": {"magmom": 0.0}, "label": "Cd", "xyz": [0.0, 5.92812965329596, 2.9428890605475435]}, {"species": [{"element": "Cd", "occu": 1}], "abc": [0.7447559300000001, 0.15142215, 0.82042598], "properties": {"magmom": -0.0}, "label": "Cd", "xyz": [4.487971237183313, 1.4970326314219484, 9.543687402624677]}, {"species": [{"element": "Cd", "occu": 1}], "abc": [0.7447559300000001, 0.84857785, 0.17957402], "properties": {"magmom": -0.0}, "label": "Cd", "xyz": [4.487971237183313, 8.389451158578051, 2.0889127773753238]}, {"species": [{"element": "Cd", "occu": 1}], "abc": [0.25524407, 0.65142215, 0.67957402], "properties": {"magmom": -0.0}, "label": "Cd", "xyz": [1.5381254428166875, 6.440274526421948, 7.905212867375324]}, {"species": [{"element": "Cd", "occu": 1}], "abc": [0.25524407, 0.34857785, 0.32042598], "properties": {"magmom": -0.0}, "label": "Cd", "xyz": [1.5381254428166875, 3.4462092635780515, 3.7273873126246766]}, {"species": [{"element": "Cd", "occu": 1}], "abc": [0.25524407, 0.84857785, 0.17957402], "properties": {"magmom": -0.0}, "label": "Cd", "xyz": [1.5381254428166875, 8.389451158578051, 2.0889127773753238]}, {"species": [{"element": "Cd", "occu": 1}], "abc": [0.25524407, 0.15142215, 0.82042598], "properties": {"magmom": -0.0}, "label": "Cd", "xyz": [1.5381254428166875, 1.4970326314219484, 9.543687402624677]}, {"species": [{"element": "Cd", "occu": 1}], "abc": [0.7447559300000001, 0.34857785, 0.32042598], "properties": {"magmom": -0.0}, "label": "Cd", "xyz": [4.487971237183313, 3.4462092635780515, 3.7273873126246766]}, {"species": [{"element": "Cd", "occu": 1}], "abc": [0.7447559300000001, 0.65142215, 0.67957402], "properties": {"magmom": -0.0}, "label": "Cd", "xyz": [4.487971237183313, 6.440274526421948, 7.905212867375324]}]}, "task_ids": null, "uncorrected_energy_per_atom": null, "energy_per_atom": -44.90711026692308, "formation_energy_per_atom": -0.16968821076922602, "energy_above_hull": 0.005403618461535, "is_stable": false, "equilibrium_reaction_energy_per_atom": null, "decomposes_to": null, "xas": null, "grain_boundaries": null, "band_gap": 0.0, "cbm": null, "vbm": null, "efermi": 5.35391023, "is_gap_direct": null, "is_metal": null, "es_source_calc_id": null, "bandstructure": null, "dos": null, "dos_energy_up": null, "dos_energy_down": null, "is_magnetic": null, "ordering": null, "total_magnetization": 0.00040439999999900006, "total_magnetization_normalized_vol": null, "total_magnetization_normalized_formula_units": null, "num_magnetic_sites": null, "num_unique_magnetic_sites": null, "types_of_magnetic_species": null, "bulk_modulus": null, "shear_modulus": null, "universal_anisotropy": null, "homogeneous_poisson": null, "e_total": null, "e_ionic": null, "e_electronic": null, "n": null, "e_ij_max": null, "weighted_surface_energy_EV_PER_ANG2": null, "weighted_surface_energy": null, "weighted_work_function": null, "surface_anisotropy": null, "shape_factor": null, "has_reconstructed": null, "possible_species": null, "has_props": null, "theoretical": null, "database_IDs": null, "fields_not_requested": ["builder_meta", "nsites", "elements", "nelements", "composition", "composition_reduced", "chemsys", "symmetry", "property_name", "deprecated", "deprecation_reasons", "last_updated", "origins", "warnings", "task_ids", "uncorrected_energy_per_atom", "equilibrium_reaction_energy_per_atom", "decomposes_to", "xas", "grain_boundaries", "cbm", "vbm", "is_gap_direct", "is_metal", "es_source_calc_id", "bandstructure", "dos", "dos_energy_up", "dos_energy_down", "is_magnetic", "ordering", "total_magnetization_normalized_vol", "total_magnetization_normalized_formula_units", "num_magnetic_sites", "num_unique_magnetic_sites", "types_of_magnetic_species", "bulk_modulus", "shear_modulus", "universal_anisotropy", "homogeneous_poisson", "e_total", "e_ionic", "e_electronic", "n", "e_ij_max", "weighted_surface_energy_EV_PER_ANG2", "weighted_surface_energy", "weighted_work_function", "surface_anisotropy", "shape_factor", "has_reconstructed", "possible_species", "has_props", "theoretical", "database_IDs"]}