{"builder_meta": null, "nsites": null, "elements": null, "nelements": null, "composition": null, "composition_reduced": null, "formula_pretty": "Th7Co3", "formula_anonymous": "A3B7", "chemsys": null, "volume": 505.98390078325644, "density": 11.821484668575673, "density_atomic": 25.29919503916282, "symmetry": null, "property_name": null, "material_id": "mp-30565", "deprecated": null, "deprecation_reasons": null, "last_updated": null, "origins": null, "warnings": null, "structure": {"@module": "pymatgen.core.structure", "@class": "Structure", "charge": 0, "lattice": {"matrix": [[9.70535916, 1.2920000000000002e-05, -0.0], [-4.85266789, 8.40506857, -0.0], [-0.0, 0.0, 6.20273879]], "pbc": [true, true, true], "a": 9.7053591600086, "b": 9.705336847170164, "c": 6.20273879, "alpha": 90.0, "beta": 90.0, "gamma": 119.99992008917506, "volume": 505.98390078325644}, "properties": {}, "sites": [{"species": [{"element": "Th", "occu": 1}], "abc": [0.33333041, 0.66666571, 0.04758964], "properties": {"magmom": -0.0}, "label": "Th", "xyz": [-1.5936280995720864e-05, 5.603375312446631, 0.2951861060301356]}, {"species": [{"element": "Th", "occu": 1}], "abc": [0.66666959, 0.33333429000000003, 0.54758964], "properties": {"magmom": -0.0}, "label": "Th", "xyz": [4.852707206280997, 2.801706177553368, 3.3965555010301354]}, {"species": [{"element": "Th", "occu": 1}], "abc": [0.12572721, 0.87426452, 0.24684409000000002], "properties": {"magmom": 0.0}, "label": "Th", "xyz": [-3.022287634335519, 7.348254863313689, 1.531109412125251]}, {"species": [{"element": "Th", "occu": 1}], "abc": [0.25145835, 0.12573067, 0.746851399999999], "properties": {"magmom": 0.0}, "label": "Th", "xyz": [1.8303644154338001, 1.0567781515439236, 4.6325241491458]}, {"species": [{"element": "Th", "occu": 1}], "abc": [0.87427279, 0.74853731, 0.74684409], "properties": {"magmom": 0.0}, "label": "Th", "xyz": [4.852728462061281, 6.291518713357792, 4.632478807125251]}, {"species": [{"element": "Th", "occu": 1}], "abc": [0.12572721, 0.25146269, 0.24684409000000002], "properties": {"magmom": 0.0}, "label": "Th", "xyz": [-3.71920612804999e-05, 2.113562776642206, 1.531109412125251]}, {"species": [{"element": "Th", "occu": 1}], "abc": [0.7485416500000001, 0.8742693300000001, 0.2468514], "properties": {"magmom": 0.0}, "label": "Th", "xyz": [3.0223268545662005, 7.348303338456076, 1.531154754145806]}, {"species": [{"element": "Th", "occu": 1}], "abc": [0.87427279, 0.12573548, 0.74684409], "properties": {"magmom": 0.0}, "label": "Th", "xyz": [7.87497890433552, 1.0568266266863104, 4.632478807125251]}, {"species": [{"element": "Th", "occu": 1}], "abc": [0.5442823800000001, 0.45572324000000003, 0.05144602], "properties": {"magmom": 0.0}, "label": "Th", "xyz": [3.0709824488848376, 3.830392113270916, 0.3191062238451158]}, {"species": [{"element": "Th", "occu": 1}], "abc": [0.08855699, 0.5442785, 0.55145154], "properties": {"magmom": -0.0}, "label": "Th", "xyz": [-1.7817254060888366, 4.574699257833055, 3.420509857963236]}, {"species": [{"element": "Th", "occu": 1}], "abc": [0.45571762, 0.91144186, 0.55144602], "properties": {"magmom": 0.0}, "label": "Th", "xyz": [-2.1469983476407606e-05, 7.660737218739991, 3.4204756188451158]}, {"species": [{"element": "Th", "occu": 1}], "abc": [0.5442823800000001, 0.08855814000000001, 0.05144602], "properties": {"magmom": 0.0}, "label": "Th", "xyz": [4.852712739983477, 0.7443442712600095, 0.3191062238451158]}, {"species": [{"element": "Th", "occu": 1}], "abc": [0.91144301, 0.4557215, 0.051451540000000004], "properties": {"magmom": -0.0}, "label": "Th", "xyz": [6.634416676088837, 3.8303822321669436, 0.3191404629632366]}, {"species": [{"element": "Th", "occu": 1}], "abc": [0.45571762, 0.54427676, 0.55144602], "properties": {"magmom": 0.0}, "label": "Th", "xyz": [1.7817088211151626, 4.574689376729084, 3.4204756188451158]}, {"species": [{"element": "Co", "occu": 1}], "abc": [0.81544649, 0.1845569, 0.29584375], "properties": {"magmom": 0.0}, "label": "Co", "xyz": [7.018607718703408, 1.5512239351352837, 1.8350415039040626]}, {"species": [{"element": "Co", "occu": 1}], "abc": [0.6308891600000001, 0.81544408, 0.79584069], "properties": {"magmom": 0.0}, "label": "Co", "xyz": [2.165926584844115, 6.853871558488512, 4.936391918523365]}, {"species": [{"element": "Co", "occu": 1}], "abc": [0.18455351, 0.36910842, 0.7958437500000001], "properties": {"magmom": 0.0}, "label": "Co", "xyz": [-2.4788739820813532e-06, 3.1023839642957083, 4.936410898904063]}, {"species": [{"element": "Co", "occu": 1}], "abc": [0.81544649, 0.63089158, 0.29584375], "properties": {"magmom": 0.0}, "label": "Co", "xyz": [4.852693748873983, 5.30269752570429, 1.8350415039040626]}, {"species": [{"element": "Co", "occu": 1}], "abc": [0.36911084, 0.18455592, 0.29584069], "properties": {"magmom": 0.0}, "label": "Co", "xyz": [2.6867646851558855, 1.5512099315114871, 1.835022523523365]}, {"species": [{"element": "Co", "occu": 1}], "abc": [0.18455351, 0.8154431, 0.7958437500000001], "properties": {"magmom": 0.0}, "label": "Co", "xyz": [-2.1659164487034075, 6.853857554864716, 4.936410898904063]}]}, "task_ids": null, "uncorrected_energy_per_atom": null, "energy_per_atom": -55.555915778, "formation_energy_per_atom": -0.152962933999992, "energy_above_hull": 0.0, "is_stable": true, "equilibrium_reaction_energy_per_atom": null, "decomposes_to": null, "xas": null, "grain_boundaries": null, "band_gap": 0.0, "cbm": null, "vbm": null, "efermi": 7.50453341, "is_gap_direct": null, "is_metal": null, "es_source_calc_id": null, "bandstructure": null, "dos": null, "dos_energy_up": null, "dos_energy_down": null, "is_magnetic": null, "ordering": null, "total_magnetization": 1.6e-06, "total_magnetization_normalized_vol": null, "total_magnetization_normalized_formula_units": null, "num_magnetic_sites": null, "num_unique_magnetic_sites": null, "types_of_magnetic_species": null, "bulk_modulus": null, "shear_modulus": null, "universal_anisotropy": null, "homogeneous_poisson": null, "e_total": null, "e_ionic": null, "e_electronic": null, "n": null, "e_ij_max": null, "weighted_surface_energy_EV_PER_ANG2": null, "weighted_surface_energy": null, "weighted_work_function": null, "surface_anisotropy": null, "shape_factor": null, "has_reconstructed": null, "possible_species": null, "has_props": null, "theoretical": null, "database_IDs": null, "fields_not_requested": ["builder_meta", "nsites", "elements", "nelements", "composition", "composition_reduced", "chemsys", "symmetry", "property_name", "deprecated", "deprecation_reasons", "last_updated", "origins", "warnings", "task_ids", "uncorrected_energy_per_atom", "equilibrium_reaction_energy_per_atom", "decomposes_to", "xas", "grain_boundaries", "cbm", "vbm", "is_gap_direct", "is_metal", "es_source_calc_id", "bandstructure", "dos", "dos_energy_up", "dos_energy_down", "is_magnetic", "ordering", "total_magnetization_normalized_vol", "total_magnetization_normalized_formula_units", "num_magnetic_sites", "num_unique_magnetic_sites", "types_of_magnetic_species", "bulk_modulus", "shear_modulus", "universal_anisotropy", "homogeneous_poisson", "e_total", "e_ionic", "e_electronic", "n", "e_ij_max", "weighted_surface_energy_EV_PER_ANG2", "weighted_surface_energy", "weighted_work_function", "surface_anisotropy", "shape_factor", "has_reconstructed", "possible_species", "has_props", "theoretical", "database_IDs"]}