{
  "builder_meta": null,
  "nsites": null,
  "elements": null,
  "nelements": null,
  "composition": null,
  "composition_reduced": null,
  "formula_pretty": "Th7Fe3",
  "formula_anonymous": "A3B7",
  "chemsys": null,
  "volume": 504.2633744080467,
  "density": 11.800802550818275,
  "density_atomic": 25.213168720402333,
  "symmetry": null,
  "property_name": null,
  "material_id": "mp-18014",
  "deprecated": null,
  "deprecation_reasons": null,
  "last_updated": null,
  "origins": null,
  "warnings": null,
  "structure": {
    "@module": "pymatgen.core.structure",
    "@class": "Structure",
    "charge": 0,
    "lattice": {
      "matrix": [
        [9.62215806, 0.00012555000000000002, 0.0],
        [-4.8109705, 8.33284482, 0.0],
        [-0.0, -0.0, 6.28909816]
      ],
      "pbc": [true, true, true],
      "a": 9.622158060819089,
      "b": 9.621940549913571,
      "c": 6.28909816,
      "alpha": 90.0,
      "beta": 90.0,
      "gamma": 119.99925395155674,
      "volume": 504.2633744080467
    },
    "properties": {},
    "sites": [
      {
        "species": [{ "element": "Th", "occu": 1 }],
        "abc": [0.33335791, 0.6666794500000001, 0.02432502],
        "properties": { "magmom": 0.0 },
        "label": "Th",
        "xyz": [0.0002473336650292701, 5.55537825461855, 0.1529824385239632]
      },
      {
        "species": [{ "element": "Th", "occu": 1 }],
        "abc": [0.66664209, 0.33332055, 0.52432502],
        "properties": { "magmom": 0.0 },
        "label": "Th",
        "xyz": [4.81094022633497, 2.7775921153814505, 3.2975315185239635]
      },
      {
        "species": [{ "element": "Th", "occu": 1 }],
        "abc": [0.124122199999999, 0.87588464, 0.25542934],
        "properties": { "magmom": 0.0 },
        "label": "Th",
        "xyz": [-3.019531737288198, 7.298626368883776, 1.6064201922040144]
      },
      {
        "species": [{ "element": "Th", "occu": 1 }],
        "abc": [0.24826186, 0.12413093, 0.75544691],
        "properties": { "magmom": -0.0 },
        "label": "Th",
        "xyz": [1.7916246148220267, 1.0343949463288056, 4.751079771658685]
      },
      {
        "species": [{ "element": "Th", "occu": 1 }],
        "abc": [0.875877799999999, 0.75176244, 0.7554293400000001],
        "properties": { "magmom": 0.0 },
        "label": "Th",
        "xyz": [4.811127710997039, 6.264429720482352, 4.750969272204014]
      },
      {
        "species": [{ "element": "Th", "occu": 1 }],
        "abc": [0.124122199999999, 0.24823756, 0.25542934],
        "properties": { "magmom": 0.0 },
        "label": "Th",
        "xyz": [5.984900294242479e-5, 2.068540649517649, 1.6064201922040144]
      },
      {
        "species": [{ "element": "Th", "occu": 1 }],
        "abc": [0.75173814, 0.87586907, 0.25544691],
        "properties": { "magmom": -0.0 },
        "label": "Th",
        "xyz": [3.0195629451779737, 7.298575423671195, 1.6065306916586857]
      },
      {
        "species": [{ "element": "Th", "occu": 1 }],
        "abc": [0.875877799999999, 0.12411536000000001, 0.7554293400000001],
        "properties": { "magmom": 0.0 },
        "label": "Th",
        "xyz": [7.830719297288179, 1.0343440011162253, 4.750969272204014]
      },
      {
        "species": [{ "element": "Th", "occu": 1 }],
        "abc": [0.54127309, 0.45873437, 0.059160540000000005],
        "properties": { "magmom": 0.0 },
        "label": "Th",
        "xyz": [3.0012577041985202, 3.822630275646913, 0.37206644325860644]
      },
      {
        "species": [{ "element": "Th", "occu": 1 }],
        "abc": [0.08258102, 0.54129001, 0.5591575400000001],
        "properties": { "magmom": -0.0 },
        "label": "Th",
        "xyz": [-1.8095226428586835, 4.510496023993309, 3.516596655964127]
      },
      {
        "species": [{ "element": "Th", "occu": 1 }],
        "abc": [0.45872691, 0.91746127, 0.55916054],
        "properties": { "magmom": 0.0 },
        "label": "Th",
        "xyz": [6.372953285982419e-5, 7.645119984433672, 3.5166155232586065]
      },
      {
        "species": [{ "element": "Th", "occu": 1 }],
        "abc": [0.54127309, 0.08253873, 0.059160540000000005],
        "properties": { "magmom": 0.0 },
        "label": "Th",
        "xyz": [4.811123830467141, 0.687850385566328, 0.37206644325860644]
      },
      {
        "species": [{ "element": "Th", "occu": 1 }],
        "abc": [0.91741898, 0.45870999, 0.05915754],
        "properties": { "magmom": -0.0 },
        "label": "Th",
        "xyz": [6.620710202858685, 3.822474346006691, 0.3720475759641264]
      },
      {
        "species": [{ "element": "Th", "occu": 1 }],
        "abc": [0.45872691, 0.54126563, 0.55916054],
        "properties": { "magmom": 0.0 },
        "label": "Th",
        "xyz": [1.8099298558014798, 4.510340094353087, 3.5166155232586065]
      },
      {
        "species": [{ "element": "Fe", "occu": 1 }],
        "abc": [0.8163976900000001, 0.18360143, 0.28730093],
        "properties": { "magmom": 0.0 },
        "label": "Fe",
        "xyz": [6.972206549511067, 1.5300247236500724, 1.8068637502292888]
      },
      {
        "species": [{ "element": "Fe", "occu": 1 }],
        "abc": [0.63277826, 0.81638963, 0.7872909100000001],
        "properties": { "magmom": -0.0 },
        "label": "Fe",
        "xyz": [2.1610660082158613, 6.802927544757759, 4.951349813465726]
      },
      {
        "species": [{ "element": "Fe", "occu": 1 }],
        "abc": [0.18360231, 0.36720474000000003, 0.78730093],
        "properties": { "magmom": 0.0 },
        "label": "Fe",
        "xyz": [3.9275400948612926e-5, 3.0598831668584676, 4.951412830229289]
      },
      {
        "species": [{ "element": "Fe", "occu": 1 }],
        "abc": [0.8163976900000001, 0.63279526, 0.28730093],
        "properties": { "magmom": 0.0 },
        "label": "Fe",
        "xyz": [4.811148284599053, 5.273087203141532, 1.8068637502292888]
      },
      {
        "species": [{ "element": "Fe", "occu": 1 }],
        "abc": [0.36722174, 0.18361037, 0.28729091],
        "properties": { "magmom": -0.0 },
        "label": "Fe",
        "xyz": [2.6501215517841397, 1.5300428252422404, 1.8068007334657257]
      },
      {
        "species": [{ "element": "Fe", "occu": 1 }],
        "abc": [0.18360231, 0.81639857, 0.78730093],
        "properties": { "magmom": 0.0 },
        "label": "Fe",
        "xyz": [-2.1610189895110663, 6.8029456463499285, 4.951412830229289]
      }
    ]
  },
  "task_ids": null,
  "uncorrected_energy_per_atom": null,
  "energy_per_atom": -7.854135337499997,
  "formation_energy_per_atom": -0.123428199499994,
  "energy_above_hull": 0.0,
  "is_stable": true,
  "equilibrium_reaction_energy_per_atom": null,
  "decomposes_to": null,
  "xas": null,
  "grain_boundaries": null,
  "band_gap": 0.0,
  "cbm": null,
  "vbm": null,
  "efermi": 7.55764387,
  "is_gap_direct": null,
  "is_metal": null,
  "es_source_calc_id": null,
  "bandstructure": null,
  "dos": null,
  "dos_energy_up": null,
  "dos_energy_down": null,
  "is_magnetic": null,
  "ordering": null,
  "total_magnetization": 1.3e-6,
  "total_magnetization_normalized_vol": null,
  "total_magnetization_normalized_formula_units": null,
  "num_magnetic_sites": null,
  "num_unique_magnetic_sites": null,
  "types_of_magnetic_species": null,
  "bulk_modulus": null,
  "shear_modulus": null,
  "universal_anisotropy": null,
  "homogeneous_poisson": null,
  "e_total": null,
  "e_ionic": null,
  "e_electronic": null,
  "n": null,
  "e_ij_max": null,
  "weighted_surface_energy_EV_PER_ANG2": null,
  "weighted_surface_energy": null,
  "weighted_work_function": null,
  "surface_anisotropy": null,
  "shape_factor": null,
  "has_reconstructed": null,
  "possible_species": null,
  "has_props": null,
  "theoretical": null,
  "database_IDs": null,
  "fields_not_requested": [
    "builder_meta",
    "nsites",
    "elements",
    "nelements",
    "composition",
    "composition_reduced",
    "chemsys",
    "symmetry",
    "property_name",
    "deprecated",
    "deprecation_reasons",
    "last_updated",
    "origins",
    "warnings",
    "task_ids",
    "uncorrected_energy_per_atom",
    "equilibrium_reaction_energy_per_atom",
    "decomposes_to",
    "xas",
    "grain_boundaries",
    "cbm",
    "vbm",
    "is_gap_direct",
    "is_metal",
    "es_source_calc_id",
    "bandstructure",
    "dos",
    "dos_energy_up",
    "dos_energy_down",
    "is_magnetic",
    "ordering",
    "total_magnetization_normalized_vol",
    "total_magnetization_normalized_formula_units",
    "num_magnetic_sites",
    "num_unique_magnetic_sites",
    "types_of_magnetic_species",
    "bulk_modulus",
    "shear_modulus",
    "universal_anisotropy",
    "homogeneous_poisson",
    "e_total",
    "e_ionic",
    "e_electronic",
    "n",
    "e_ij_max",
    "weighted_surface_energy_EV_PER_ANG2",
    "weighted_surface_energy",
    "weighted_work_function",
    "surface_anisotropy",
    "shape_factor",
    "has_reconstructed",
    "possible_species",
    "has_props",
    "theoretical",
    "database_IDs"
  ]
}
