{"builder_meta": null, "nsites": null, "elements": null, "nelements": null, "composition": null, "composition_reduced": null, "formula_pretty": "Th7Ir3", "formula_anonymous": "A3B7", "chemsys": null, "volume": 555.4999910326801, "density": 13.158269729136585, "density_atomic": 27.774999551634004, "symmetry": null, "property_name": null, "material_id": "mp-571094", "deprecated": null, "deprecation_reasons": null, "last_updated": null, "origins": null, "warnings": null, "structure": {"@module": "pymatgen.core.structure", "@class": "Structure", "charge": 0, "lattice": {"matrix": [[10.065983, -1e-08, 0.0], [-5.03299252, 8.71739773, -0.0], [-0.0, -0.0, 6.33054358]], "pbc": [true, true, true], "a": 10.065983, "b": 10.065984149072811, "c": 6.33054358, "alpha": 90.0, "beta": 90.0, "gamma": 120.00000298476454, "volume": 555.4999910326801}, "properties": {}, "sites": [{"species": [{"element": "Th", "occu": 1}], "abc": [0.45777063, 0.54222937, 0.29527688], "properties": {"magmom": -0.0}, "label": "Th", "xyz": [1.8788750161449772, 4.726829074599625, 1.8692631570064304]}, {"species": [{"element": "Th", "occu": 1}], "abc": [0.08445573, 0.54222937, 0.29527688], "properties": {"magmom": -0.0}, "label": "Th", "xyz": [-1.878906420901722, 4.7268290783327735, 1.8692631570064304]}, {"species": [{"element": "Th", "occu": 1}], "abc": [0.91554427, 0.45777063, 0.79527688], "properties": {"magmom": -0.0}, "label": "Th", "xyz": [6.911896900901722, 3.9905686416672275, 5.03453494700643]}, {"species": [{"element": "Th", "occu": 1}], "abc": [0.25583184000000003, 0.12791542, 0.49852219000000003], "properties": {"magmom": -0.0}, "label": "Th", "xyz": [1.931401600246062, 1.1150895893816781, 3.1559164493920404]}, {"species": [{"element": "Th", "occu": 1}], "abc": [0.54222937, 0.08445573, 0.79527688], "properties": {"magmom": -0.0}, "label": "Th", "xyz": [5.03300656315957, 0.7362341835651992, 5.03453494700643]}, {"species": [{"element": "Th", "occu": 1}], "abc": [0.74416816, 0.87208458, -0.00147781], "properties": {"magmom": -0.0}, "label": "Th", "xyz": [3.1015888797539377, 7.602308130618321, -0.009355340607959799]}, {"species": [{"element": "Th", "occu": 1}], "abc": [0.666667, 0.333333, 0.30428371], "properties": {"magmom": -0.0}, "label": "Th", "xyz": [5.03299619299184, 2.90579633086742, 1.9262812868390815]}, {"species": [{"element": "Th", "occu": 1}], "abc": [0.12791542, 0.87208458, -0.00147781], "properties": {"magmom": -0.0}, "label": "Th", "xyz": [-3.1016007247894812, 7.602308136780849, -0.009355340607959799]}, {"species": [{"element": "Th", "occu": 1}], "abc": [0.45777063, 0.91554427, 0.29527688], "properties": {"magmom": -0.0}, "label": "Th", "xyz": [-1.6083159571245176e-05, 7.981163536434801, 1.8692631570064304]}, {"species": [{"element": "Th", "occu": 1}], "abc": [0.54222937, 0.45777063, 0.79527688], "properties": {"magmom": -0.0}, "label": "Th", "xyz": [3.1541154638550224, 3.9905686454003764, 5.03453494700643]}, {"species": [{"element": "Th", "occu": 1}], "abc": [0.87208458, 0.12791542, 0.49852219000000003], "properties": {"magmom": -0.0}, "label": "Th", "xyz": [8.134591204789482, 1.1150895832191507, 3.1559164493920404]}, {"species": [{"element": "Th", "occu": 1}], "abc": [0.12791542, 0.25583184000000003, -0.00147781], "properties": {"magmom": -0.0}, "label": "Th", "xyz": [-5.29393997705796e-06, 2.2301878999985694, -0.009355340607959799]}, {"species": [{"element": "Th", "occu": 1}], "abc": [0.87208458, 0.74416816, 0.49852219000000003], "properties": {"magmom": -0.0}, "label": "Th", "xyz": [5.032995773939977, 6.487209820001431, 3.1559164493920404]}, {"species": [{"element": "Th", "occu": 1}], "abc": [0.333333, 0.666667, 0.80428371], "properties": {"magmom": -0.0}, "label": "Th", "xyz": [-5.7129918404896785e-06, 5.81160138913258, 5.091553076839081]}, {"species": [{"element": "Ir", "occu": 1}], "abc": [0.81287308, 0.62574616, 0.05210569], "properties": {"magmom": -0.0}, "label": "Ir", "xyz": [5.0329908617389165, 5.454878146611486, 0.3298573413109702]}, {"species": [{"element": "Ir", "occu": 1}], "abc": [0.81287308, 0.18712692, 0.05210569], "properties": {"magmom": -0.0}, "label": "Ir", "xyz": [7.240558215787001, 1.6312597795011607, 0.3298573413109702]}, {"species": [{"element": "Ir", "occu": 1}], "abc": [0.62574616, 0.81287308, 0.55210569], "properties": {"magmom": -0.0}, "label": "Ir", "xyz": [2.207566077525918, 7.086137936112648, 3.49512913131097]}, {"species": [{"element": "Ir", "occu": 1}], "abc": [0.37425384, 0.18712692, 0.05210569], "properties": {"magmom": -0.0}, "label": "Ir", "xyz": [2.8254244024740816, 1.631259783887353, 0.3298573413109702]}, {"species": [{"element": "Ir", "occu": 1}], "abc": [0.18712692, 0.37425384, 0.55210569], "properties": {"magmom": -0.0}, "label": "Ir", "xyz": [-3.817389166993479e-07, 3.2625195733885137, 3.49512913131097]}, {"species": [{"element": "Ir", "occu": 1}], "abc": [0.18712692, 0.81287308, 0.55210569], "properties": {"magmom": -0.0}, "label": "Ir", "xyz": [-2.207567735787002, 7.08613794049884, 3.49512913131097]}]}, "task_ids": null, "uncorrected_energy_per_atom": null, "energy_per_atom": -67.8692009965, "formation_energy_per_atom": -0.728711456500002, "energy_above_hull": 0.0, "is_stable": true, "equilibrium_reaction_energy_per_atom": null, "decomposes_to": null, "xas": null, "grain_boundaries": null, "band_gap": 0.0, "cbm": null, "vbm": null, "efermi": 7.70600082, "is_gap_direct": null, "is_metal": null, "es_source_calc_id": null, "bandstructure": null, "dos": null, "dos_energy_up": null, "dos_energy_down": null, "is_magnetic": null, "ordering": null, "total_magnetization": 7e-07, "total_magnetization_normalized_vol": null, "total_magnetization_normalized_formula_units": null, "num_magnetic_sites": null, "num_unique_magnetic_sites": null, "types_of_magnetic_species": null, "bulk_modulus": null, "shear_modulus": null, "universal_anisotropy": null, "homogeneous_poisson": null, "e_total": null, "e_ionic": null, "e_electronic": null, "n": null, "e_ij_max": null, "weighted_surface_energy_EV_PER_ANG2": null, "weighted_surface_energy": null, "weighted_work_function": null, "surface_anisotropy": null, "shape_factor": null, "has_reconstructed": null, "possible_species": null, "has_props": null, "theoretical": null, "database_IDs": null, "fields_not_requested": ["builder_meta", "nsites", "elements", "nelements", "composition", "composition_reduced", "chemsys", "symmetry", "property_name", "deprecated", "deprecation_reasons", "last_updated", "origins", "warnings", "task_ids", "uncorrected_energy_per_atom", "equilibrium_reaction_energy_per_atom", "decomposes_to", "xas", "grain_boundaries", "cbm", "vbm", "is_gap_direct", "is_metal", "es_source_calc_id", "bandstructure", "dos", "dos_energy_up", "dos_energy_down", "is_magnetic", "ordering", "total_magnetization_normalized_vol", "total_magnetization_normalized_formula_units", "num_magnetic_sites", "num_unique_magnetic_sites", "types_of_magnetic_species", "bulk_modulus", "shear_modulus", "universal_anisotropy", "homogeneous_poisson", "e_total", "e_ionic", "e_electronic", "n", "e_ij_max", "weighted_surface_energy_EV_PER_ANG2", "weighted_surface_energy", "weighted_work_function", "surface_anisotropy", "shape_factor", "has_reconstructed", "possible_species", "has_props", "theoretical", "database_IDs"]}