{"builder_meta": null, "nsites": null, "elements": null, "nelements": null, "composition": null, "composition_reduced": null, "formula_pretty": "Th7Ni3", "formula_anonymous": "A3B7", "chemsys": null, "volume": 518.1403913450447, "density": 11.539520739430017, "density_atomic": 25.907019567252235, "symmetry": null, "property_name": null, "material_id": "mp-30809", "deprecated": null, "deprecation_reasons": null, "last_updated": null, "origins": null, "warnings": null, "structure": {"@module": "pymatgen.core.structure", "@class": "Structure", "charge": 0, "lattice": {"matrix": [[9.81260129, 0.00017994000000000002, 8.419999999999996e-06], [-4.9061445500000005, 8.49804793, 2.33e-06], [5.74e-06, 3.39e-06, 6.21354606]], "pbc": [true, true, true], "a": 9.81260129165345, "b": 9.812597666575218, "c": 6.2135460600035755, "alpha": 89.99998578701913, "beta": 89.99989790588616, "gamma": 119.9979091116995, "volume": 518.1403913450448}, "properties": {}, "sites": [{"species": [{"element": "Th", "occu": 1}], "abc": [0.33333304, 0.66666455, 0.07119557], "properties": {"magmom": 0.0}, "label": "Th", "xyz": [0.00011197830549082937, 5.6654075204320815, 0.4423813134555525]}, {"species": [{"element": "Th", "occu": 1}], "abc": [0.6666658, 0.33333228, 0.57119622], "properties": {"magmom": -0.0}, "label": "Th", "xyz": [4.90635261888411, 2.832795588255418, 3.5491604122581415]}, {"species": [{"element": "Th", "occu": 1}], "abc": [0.12705674, 0.87294582, 0.24068552000000001], "properties": {"magmom": -0.0}, "label": "Th", "xyz": [-3.036039864876202, 7.418359097166861, 1.4955136682765626]}, {"species": [{"element": "Th", "occu": 1}], "abc": [0.25410865, 0.12705667, 0.74068766], "properties": {"magmom": 0.0}, "label": "Th", "xyz": [1.870112729275678, 1.0797819067278416, 4.602299327120494]}, {"species": [{"element": "Th", "occu": 1}], "abc": [0.87294543, 0.74589444, 0.74068772], "properties": {"magmom": 0.0}, "label": "Th", "xyz": [4.906403762383815, 6.338806290572554, 4.602306352430949]}, {"species": [{"element": "Th", "occu": 1}], "abc": [0.12705718, 0.25411053, 0.24068698], "properties": {"magmom": -0.0}, "label": "Th", "xyz": [5.983805791583995e-05, 2.1594671420555343, 1.495521298171289]}, {"species": [{"element": "Th", "occu": 1}], "abc": [0.745889799999999, 0.87294452, 0.24068608], "properties": {"magmom": 0.0}, "label": "Th", "xyz": [3.036328595965565, 7.418459402527267, 1.4955223584336923]}, {"species": [{"element": "Th", "occu": 1}], "abc": [0.87294728, 0.12705397000000002, 0.7406879], "properties": {"magmom": 0.0}, "label": "Th", "xyz": [7.942542714907175, 1.0798703158223264, 4.602306028986521]}, {"species": [{"element": "Th", "occu": 1}], "abc": [0.54451115, 0.45548517, 0.0400999], "properties": {"magmom": 0.0}, "label": "Th", "xyz": [3.1083949586814867, 3.8708329213391903, 0.2491682217157231]}, {"species": [{"element": "Th", "occu": 1}], "abc": [0.08903461, 0.544515, 0.54010468], "properties": {"magmom": -0.0}, "label": "Th", "xyz": [-1.7978050705017403, 4.627332420446538, 3.3559673247929265]}, {"species": [{"element": "Th", "occu": 1}], "abc": [0.45548379, 0.9109670400000001, 0.5401021500000001], "properties": {"magmom": 0.0}, "label": "Th", "xyz": [0.00014794698879729988, 7.74152535926969, 3.3559555438567443]}, {"species": [{"element": "Th", "occu": 1}], "abc": [0.54451415, 0.08902767, 0.04010098], "properties": {"magmom": -0.0}, "label": "Th", "xyz": [4.9063178629231805, 0.7566595225746964, 0.2491740785247529]}, {"species": [{"element": "Th", "occu": 1}], "abc": [0.91097406, 0.45548462, 0.04010024], "properties": {"magmom": 0.0}, "label": "Th", "xyz": [6.704352080466094, 3.8708941887500066, 0.2491734199378042]}, {"species": [{"element": "Th", "occu": 1}], "abc": [0.45548064, 0.54451564, 0.54010448], "properties": {"magmom": 0.0}, "label": "Th", "xyz": [1.7979805762579786, 4.627403797495174, 3.3559691675607786]}, {"species": [{"element": "Ni", "occu": 1}], "abc": [0.81431363, 0.18567717, 0.30547845], "properties": {"magmom": -0.0}, "label": "Ni", "xyz": [7.079577693993962, 1.5780410533332858, 1.8981117085609778]}, {"species": [{"element": "Ni", "occu": 1}], "abc": [0.6286381600000001, 0.81431827, 0.8054806], "properties": {"magmom": -0.0}, "label": "Ni", "xyz": [2.1734171008919416, 6.920231536464426, 5.004897999031312]}, {"species": [{"element": "Ni", "occu": 1}], "abc": [0.18568229, 0.37137061, 0.80548204], "properties": {"magmom": -0.0}, "label": "Ni", "xyz": [3.300756938800706e-05, 3.1559613858287157, 5.004902184781166]}, {"species": [{"element": "Ni", "occu": 1}], "abc": [0.81431686, 0.62863786, 0.30547868], "properties": {"magmom": 0.0}, "label": "Ni", "xyz": [4.90638021358971, 5.342342228641144, 1.8981141698021757]}, {"species": [{"element": "Ni", "occu": 1}], "abc": [0.371371299999999, 0.185682699999999, 0.30547865], "properties": {"magmom": 0.0}, "label": "Ni", "xyz": [2.733134084262138, 1.578008344496148, 1.898109221708656]}, {"species": [{"element": "Ni", "occu": 1}], "abc": [0.18567743, 0.81431449, 0.80547949], "properties": {"magmom": 0.0}, "label": "Ni", "xyz": [-2.1731613845053728, 6.920119707485732, 5.004887372257031]}]}, "task_ids": null, "uncorrected_energy_per_atom": null, "energy_per_atom": -7.201828216000001, "formation_energy_per_atom": -0.278086436999998, "energy_above_hull": 0.0, "is_stable": true, "equilibrium_reaction_energy_per_atom": null, "decomposes_to": null, "xas": null, "grain_boundaries": null, "band_gap": 0.0, "cbm": null, "vbm": null, "efermi": 7.70144547, "is_gap_direct": null, "is_metal": null, "es_source_calc_id": null, "bandstructure": null, "dos": null, "dos_energy_up": null, "dos_energy_down": null, "is_magnetic": null, "ordering": null, "total_magnetization": 0.0, "total_magnetization_normalized_vol": null, "total_magnetization_normalized_formula_units": null, "num_magnetic_sites": null, "num_unique_magnetic_sites": null, "types_of_magnetic_species": null, "bulk_modulus": null, "shear_modulus": null, "universal_anisotropy": null, "homogeneous_poisson": null, "e_total": null, "e_ionic": null, "e_electronic": null, "n": null, "e_ij_max": null, "weighted_surface_energy_EV_PER_ANG2": null, "weighted_surface_energy": null, "weighted_work_function": null, "surface_anisotropy": null, "shape_factor": null, "has_reconstructed": null, "possible_species": null, "has_props": null, "theoretical": null, "database_IDs": null, "fields_not_requested": ["builder_meta", "nsites", "elements", "nelements", "composition", "composition_reduced", "chemsys", "symmetry", "property_name", "deprecated", "deprecation_reasons", "last_updated", "origins", "warnings", "task_ids", "uncorrected_energy_per_atom", "equilibrium_reaction_energy_per_atom", "decomposes_to", "xas", "grain_boundaries", "cbm", "vbm", "is_gap_direct", "is_metal", "es_source_calc_id", "bandstructure", "dos", "dos_energy_up", "dos_energy_down", "is_magnetic", "ordering", "total_magnetization_normalized_vol", "total_magnetization_normalized_formula_units", "num_magnetic_sites", "num_unique_magnetic_sites", "types_of_magnetic_species", "bulk_modulus", "shear_modulus", "universal_anisotropy", "homogeneous_poisson", "e_total", "e_ionic", "e_electronic", "n", "e_ij_max", "weighted_surface_energy_EV_PER_ANG2", "weighted_surface_energy", "weighted_work_function", "surface_anisotropy", "shape_factor", "has_reconstructed", "possible_species", "has_props", "theoretical", "database_IDs"]}