{
  "builder_meta": null,
  "nsites": null,
  "elements": null,
  "nelements": null,
  "composition": null,
  "composition_reduced": null,
  "formula_pretty": "Th7Os3",
  "formula_anonymous": "A3B7",
  "chemsys": null,
  "volume": 553.0845959679338,
  "density": 13.179939963852448,
  "density_atomic": 27.654229798396692,
  "symmetry": null,
  "property_name": null,
  "material_id": "mp-569819",
  "deprecated": null,
  "deprecation_reasons": null,
  "last_updated": null,
  "origins": null,
  "warnings": null,
  "structure": {
    "@module": "pymatgen.core.structure",
    "@class": "Structure",
    "charge": 0,
    "lattice": {
      "matrix": [
        [10.00461563, -1e-8, 0.0],
        [-5.00230883, 8.66425177, 0.0],
        [-0.0, -0.0, 6.38057902]
      ],
      "pbc": [true, true, true],
      "a": 10.00461563,
      "b": 10.004616552604308,
      "c": 6.38057902,
      "alpha": 90.0,
      "beta": 90.0,
      "gamma": 120.00000371881448,
      "volume": 553.0845959679338
    },
    "properties": {},
    "sites": [
      {
        "species": [{ "element": "Th", "occu": 1 }],
        "abc": [0.46116159, 0.53883841, 0.30171176],
        "properties": { "magmom": -0.0 },
        "label": "Th",
        "xyz": [1.9183083149834914, 4.668631642974869, 1.925095725943275]
      },
      {
        "species": [{ "element": "Th", "occu": 1 }],
        "abc": [0.07767581, 0.53883841, 0.30171176],
        "properties": { "magmom": -0.0 },
        "label": "Th",
        "xyz": [-1.91831951348725, 4.668631646809727, 1.925095725943275]
      },
      {
        "species": [{ "element": "Th", "occu": 1 }],
        "abc": [0.92232419, 0.46116159, 0.80171176],
        "properties": { "magmom": -0.0 },
        "label": "Th",
        "xyz": [6.92062631348725, 3.9956201131902724, 5.115385235943275]
      },
      {
        "species": [{ "element": "Th", "occu": 1 }],
        "abc": [0.25216238, 0.12608119, 0.5052563],
        "properties": { "magmom": -0.0 },
        "label": "Th",
        "xyz": [1.8920906382120917, 1.0923991710995826, 3.223827747502826]
      },
      {
        "species": [{ "element": "Th", "occu": 1 }],
        "abc": [0.53883841, 0.07767581, 0.80171176],
        "properties": { "magmom": -0.0 },
        "label": "Th",
        "xyz": [5.002312788489946, 0.6730027688902996, 5.115385235943275]
      },
      {
        "species": [{ "element": "Th", "occu": 1 }],
        "abc": [0.74783762, 0.87391881, 0.005256299999999],
        "properties": { "magmom": -0.0 },
        "label": "Th",
        "xyz": [3.110216161787908, 7.571852588900418, 0.03353823750281962]
      },
      {
        "species": [{ "element": "Th", "occu": 1 }],
        "abc": [0.666667, 0.333333, 0.280465199999999],
        "properties": { "magmom": -0.0 },
        "label": "Th",
        "xyz": [5.002312478974821, 2.88808102858274, 1.7895303709600978]
      },
      {
        "species": [{ "element": "Th", "occu": 1 }],
        "abc": [0.12608119, 0.87391881, 0.005256299999999],
        "properties": { "magmom": -0.0 },
        "label": "Th",
        "xyz": [-3.1102179358430924, 7.571852595117982, 0.03353823750281962]
      },
      {
        "species": [{ "element": "Th", "occu": 1 }],
        "abc": [0.46116159, 0.92232419, 0.30171176],
        "properties": { "magmom": -0.0 },
        "label": "Th",
        "xyz": [-5.9884899457074425e-6, 7.9912489911097, 1.925095725943275]
      },
      {
        "species": [{ "element": "Th", "occu": 1 }],
        "abc": [0.53883841, 0.46116159, 0.80171176],
        "properties": { "magmom": -0.0 },
        "label": "Th",
        "xyz": [3.083998485016509, 3.99562011702513, 5.115385235943275]
      },
      {
        "species": [{ "element": "Th", "occu": 1 }],
        "abc": [0.87391881, 0.12608119, 0.5052563],
        "properties": { "magmom": -0.0 },
        "label": "Th",
        "xyz": [8.112524735843094, 1.0923991648820184, 3.223827747502826]
      },
      {
        "species": [{ "element": "Th", "occu": 1 }],
        "abc": [0.12608119, 0.25216238, 0.005256299999999],
        "properties": { "magmom": -0.0 },
        "label": "Th",
        "xyz": [-2.559448157857247e-7, 2.184798345981601, 0.03353823750281962]
      },
      {
        "species": [{ "element": "Th", "occu": 1 }],
        "abc": [0.87391881, 0.74783762, 0.5052563],
        "properties": { "magmom": -0.0 },
        "label": "Th",
        "xyz": [5.002307055944817, 6.4794534140183995, 3.223827747502826]
      },
      {
        "species": [{ "element": "Th", "occu": 1 }],
        "abc": [0.333333, 0.666667, 0.7804652],
        "properties": { "magmom": -0.0 },
        "label": "Th",
        "xyz": [-5.678974819733895e-6, 5.77617073141726, 4.979819880960104]
      },
      {
        "species": [{ "element": "Os", "occu": 1 }],
        "abc": [0.81325117, 0.62650334, 0.04687488],
        "properties": { "magmom": 0.0 },
        "label": "Os",
        "xyz": [5.002302176791295, 5.4281826643733995, 0.2990888758930176]
      },
      {
        "species": [{ "element": "Os", "occu": 1 }],
        "abc": [0.81325117, 0.18674883, 0.04687488],
        "properties": { "magmom": 0.0 },
        "label": "Os",
        "xyz": [7.202090045196618, 1.6180388727404174, 0.2990888758930176]
      },
      {
        "species": [{ "element": "Os", "occu": 1 }],
        "abc": [0.62650334, 0.81325117, 0.5468748800000001],
        "properties": { "magmom": 0.0 },
        "label": "Os",
        "xyz": [2.1997915989123724, 7.046212882862037, 3.489378385893018]
      },
      {
        "species": [{ "element": "Os", "occu": 1 }],
        "abc": [0.37349666, 0.18674883, 0.04687488],
        "properties": { "magmom": 0.0 },
        "label": "Os",
        "xyz": [2.8025152010876266, 1.6180388771379626, 0.2990888758930176]
      },
      {
        "species": [{ "element": "Os", "occu": 1 }],
        "abc": [0.18674883, 0.37349666, 0.5468748800000001],
        "properties": { "magmom": 0.0 },
        "label": "Os",
        "xyz": [4.62320870542321e-6, 3.2360690956265996, 3.489378385893018]
      },
      {
        "species": [{ "element": "Os", "occu": 1 }],
        "abc": [0.18674883, 0.81325117, 0.5468748800000001],
        "properties": { "magmom": 0.0 },
        "label": "Os",
        "xyz": [-2.199783245196618, 7.046212887259583, 3.489378385893018]
      }
    ]
  },
  "task_ids": null,
  "uncorrected_energy_per_atom": null,
  "energy_per_atom": -67.70433196100001,
  "formation_energy_per_atom": -0.37607980100000304,
  "energy_above_hull": 0.0,
  "is_stable": true,
  "equilibrium_reaction_energy_per_atom": null,
  "decomposes_to": null,
  "xas": null,
  "grain_boundaries": null,
  "band_gap": 0.0,
  "cbm": null,
  "vbm": null,
  "efermi": 7.45679432,
  "is_gap_direct": null,
  "is_metal": null,
  "es_source_calc_id": null,
  "bandstructure": null,
  "dos": null,
  "dos_energy_up": null,
  "dos_energy_down": null,
  "is_magnetic": null,
  "ordering": null,
  "total_magnetization": 4e-7,
  "total_magnetization_normalized_vol": null,
  "total_magnetization_normalized_formula_units": null,
  "num_magnetic_sites": null,
  "num_unique_magnetic_sites": null,
  "types_of_magnetic_species": null,
  "bulk_modulus": null,
  "shear_modulus": null,
  "universal_anisotropy": null,
  "homogeneous_poisson": null,
  "e_total": null,
  "e_ionic": null,
  "e_electronic": null,
  "n": null,
  "e_ij_max": null,
  "weighted_surface_energy_EV_PER_ANG2": null,
  "weighted_surface_energy": null,
  "weighted_work_function": null,
  "surface_anisotropy": null,
  "shape_factor": null,
  "has_reconstructed": null,
  "possible_species": null,
  "has_props": null,
  "theoretical": null,
  "database_IDs": null,
  "fields_not_requested": [
    "builder_meta",
    "nsites",
    "elements",
    "nelements",
    "composition",
    "composition_reduced",
    "chemsys",
    "symmetry",
    "property_name",
    "deprecated",
    "deprecation_reasons",
    "last_updated",
    "origins",
    "warnings",
    "task_ids",
    "uncorrected_energy_per_atom",
    "equilibrium_reaction_energy_per_atom",
    "decomposes_to",
    "xas",
    "grain_boundaries",
    "cbm",
    "vbm",
    "is_gap_direct",
    "is_metal",
    "es_source_calc_id",
    "bandstructure",
    "dos",
    "dos_energy_up",
    "dos_energy_down",
    "is_magnetic",
    "ordering",
    "total_magnetization_normalized_vol",
    "total_magnetization_normalized_formula_units",
    "num_magnetic_sites",
    "num_unique_magnetic_sites",
    "types_of_magnetic_species",
    "bulk_modulus",
    "shear_modulus",
    "universal_anisotropy",
    "homogeneous_poisson",
    "e_total",
    "e_ionic",
    "e_electronic",
    "n",
    "e_ij_max",
    "weighted_surface_energy_EV_PER_ANG2",
    "weighted_surface_energy",
    "weighted_work_function",
    "surface_anisotropy",
    "shape_factor",
    "has_reconstructed",
    "possible_species",
    "has_props",
    "theoretical",
    "database_IDs"
  ]
}
