{
  "builder_meta": null,
  "nsites": null,
  "elements": null,
  "nelements": null,
  "composition": null,
  "composition_reduced": null,
  "formula_pretty": "Th7Pt3",
  "formula_anonymous": "A3B7",
  "chemsys": null,
  "volume": 566.2831188758855,
  "density": 12.958153024464263,
  "density_atomic": 28.314155943794276,
  "symmetry": null,
  "property_name": null,
  "material_id": "mp-569074",
  "deprecated": null,
  "deprecation_reasons": null,
  "last_updated": null,
  "origins": null,
  "warnings": null,
  "structure": {
    "@module": "pymatgen.core.structure",
    "@class": "Structure",
    "charge": 0,
    "lattice": {
      "matrix": [
        [10.11919748, 7.102000000000002e-5, -2.5840000000000003e-5],
        [-5.05953724, 8.76350601, -6.440000000000002e-5],
        [-1.6320000000000003e-5, -5.643e-5, 6.38569094]
      ],
      "pbc": [true, true, true],
      "a": 10.119197480282214,
      "b": 10.119187451292733,
      "c": 6.385690940270189,
      "alpha": 90.00072991110258,
      "beta": 90.00029274351748,
      "gamma": 119.9992285736809,
      "volume": 566.2831188758855
    },
    "properties": {},
    "sites": [
      {
        "species": [{ "element": "Th", "occu": 1 }],
        "abc": [0.45740991000000003, 0.54261383, 0.28190086000000003],
        "properties": { "magmom": -0.0 },
        "label": "Th",
        "xyz": [1.8832417281529634, 4.755216137900397, 1.8000850038774823]
      },
      {
        "species": [{ "element": "Th", "occu": 1 }],
        "abc": [0.0852289, 0.54261715, 0.28193022],
        "properties": { "magmom": -0.0 },
        "label": "Th",
        "xyz": [-1.8829482084856846, 4.755218798788235, 1.8002821047069708]
      },
      {
        "species": [{ "element": "Th", "occu": 1 }],
        "abc": [0.91482467, 0.45741852, 0.78190542],
        "properties": { "magmom": -0.0 },
        "label": "Th",
        "xyz": [6.942952698403693, 4.008610797030518, 4.9929532596087345]
      },
      {
        "species": [{ "element": "Th", "occu": 1 }],
        "abc": [0.25766961, 0.12883025, 0.4933206],
        "properties": { "magmom": -0.0 },
        "label": "Th",
        "xyz": [1.9555801696788808, 1.1289951317590468, 3.1501779310845412]
      },
      {
        "species": [{ "element": "Th", "occu": 1 }],
        "abc": [0.54258345, 0.08516147, 0.78189001],
        "properties": { "magmom": -0.0 },
        "label": "Th",
        "xyz": [5.0596186906066, 0.7463074663887895, 4.992888448178493]
      },
      {
        "species": [{ "element": "Th", "occu": 1 }],
        "abc": [0.74229847, 0.87114417, 0.99329698],
        "properties": { "magmom": -0.0 },
        "label": "Th",
        "xyz": [3.1038622269012524, 7.6342738356602196, 6.342812243238348]
      },
      {
        "species": [{ "element": "Th", "occu": 1 }],
        "abc": [0.66665978, 0.33334106, 0.34038988000000003],
        "properties": { "magmom": 0.0 },
        "label": "Th",
        "xyz": [5.059504903939438, 2.921264520666418, 2.1735858791307083]
      },
      {
        "species": [{ "element": "Th", "occu": 1 }],
        "abc": [0.12883243, 0.87114999, 0.99328974],
        "properties": { "magmom": 0.0 },
        "label": "Th",
        "xyz": [-3.103951225520908, 7.634281271315591, 6.3427818624236085]
      },
      {
        "species": [{ "element": "Th", "occu": 1 }],
        "abc": [0.45739413, 0.91477096, 0.28192963],
        "properties": { "magmom": -0.0 },
        "label": "Th",
        "xyz": [0.00013918838068020648, 8.016617380575562, 1.8002447536944088]
      },
      {
        "species": [{ "element": "Th", "occu": 1 }],
        "abc": [0.5425806400000001, 0.45743709, 0.78186601],
        "properties": { "magmom": 0.0 },
        "label": "Th",
        "xyz": [3.1760478931192733, 4.0087471007900195, 4.992711217118615]
      },
      {
        "species": [{ "element": "Th", "occu": 1 }],
        "abc": [0.87116388, 0.12881561, 0.49330621],
        "properties": { "magmom": 0.0 },
        "label": "Th",
        "xyz": [8.163723912517359, 1.1289104052061434, 3.1500701892427947]
      },
      {
        "species": [{ "element": "Th", "occu": 1 }],
        "abc": [0.1288432, 0.25769385, 0.99329987],
        "properties": { "magmom": 0.0 },
        "label": "Th",
        "xyz": [-3.805649271630836e-5, 2.2582547017474384, 6.34288605576995]
      },
      {
        "species": [{ "element": "Th", "occu": 1 }],
        "abc": [0.87115906, 0.74233146, 0.49331369],
        "properties": { "magmom": -0.0 },
        "label": "Th",
        "xyz": [5.059568847458178, 6.50546024314699, 3.1500784439148344]
      },
      {
        "species": [{ "element": "Th", "occu": 1 }],
        "abc": [0.33334933, 0.6666656, 0.84038299],
        "properties": { "magmom": 0.0 },
        "label": "Th",
        "xyz": [0.0001945552183476815, 5.842304243917547, 5.366374498361784]
      },
      {
        "species": [{ "element": "Pt", "occu": 1 }],
        "abc": [0.8116074400000001, 0.62323024, 0.058646420000000005],
        "properties": { "magmom": 0.0 },
        "label": "Pt",
        "xyz": [5.05955839611354, 5.461736284796651, 0.3744368048937292]
      },
      {
        "species": [{ "element": "Pt", "occu": 1 }],
        "abc": [0.8116194, 0.18838087, 0.05865689],
        "properties": { "magmom": -0.0 },
        "label": "Pt",
        "xyz": [7.2598160028500685, 1.650931217615514, 0.3745316670682526]
      },
      {
        "species": [{ "element": "Pt", "occu": 1 }],
        "abc": [0.62321763, 0.81160712, 0.55867081],
        "properties": { "magmom": -0.0 },
        "label": "Pt",
        "xyz": [2.2000967055908047, 7.112536609001066, 3.567430758417374]
      },
      {
        "species": [{ "element": "Pt", "occu": 1 }],
        "abc": [0.37677228, 0.1883946, 0.058656730000000004],
        "properties": { "magmom": 0.0 },
        "label": "Pt",
        "xyz": [2.859442654517117, 1.6510206577195976, 0.374541880923071]
      },
      {
        "species": [{ "element": "Pt", "occu": 1 }],
        "abc": [0.18839931000000001, 0.37677678000000003, 0.55867378],
        "properties": { "magmom": -0.0 },
        "label": "Pt",
        "xyz": [0.00012455585236200668, 3.3018674301160393, 3.5674889626987505]
      },
      {
        "species": [{ "element": "Pt", "occu": 1 }],
        "abc": [0.18838647, 0.81161939, 0.55867427],
        "properties": { "magmom": 0.0 },
        "label": "Pt",
        "xyz": [-2.200107753485074, 7.112613255315578, 3.567464088155013]
      }
    ]
  },
  "task_ids": null,
  "uncorrected_energy_per_atom": null,
  "energy_per_atom": -67.691271141,
  "formation_energy_per_atom": -0.8122725660000011,
  "energy_above_hull": 0.0,
  "is_stable": true,
  "equilibrium_reaction_energy_per_atom": null,
  "decomposes_to": null,
  "xas": null,
  "grain_boundaries": null,
  "band_gap": 0.0,
  "cbm": null,
  "vbm": null,
  "efermi": 7.41287295,
  "is_gap_direct": null,
  "is_metal": null,
  "es_source_calc_id": null,
  "bandstructure": null,
  "dos": null,
  "dos_energy_up": null,
  "dos_energy_down": null,
  "is_magnetic": null,
  "ordering": null,
  "total_magnetization": 0.0,
  "total_magnetization_normalized_vol": null,
  "total_magnetization_normalized_formula_units": null,
  "num_magnetic_sites": null,
  "num_unique_magnetic_sites": null,
  "types_of_magnetic_species": null,
  "bulk_modulus": null,
  "shear_modulus": null,
  "universal_anisotropy": null,
  "homogeneous_poisson": null,
  "e_total": null,
  "e_ionic": null,
  "e_electronic": null,
  "n": null,
  "e_ij_max": null,
  "weighted_surface_energy_EV_PER_ANG2": null,
  "weighted_surface_energy": null,
  "weighted_work_function": null,
  "surface_anisotropy": null,
  "shape_factor": null,
  "has_reconstructed": null,
  "possible_species": null,
  "has_props": null,
  "theoretical": null,
  "database_IDs": null,
  "fields_not_requested": [
    "builder_meta",
    "nsites",
    "elements",
    "nelements",
    "composition",
    "composition_reduced",
    "chemsys",
    "symmetry",
    "property_name",
    "deprecated",
    "deprecation_reasons",
    "last_updated",
    "origins",
    "warnings",
    "task_ids",
    "uncorrected_energy_per_atom",
    "equilibrium_reaction_energy_per_atom",
    "decomposes_to",
    "xas",
    "grain_boundaries",
    "cbm",
    "vbm",
    "is_gap_direct",
    "is_metal",
    "es_source_calc_id",
    "bandstructure",
    "dos",
    "dos_energy_up",
    "dos_energy_down",
    "is_magnetic",
    "ordering",
    "total_magnetization_normalized_vol",
    "total_magnetization_normalized_formula_units",
    "num_magnetic_sites",
    "num_unique_magnetic_sites",
    "types_of_magnetic_species",
    "bulk_modulus",
    "shear_modulus",
    "universal_anisotropy",
    "homogeneous_poisson",
    "e_total",
    "e_ionic",
    "e_electronic",
    "n",
    "e_ij_max",
    "weighted_surface_energy_EV_PER_ANG2",
    "weighted_surface_energy",
    "weighted_work_function",
    "surface_anisotropy",
    "shape_factor",
    "has_reconstructed",
    "possible_species",
    "has_props",
    "theoretical",
    "database_IDs"
  ]
}
