{"builder_meta": null, "nsites": null, "elements": null, "nelements": null, "composition": null, "composition_reduced": null, "formula_pretty": "Th7Rh3", "formula_anonymous": "A3B7", "chemsys": null, "volume": 547.403091449115, "density": 11.727349384284269, "density_atomic": 27.37015457245575, "symmetry": null, "property_name": null, "material_id": "mp-1107", "deprecated": null, "deprecation_reasons": null, "last_updated": null, "origins": null, "warnings": null, "structure": {"@module": "pymatgen.core.structure", "@class": "Structure", "charge": 0, "lattice": {"matrix": [[10.00437234, -1e-08, 0.0], [-5.00218668, 8.66404122, -0.0], [-0.0, 0.0, 6.31534222]], "pbc": [true, true, true], "a": 10.00437234, "b": 10.004373135955522, "c": 6.31534222, "alpha": 90.0, "beta": 90.0, "gamma": 120.00000079807992, "volume": 547.403091449115}, "properties": {}, "sites": [{"species": [{"element": "Th", "occu": 1}], "abc": [0.74482741, 0.87241371, 0.99813887], "properties": {"magmom": -0.0}, "label": "Th", "xyz": [3.0875544990664556, 7.558628336884852, 6.303588547134091]}, {"species": [{"element": "Th", "occu": 1}], "abc": [0.87241371, 0.12758629, 0.49813887], "properties": {"magmom": -0.0}, "label": "Th", "xyz": [8.089741148972164, 1.1054128669427365, 3.1459174371340914]}, {"species": [{"element": "Th", "occu": 1}], "abc": [0.54284981, 0.45715019, 0.79302732], "properties": {"magmom": -0.0}, "label": "Th", "xyz": [3.1441210327607862, 3.960768084462334, 5.00823891560945]}, {"species": [{"element": "Th", "occu": 1}], "abc": [0.08569962, 0.54284981, 0.29302732], "properties": {"magmom": -0.0}, "label": "Th", "xyz": [-1.8580651809460202, 4.703273129252172, 1.8505678056094501]}, {"species": [{"element": "Th", "occu": 1}], "abc": [0.45715019, 0.91430038, 0.29302732], "properties": {"magmom": -0.0}, "label": "Th", "xyz": [-4.662931942789328e-07, 7.921536175210162, 1.8505678056094501]}, {"species": [{"element": "Th", "occu": 1}], "abc": [0.54284981, 0.08569962, 0.79302732], "properties": {"magmom": -0.0}, "label": "Th", "xyz": [5.002186126293194, 0.7425050347898383, 5.00823891560945]}, {"species": [{"element": "Th", "occu": 1}], "abc": [0.91430038, 0.45715019, 0.79302732], "properties": {"magmom": -0.0}, "label": "Th", "xyz": [6.860250840946019, 3.9607680807478283, 5.00823891560945]}, {"species": [{"element": "Th", "occu": 1}], "abc": [0.45715019, 0.54284981, 0.29302732], "properties": {"magmom": -0.0}, "label": "Th", "xyz": [1.8580646272392132, 4.703273125537666, 1.8505678056094501]}, {"species": [{"element": "Th", "occu": 1}], "abc": [0.12758629, 0.25517259000000003, 0.99813887], "properties": {"magmom": -0.0}, "label": "Th", "xyz": [-1.8015988301200991e-07, 2.210825836698297, 6.303588547134091]}, {"species": [{"element": "Th", "occu": 1}], "abc": [0.87241371, 0.74482741, 0.49813887], "properties": {"magmom": -0.0}, "label": "Th", "xyz": [5.002185840159882, 6.453215373301703, 3.1459174371340914]}, {"species": [{"element": "Th", "occu": 1}], "abc": [0.25517259000000003, 0.12758629, 0.49813887], "properties": {"magmom": -0.0}, "label": "Th", "xyz": [1.9146311609335438, 1.1054128731151478, 3.1459174371340914]}, {"species": [{"element": "Th", "occu": 1}], "abc": [0.12758629, 0.87241371, 0.99813887], "properties": {"magmom": -0.0}, "label": "Th", "xyz": [-3.087555488972165, 7.558628343057263, 6.303588547134091]}, {"species": [{"element": "Th", "occu": 1}], "abc": [0.666667, 0.333333, 0.31940852000000003], "properties": {"magmom": -0.0}, "label": "Th", "xyz": [5.00219100218634, 2.88801084531959, 2.0171741117837145]}, {"species": [{"element": "Th", "occu": 1}], "abc": [0.333333, 0.666667, 0.81940852], "properties": {"magmom": -0.0}, "label": "Th", "xyz": [-5.34218634040684e-06, 5.77603036468041, 5.174845221783714]}, {"species": [{"element": "Rh", "occu": 1}], "abc": [0.18581286, 0.81418714, 0.5497013], "properties": {"magmom": 0.0}, "label": "Rh", "xyz": [-2.213775029735003, 7.0541509398957825, 3.4715518282788858]}, {"species": [{"element": "Rh", "occu": 1}], "abc": [0.37162772, 0.18581286, 0.0497013], "properties": {"magmom": 0.0}, "label": "Rh", "xyz": [2.7884314694805594, 1.6098902745298118, 0.313880718278886]}, {"species": [{"element": "Rh", "occu": 1}], "abc": [0.81418714, 0.62837228, 0.0497013], "properties": {"magmom": 0.0}, "label": "Rh", "xyz": [5.002195853902476, 5.444243327283511, 0.313880718278886]}, {"species": [{"element": "Rh", "occu": 1}], "abc": [0.18581286, 0.37162772, 0.5497013], "properties": {"magmom": 0.0}, "label": "Rh", "xyz": [-1.0193902477251271e-05, 3.2197978827164895, 3.4715518282788858]}, {"species": [{"element": "Rh", "occu": 1}], "abc": [0.62837228, 0.81418714, 0.5497013], "properties": {"magmom": 0.0}, "label": "Rh", "xyz": [2.21375419051944, 7.054150935470188, 3.4715518282788858]}, {"species": [{"element": "Rh", "occu": 1}], "abc": [0.81418714, 0.18581286, 0.0497013], "properties": {"magmom": 0.0}, "label": "Rh", "xyz": [7.215960689735002, 1.6098902701042177, 0.313880718278886]}]}, "task_ids": null, "uncorrected_energy_per_atom": null, "energy_per_atom": -59.2890794725, "formation_energy_per_atom": -0.6155273784999961, "energy_above_hull": 0.0, "is_stable": true, "equilibrium_reaction_energy_per_atom": null, "decomposes_to": null, "xas": null, "grain_boundaries": null, "band_gap": 0.0, "cbm": null, "vbm": null, "efermi": 7.4483015, "is_gap_direct": null, "is_metal": null, "es_source_calc_id": null, "bandstructure": null, "dos": null, "dos_energy_up": null, "dos_energy_down": null, "is_magnetic": null, "ordering": null, "total_magnetization": 2e-07, "total_magnetization_normalized_vol": null, "total_magnetization_normalized_formula_units": null, "num_magnetic_sites": null, "num_unique_magnetic_sites": null, "types_of_magnetic_species": null, "bulk_modulus": null, "shear_modulus": null, "universal_anisotropy": null, "homogeneous_poisson": null, "e_total": null, "e_ionic": null, "e_electronic": null, "n": null, "e_ij_max": null, "weighted_surface_energy_EV_PER_ANG2": null, "weighted_surface_energy": null, "weighted_work_function": null, "surface_anisotropy": null, "shape_factor": null, "has_reconstructed": null, "possible_species": null, "has_props": null, "theoretical": null, "database_IDs": null, "fields_not_requested": ["builder_meta", "nsites", "elements", "nelements", "composition", "composition_reduced", "chemsys", "symmetry", "property_name", "deprecated", "deprecation_reasons", "last_updated", "origins", "warnings", "task_ids", "uncorrected_energy_per_atom", "equilibrium_reaction_energy_per_atom", "decomposes_to", "xas", "grain_boundaries", "cbm", "vbm", "is_gap_direct", "is_metal", "es_source_calc_id", "bandstructure", "dos", "dos_energy_up", "dos_energy_down", "is_magnetic", "ordering", "total_magnetization_normalized_vol", "total_magnetization_normalized_formula_units", "num_magnetic_sites", "num_unique_magnetic_sites", "types_of_magnetic_species", "bulk_modulus", "shear_modulus", "universal_anisotropy", "homogeneous_poisson", "e_total", "e_ionic", "e_electronic", "n", "e_ij_max", "weighted_surface_energy_EV_PER_ANG2", "weighted_surface_energy", "weighted_work_function", "surface_anisotropy", "shape_factor", "has_reconstructed", "possible_species", "has_props", "theoretical", "database_IDs"]}