{"builder_meta": null, "nsites": null, "elements": null, "nelements": null, "composition": null, "composition_reduced": null, "formula_pretty": "Th7Ru3", "formula_anonymous": "A3B7", "chemsys": null, "volume": 543.2528611106563, "density": 11.783278559515443, "density_atomic": 27.16264305553282, "symmetry": null, "property_name": null, "material_id": "mp-573601", "deprecated": null, "deprecation_reasons": null, "last_updated": null, "origins": null, "warnings": null, "structure": {"@module": "pymatgen.core.structure", "@class": "Structure", "charge": 0, "lattice": {"matrix": [[9.92038701, 5.9130000000000005e-05, 0.0], [-4.96014229, 8.59138379, 0.0], [0.0, 0.0, 6.37395206]], "pbc": [true, true, true], "a": 9.92038701017622, "b": 9.920427761146252, "c": 6.37395206, "alpha": 90.0, "beta": 90.0, "gamma": 119.99918105384624, "volume": 543.2528611106563}, "properties": {}, "sites": [{"species": [{"element": "Th", "occu": 1}], "abc": [0.45969215, 0.54030356, 0.30154056], "properties": {"magmom": 0.0}, "label": "Th", "xyz": [1.8803414960654194, 4.641982428660122, 1.9220050735855536]}, {"species": [{"element": "Th", "occu": 1}], "abc": [0.08060455, 0.54029431, 0.30155044000000003], "properties": {"magmom": 0.0}, "label": "Th", "xyz": [-1.8803083253104749, 4.641880542910277, 1.9220680482319066]}, {"species": [{"element": "Th", "occu": 1}], "abc": [0.91939545, 0.45970569, 0.80155044], "properties": {"magmom": 0.0}, "label": "Th", "xyz": [6.840553045310475, 3.9495623770897237, 5.109044078231906]}, {"species": [{"element": "Th", "occu": 1}], "abc": [0.25081906, 0.12540423, 0.50551069], "properties": {"magmom": -0.0}, "label": "Th", "xyz": [1.866199320116524, 1.0774106997504496, 3.2221009038775215]}, {"species": [{"element": "Th", "occu": 1}], "abc": [0.54029615, 0.08060245, 0.80155781], "properties": {"magmom": -0.0}, "label": "Th", "xyz": [4.9601472870904, 0.692518530075635, 5.109091054258589]}, {"species": [{"element": "Th", "occu": 1}], "abc": [0.74918094, 0.87459577, 0.00551069], "properties": {"magmom": -0.0}, "label": "Th", "xyz": [3.094045399883477, 7.51403222024955, 0.035124873877521404]}, {"species": [{"element": "Th", "occu": 1}], "abc": [0.66666795, 0.33332634, 0.28696814], "properties": {"magmom": 0.0}, "label": "Th", "xyz": [4.960257995758411, 2.863773934331912, 1.8291211671073682]}, {"species": [{"element": "Th", "occu": 1}], "abc": [0.12541401, 0.87458992, 0.00551796], "properties": {"magmom": 0.0}, "label": "Th", "xyz": [-3.0939349329237076, 7.5139450773158085, 0.035171212508997594]}, {"species": [{"element": "Th", "occu": 1}], "abc": [0.45970385, 0.91939755, 0.30155781], "properties": {"magmom": -0.0}, "label": "Th", "xyz": [9.743290959995932e-05, 7.898924389924365, 1.9221150242585885]}, {"species": [{"element": "Th", "occu": 1}], "abc": [0.54030785, 0.45969644, 0.8015405600000001], "properties": {"magmom": 0.0}, "label": "Th", "xyz": [3.079903223934582, 3.949460491339878, 5.1089811035855535]}, {"species": [{"element": "Th", "occu": 1}], "abc": [0.87458599, 0.12541008, 0.50551796], "properties": {"magmom": 0.0}, "label": "Th", "xyz": [8.054179652923708, 1.077497842684192, 3.222147242508998]}, {"species": [{"element": "Th", "occu": 1}], "abc": [0.12540583, 0.25081713, 0.00550726], "properties": {"magmom": 0.0}, "label": "Th", "xyz": [-1.4286659159479242e-05, 2.1548736401830504, 0.035103011221955596]}, {"species": [{"element": "Th", "occu": 1}], "abc": [0.8745941700000001, 0.7491828700000001, 0.50550726], "properties": {"magmom": 0.0}, "label": "Th", "xyz": [4.960259006659161, 6.43656927981695, 3.2220790412219555]}, {"species": [{"element": "Th", "occu": 1}], "abc": [0.33333205, 0.6666736600000001, 0.78696814], "properties": {"magmom": 0.0}, "label": "Th", "xyz": [-1.3275758411257499e-05, 5.727668985668089, 5.016097197107368]}, {"species": [{"element": "Ru", "occu": 1}], "abc": [0.81417213, 0.62832148, 0.04462045], "properties": {"magmom": -0.0}, "label": "Ru", "xyz": [4.960338677692643, 5.398199120178856, 0.284408609195627]}, {"species": [{"element": "Ru", "occu": 1}], "abc": [0.81415607, 0.18583812, 0.044609050000000004], "properties": {"magmom": 0.0}, "label": "Ru", "xyz": [7.154959782834556, 1.5966547527804937, 0.284335946142143]}, {"species": [{"element": "Ru", "occu": 1}], "abc": [0.62832331, 0.8141782200000001, 0.54461065], "properties": {"magmom": 0.0}, "label": "Ru", "xyz": [2.1947705819852787, 6.994954714236375, 3.471322174465439]}, {"species": [{"element": "Ru", "occu": 1}], "abc": [0.37167669000000003, 0.18582178, 0.04461065], "properties": {"magmom": 0.0}, "label": "Ru", "xyz": [2.7654741380147216, 1.5964882057636258, 0.284346144465439]}, {"species": [{"element": "Ru", "occu": 1}], "abc": [0.18582787, 0.37167852, 0.54462045], "properties": {"magmom": -0.0}, "label": "Ru", "xyz": [-9.395769264219922e-05, 3.1932437998211443, 3.471384639195627]}, {"species": [{"element": "Ru", "occu": 1}], "abc": [0.18584393, 0.81416188, 0.54460905], "properties": {"magmom": 0.0}, "label": "Ru", "xyz": [-2.1947150628345566, 6.994788167219506, 3.471311976142143]}]}, "task_ids": null, "uncorrected_energy_per_atom": null, "energy_per_atom": -59.483880591, "formation_energy_per_atom": -0.423836497499996, "energy_above_hull": 0.0, "is_stable": true, "equilibrium_reaction_energy_per_atom": null, "decomposes_to": null, "xas": null, "grain_boundaries": null, "band_gap": 0.0, "cbm": null, "vbm": null, "efermi": 7.60449971, "is_gap_direct": null, "is_metal": null, "es_source_calc_id": null, "bandstructure": null, "dos": null, "dos_energy_up": null, "dos_energy_down": null, "is_magnetic": null, "ordering": null, "total_magnetization": 0.0, "total_magnetization_normalized_vol": null, "total_magnetization_normalized_formula_units": null, "num_magnetic_sites": null, "num_unique_magnetic_sites": null, "types_of_magnetic_species": null, "bulk_modulus": null, "shear_modulus": null, "universal_anisotropy": null, "homogeneous_poisson": null, "e_total": null, "e_ionic": null, "e_electronic": null, "n": null, "e_ij_max": null, "weighted_surface_energy_EV_PER_ANG2": null, "weighted_surface_energy": null, "weighted_work_function": null, "surface_anisotropy": null, "shape_factor": null, "has_reconstructed": null, "possible_species": null, "has_props": null, "theoretical": null, "database_IDs": null, "fields_not_requested": ["builder_meta", "nsites", "elements", "nelements", "composition", "composition_reduced", "chemsys", "symmetry", "property_name", "deprecated", "deprecation_reasons", "last_updated", "origins", "warnings", "task_ids", "uncorrected_energy_per_atom", "equilibrium_reaction_energy_per_atom", "decomposes_to", "xas", "grain_boundaries", "cbm", "vbm", "is_gap_direct", "is_metal", "es_source_calc_id", "bandstructure", "dos", "dos_energy_up", "dos_energy_down", "is_magnetic", "ordering", "total_magnetization_normalized_vol", "total_magnetization_normalized_formula_units", "num_magnetic_sites", "num_unique_magnetic_sites", "types_of_magnetic_species", "bulk_modulus", "shear_modulus", "universal_anisotropy", "homogeneous_poisson", "e_total", "e_ionic", "e_electronic", "n", "e_ij_max", "weighted_surface_energy_EV_PER_ANG2", "weighted_surface_energy", "weighted_work_function", "surface_anisotropy", "shape_factor", "has_reconstructed", "possible_species", "has_props", "theoretical", "database_IDs"]}