{"builder_meta": null, "nsites": null, "elements": null, "nelements": null, "composition": null, "composition_reduced": null, "formula_pretty": "ThAg3", "formula_anonymous": "AB3", "chemsys": null, "volume": 181.90671284735868, "density": 10.144390270784207, "density_atomic": 22.738339105919835, "symmetry": null, "property_name": null, "material_id": "mp-1187413", "deprecated": null, "deprecation_reasons": null, "last_updated": null, "origins": null, "warnings": null, "structure": {"@module": "pymatgen.core.structure", "@class": "Structure", "charge": 0, "lattice": {"matrix": [[3.281415, -5.683578, 0.0], [3.281415, 5.683578, 0.0], [0.0, 0.0, 4.876809]], "pbc": [true, true, true], "a": 6.562830432390356, "b": 6.562830432390356, "c": 4.876809, "alpha": 90.0, "beta": 90.0, "gamma": 120.00000435889906, "volume": 181.90671284735868}, "properties": {}, "sites": [{"species": [{"element": "Th", "occu": 1}], "abc": [0.333333, 0.666667, 0.75], "properties": {"magmom": -0.0}, "label": "Th", "xyz": [3.281415, 1.894529789052, 3.65760675]}, {"species": [{"element": "Th", "occu": 1}], "abc": [0.666667, 0.333333, 0.25], "properties": {"magmom": -0.0}, "label": "Th", "xyz": [3.281415, -1.894529789052, 1.21920225]}, {"species": [{"element": "Ag", "occu": 1}], "abc": [0.151162, 0.302324, 0.25], "properties": {"magmom": -0.0}, "label": "Ag", "xyz": [1.4880757626899999, 0.8591410176359999, 1.21920225]}, {"species": [{"element": "Ag", "occu": 1}], "abc": [0.697676, 0.848838, 0.25], "properties": {"magmom": 0.0}, "label": "Ag", "xyz": [5.07475423731, 0.8591410176359999, 1.21920225]}, {"species": [{"element": "Ag", "occu": 1}], "abc": [0.151162, 0.848838, 0.25], "properties": {"magmom": -0.0}, "label": "Ag", "xyz": [3.281415, 3.9652959647279995, 1.21920225]}, {"species": [{"element": "Ag", "occu": 1}], "abc": [0.848838, 0.697676, 0.75], "properties": {"magmom": -0.0}, "label": "Ag", "xyz": [5.07475423731, -0.8591410176359999, 3.65760675]}, {"species": [{"element": "Ag", "occu": 1}], "abc": [0.302324, 0.151162, 0.75], "properties": {"magmom": 0.0}, "label": "Ag", "xyz": [1.4880757626899999, -0.8591410176359999, 3.65760675]}, {"species": [{"element": "Ag", "occu": 1}], "abc": [0.848838, 0.151162, 0.75], "properties": {"magmom": -0.0}, "label": "Ag", "xyz": [3.281415, -3.9652959647279995, 3.65760675]}]}, "task_ids": null, "uncorrected_energy_per_atom": null, "energy_per_atom": -4.033083755, "formation_energy_per_atom": -0.047415933749997, "energy_above_hull": 0.10033638413043401, "is_stable": false, "equilibrium_reaction_energy_per_atom": null, "decomposes_to": null, "xas": null, "grain_boundaries": null, "band_gap": 0.0, "cbm": null, "vbm": null, "efermi": 4.8370096799999995, "is_gap_direct": null, "is_metal": null, "es_source_calc_id": null, "bandstructure": null, "dos": null, "dos_energy_up": null, "dos_energy_down": null, "is_magnetic": null, "ordering": null, "total_magnetization": 0.0039772, "total_magnetization_normalized_vol": null, "total_magnetization_normalized_formula_units": null, "num_magnetic_sites": null, "num_unique_magnetic_sites": null, "types_of_magnetic_species": null, "bulk_modulus": null, "shear_modulus": null, "universal_anisotropy": null, "homogeneous_poisson": null, "e_total": null, "e_ionic": null, "e_electronic": null, "n": null, "e_ij_max": null, "weighted_surface_energy_EV_PER_ANG2": null, "weighted_surface_energy": null, "weighted_work_function": null, "surface_anisotropy": null, "shape_factor": null, "has_reconstructed": null, "possible_species": null, "has_props": null, "theoretical": null, "database_IDs": null, "fields_not_requested": ["builder_meta", "nsites", "elements", "nelements", "composition", "composition_reduced", "chemsys", "symmetry", "property_name", "deprecated", "deprecation_reasons", "last_updated", "origins", "warnings", "task_ids", "uncorrected_energy_per_atom", "equilibrium_reaction_energy_per_atom", "decomposes_to", "xas", "grain_boundaries", "cbm", "vbm", "is_gap_direct", "is_metal", "es_source_calc_id", "bandstructure", "dos", "dos_energy_up", "dos_energy_down", "is_magnetic", "ordering", "total_magnetization_normalized_vol", "total_magnetization_normalized_formula_units", "num_magnetic_sites", "num_unique_magnetic_sites", "types_of_magnetic_species", "bulk_modulus", "shear_modulus", "universal_anisotropy", "homogeneous_poisson", "e_total", "e_ionic", "e_electronic", "n", "e_ij_max", "weighted_surface_energy_EV_PER_ANG2", "weighted_surface_energy", "weighted_work_function", "surface_anisotropy", "shape_factor", "has_reconstructed", "possible_species", "has_props", "theoretical", "database_IDs"]}