{
  "builder_meta": null,
  "nsites": null,
  "elements": null,
  "nelements": null,
  "composition": null,
  "composition_reduced": null,
  "formula_pretty": "ThAl3",
  "formula_anonymous": "AB3",
  "chemsys": null,
  "volume": 169.4673161450051,
  "density": 6.133571619086748,
  "density_atomic": 21.183414518125637,
  "symmetry": null,
  "property_name": null,
  "material_id": "mp-1306",
  "deprecated": null,
  "deprecation_reasons": null,
  "last_updated": null,
  "origins": null,
  "warnings": null,
  "structure": {
    "@module": "pymatgen.core.structure",
    "@class": "Structure",
    "charge": 0,
    "lattice": {
      "matrix": [
        [6.53795164, -3.4960000000000004e-5, -8.02e-6],
        [-3.26900683, 5.66208625, -1.6170000000000003e-5],
        [-5.33e-6, -1.5740000000000002e-5, 4.57792958]
      ],
      "pbc": [true, true, true],
      "a": 6.537951640098389,
      "b": 6.538013945938566,
      "c": 4.577929580030162,
      "alpha": 90.00027895519369,
      "beta": 90.0001369911889,
      "gamma": 120.0003049273542,
      "volume": 169.46731614500513
    },
    "properties": {},
    "sites": [
      {
        "species": [{ "element": "Th", "occu": 1 }],
        "abc": [0.33334396, 0.66667164, 0.24999809],
        "properties": { "magmom": -0.0 },
        "label": "Th",
        "xyz": [3.121294897357443e-5, 3.774736737434172, 1.1444601976555242]
      },
      {
        "species": [{ "element": "Th", "occu": 1 }],
        "abc": [0.66665511, 0.33332944000000003, 0.75000234],
        "properties": { "magmom": -0.0 },
        "label": "Th",
        "xyz": [3.268898656226333, 1.887304927644723, 3.4334471608441905]
      },
      {
        "species": [{ "element": "Al", "occu": 1 }],
        "abc": [0.8607678200000001, 0.7215221900000001, 0.24999868],
        "properties": { "magmom": -0.0 },
        "label": "Al",
        "xyz": [3.268996080828703, 4.085286843646677, 1.1444577817612256]
      },
      {
        "species": [{ "element": "Al", "occu": 1 }],
        "abc": [0.13922846, 0.86074953, 0.74999847],
        "properties": { "magmom": 0.0 },
        "label": "Al",
        "xyz": [-1.9035311515894606, 4.873621406104083, 3.433425145835593]
      },
      {
        "species": [{ "element": "Al", "occu": 1 }],
        "abc": [0.72153117, 0.86077377, 0.74999775],
        "properties": { "magmom": 0.0 },
        "label": "Al",
        "xyz": [1.9034565655097626, 4.873738297783373, 3.4334171792666006]
      },
      {
        "species": [{ "element": "Al", "occu": 1 }],
        "abc": [0.27846785, 0.13923239, 0.25000528],
        "properties": { "magmom": -0.0 },
        "label": "Al",
        "xyz": [1.365456370199408, 0.7883321306544943, 1.1445020817682792]
      },
      {
        "species": [{ "element": "Al", "occu": 1 }],
        "abc": [0.86076934, 0.139244999999999, 0.24999822],
        "properties": { "magmom": 0.0 },
        "label": "Al",
        "xyz": [5.172474129580859, 0.7883831724131352, 1.1444650913235908]
      },
      {
        "species": [{ "element": "Al", "occu": 1 }],
        "abc": [0.13923428000000002, 0.27847804, 0.75000118],
        "properties": { "magmom": -0.0 },
        "label": "Al",
        "xyz": [-4.3623001083149106e-5, 1.576750008561948, 3.4334469673080723]
      }
    ]
  },
  "task_ids": null,
  "uncorrected_energy_per_atom": null,
  "energy_per_atom": -23.854920505,
  "formation_energy_per_atom": -0.43703121999999706,
  "energy_above_hull": 0.0,
  "is_stable": true,
  "equilibrium_reaction_energy_per_atom": null,
  "decomposes_to": null,
  "xas": null,
  "grain_boundaries": null,
  "band_gap": 0.0,
  "cbm": null,
  "vbm": null,
  "efermi": 7.35700786,
  "is_gap_direct": null,
  "is_metal": null,
  "es_source_calc_id": null,
  "bandstructure": null,
  "dos": null,
  "dos_energy_up": null,
  "dos_energy_down": null,
  "is_magnetic": null,
  "ordering": null,
  "total_magnetization": 1e-7,
  "total_magnetization_normalized_vol": null,
  "total_magnetization_normalized_formula_units": null,
  "num_magnetic_sites": null,
  "num_unique_magnetic_sites": null,
  "types_of_magnetic_species": null,
  "bulk_modulus": null,
  "shear_modulus": null,
  "universal_anisotropy": null,
  "homogeneous_poisson": null,
  "e_total": null,
  "e_ionic": null,
  "e_electronic": null,
  "n": null,
  "e_ij_max": null,
  "weighted_surface_energy_EV_PER_ANG2": null,
  "weighted_surface_energy": null,
  "weighted_work_function": null,
  "surface_anisotropy": null,
  "shape_factor": null,
  "has_reconstructed": null,
  "possible_species": null,
  "has_props": null,
  "theoretical": null,
  "database_IDs": null,
  "fields_not_requested": [
    "builder_meta",
    "nsites",
    "elements",
    "nelements",
    "composition",
    "composition_reduced",
    "chemsys",
    "symmetry",
    "property_name",
    "deprecated",
    "deprecation_reasons",
    "last_updated",
    "origins",
    "warnings",
    "task_ids",
    "uncorrected_energy_per_atom",
    "equilibrium_reaction_energy_per_atom",
    "decomposes_to",
    "xas",
    "grain_boundaries",
    "cbm",
    "vbm",
    "is_gap_direct",
    "is_metal",
    "es_source_calc_id",
    "bandstructure",
    "dos",
    "dos_energy_up",
    "dos_energy_down",
    "is_magnetic",
    "ordering",
    "total_magnetization_normalized_vol",
    "total_magnetization_normalized_formula_units",
    "num_magnetic_sites",
    "num_unique_magnetic_sites",
    "types_of_magnetic_species",
    "bulk_modulus",
    "shear_modulus",
    "universal_anisotropy",
    "homogeneous_poisson",
    "e_total",
    "e_ionic",
    "e_electronic",
    "n",
    "e_ij_max",
    "weighted_surface_energy_EV_PER_ANG2",
    "weighted_surface_energy",
    "weighted_work_function",
    "surface_anisotropy",
    "shape_factor",
    "has_reconstructed",
    "possible_species",
    "has_props",
    "theoretical",
    "database_IDs"
  ]
}
