{"builder_meta": null, "nsites": null, "elements": null, "nelements": null, "composition": null, "composition_reduced": null, "formula_pretty": "ThAu3", "formula_anonymous": "AB3", "chemsys": null, "volume": 175.13870684744876, "density": 15.605006295659699, "density_atomic": 21.892338355931095, "symmetry": null, "property_name": null, "material_id": "mp-865180", "deprecated": null, "deprecation_reasons": null, "last_updated": null, "origins": null, "warnings": null, "structure": {"@module": "pymatgen.core.structure", "@class": "Structure", "charge": 0, "lattice": {"matrix": [[6.56089034, -1e-08, -0.0], [-3.28044569, 5.68189698, 0.0], [-0.0, -0.0, 4.69814055]], "pbc": [true, true, true], "a": 6.56089034, "b": 6.560889971366134, "c": 4.69814055, "alpha": 90.0, "beta": 90.0, "gamma": 120.00000718960277, "volume": 175.13870684744876}, "properties": {}, "sites": [{"species": [{"element": "Th", "occu": 1}], "abc": [0.333333999999999, 0.666667999999999, 0.750002], "properties": {"magmom": 0.0}, "label": "Th", "xyz": [-3.466673632601669e-07, 3.787938892529295, 3.5236148087810997]}, {"species": [{"element": "Th", "occu": 1}], "abc": [0.666667, 0.333333999999999, 0.250001], "properties": {"magmom": 0.0}, "label": "Th", "xyz": [3.2804449966663234, 1.8939694412646444, 1.1745398356405499]}, {"species": [{"element": "Au", "occu": 1}], "abc": [0.15386829, 0.30773558, 0.250001], "properties": {"magmom": -0.0}, "label": "Au", "xyz": [3.1204226682568503e-06, 1.7485218611018656, 1.1745398356405499]}, {"species": [{"element": "Au", "occu": 1}], "abc": [0.69226442, 0.84613271, 0.250001], "properties": {"magmom": -0.0}, "label": "Au", "xyz": [1.7661785442161833, 4.8076388827055725, 1.1745398356405499]}, {"species": [{"element": "Au", "occu": 1}], "abc": [0.15386829, 0.84613271, 0.250001], "properties": {"magmom": -0.0}, "label": "Au", "xyz": [-1.7661794241942015, 4.807638888089533, 1.1745398356405499]}, {"species": [{"element": "Au", "occu": 1}], "abc": [0.84613271, 0.69226342, 0.750002], "properties": {"magmom": -0.0}, "label": "Au", "xyz": [3.2804513709133616, 3.9333694270011446, 3.5236148087810997]}, {"species": [{"element": "Au", "occu": 1}], "abc": [0.30773758, 0.15386929, 0.750002], "properties": {"magmom": -0.0}, "label": "Au", "xyz": [1.5142726666731172, 0.8742694510883684, 3.5236148087810997]}, {"species": [{"element": "Au", "occu": 1}], "abc": [0.84613271, 0.15386929, 0.750002], "properties": {"magmom": -0.0}, "label": "Au", "xyz": [5.046624074193161, 0.8742694457044171, 3.5236148087810997]}]}, "task_ids": null, "uncorrected_energy_per_atom": null, "energy_per_atom": -4.940522192499998, "formation_energy_per_atom": -0.631646129999996, "energy_above_hull": 0.018832671304348, "is_stable": false, "equilibrium_reaction_energy_per_atom": null, "decomposes_to": null, "xas": null, "grain_boundaries": null, "band_gap": 0.0, "cbm": null, "vbm": null, "efermi": 6.26409316, "is_gap_direct": null, "is_metal": null, "es_source_calc_id": null, "bandstructure": null, "dos": null, "dos_energy_up": null, "dos_energy_down": null, "is_magnetic": null, "ordering": null, "total_magnetization": 3e-07, "total_magnetization_normalized_vol": null, "total_magnetization_normalized_formula_units": null, "num_magnetic_sites": null, "num_unique_magnetic_sites": null, "types_of_magnetic_species": null, "bulk_modulus": null, "shear_modulus": null, "universal_anisotropy": null, "homogeneous_poisson": null, "e_total": null, "e_ionic": null, "e_electronic": null, "n": null, "e_ij_max": null, "weighted_surface_energy_EV_PER_ANG2": null, "weighted_surface_energy": null, "weighted_work_function": null, "surface_anisotropy": null, "shape_factor": null, "has_reconstructed": null, "possible_species": null, "has_props": null, "theoretical": null, "database_IDs": null, "fields_not_requested": ["builder_meta", "nsites", "elements", "nelements", "composition", "composition_reduced", "chemsys", "symmetry", "property_name", "deprecated", "deprecation_reasons", "last_updated", "origins", "warnings", "task_ids", "uncorrected_energy_per_atom", "equilibrium_reaction_energy_per_atom", "decomposes_to", "xas", "grain_boundaries", "cbm", "vbm", "is_gap_direct", "is_metal", "es_source_calc_id", "bandstructure", "dos", "dos_energy_up", "dos_energy_down", "is_magnetic", "ordering", "total_magnetization_normalized_vol", "total_magnetization_normalized_formula_units", "num_magnetic_sites", "num_unique_magnetic_sites", "types_of_magnetic_species", "bulk_modulus", "shear_modulus", "universal_anisotropy", "homogeneous_poisson", "e_total", "e_ionic", "e_electronic", "n", "e_ij_max", "weighted_surface_energy_EV_PER_ANG2", "weighted_surface_energy", "weighted_work_function", "surface_anisotropy", "shape_factor", "has_reconstructed", "possible_species", "has_props", "theoretical", "database_IDs"]}