{
  "builder_meta": null,
  "nsites": null,
  "elements": null,
  "nelements": null,
  "composition": null,
  "composition_reduced": null,
  "formula_pretty": "ThB4",
  "formula_anonymous": "AB4",
  "chemsys": null,
  "volume": 217.30470640267254,
  "density": 8.414297555379653,
  "density_atomic": 10.865235320133626,
  "symmetry": null,
  "property_name": null,
  "material_id": "mp-542573",
  "deprecated": null,
  "deprecation_reasons": null,
  "last_updated": null,
  "origins": null,
  "warnings": null,
  "structure": {
    "@module": "pymatgen.core.structure",
    "@class": "Structure",
    "charge": 0,
    "lattice": {
      "matrix": [
        [4.12674507, 0.0, -0.0],
        [0.0, 7.2565592500000005, 0.0],
        [-0.0, 0.0, 7.2565592500000005]
      ],
      "pbc": [true, true, true],
      "a": 4.12674507,
      "b": 7.2565592500000005,
      "c": 7.2565592500000005,
      "alpha": 90.0,
      "beta": 90.0,
      "gamma": 90.0,
      "volume": 217.3047064026726
    },
    "properties": {},
    "sites": [
      {
        "species": [{ "element": "Th", "occu": 1 }],
        "abc": [-0.0, 0.31562348, 0.8156234800000001],
        "properties": { "magmom": 0.0 },
        "label": "Th",
        "xyz": [0.0, 2.2903404833111902, 5.918620108311191]
      },
      {
        "species": [{ "element": "Th", "occu": 1 }],
        "abc": [-0.0, 0.18437652000000002, 0.31562348],
        "properties": { "magmom": 0.0 },
        "label": "Th",
        "xyz": [0.0, 1.3379391416888102, 2.2903404833111902]
      },
      {
        "species": [{ "element": "Th", "occu": 1 }],
        "abc": [-0.0, 0.8156234800000001, 0.68437652],
        "properties": { "magmom": 0.0 },
        "label": "Th",
        "xyz": [0.0, 5.918620108311191, 4.966218766688811]
      },
      {
        "species": [{ "element": "Th", "occu": 1 }],
        "abc": [-0.0, 0.68437652, 0.18437652000000002],
        "properties": { "magmom": 0.0 },
        "label": "Th",
        "xyz": [0.0, 4.966218766688811, 1.3379391416888102]
      },
      {
        "species": [{ "element": "B", "occu": 1 }],
        "abc": [0.20115995, 0.0, 0.0],
        "properties": { "magmom": 0.0 },
        "label": "B",
        "xyz": [0.8301358319439466, 0.0, 0.0]
      },
      {
        "species": [{ "element": "B", "occu": 1 }],
        "abc": [0.79884005, 0.5, 0.5],
        "properties": { "magmom": 0.0 },
        "label": "B",
        "xyz": [3.2966092380560537, 3.6282796250000002, 3.6282796250000002]
      },
      {
        "species": [{ "element": "B", "occu": 1 }],
        "abc": [0.79884005, 0.0, 0.0],
        "properties": { "magmom": 0.0 },
        "label": "B",
        "xyz": [3.2966092380560537, 0.0, 0.0]
      },
      {
        "species": [{ "element": "B", "occu": 1 }],
        "abc": [0.20115995, 0.5, 0.5],
        "properties": { "magmom": 0.0 },
        "label": "B",
        "xyz": [0.8301358319439466, 3.6282796250000002, 3.6282796250000002]
      },
      {
        "species": [{ "element": "B", "occu": 1 }],
        "abc": [0.5, 0.08986702, 0.58986702],
        "properties": { "magmom": -0.0 },
        "label": "B",
        "xyz": [2.063372535, 0.6521253552509351, 4.280404980250935]
      },
      {
        "species": [{ "element": "B", "occu": 1 }],
        "abc": [0.5, 0.41013298000000004, 0.08986702],
        "properties": { "magmom": -0.0 },
        "label": "B",
        "xyz": [2.063372535, 2.9761542697490655, 0.6521253552509351]
      },
      {
        "species": [{ "element": "B", "occu": 1 }],
        "abc": [0.5, 0.58986702, 0.91013298],
        "properties": { "magmom": -0.0 },
        "label": "B",
        "xyz": [2.063372535, 4.280404980250935, 6.604433894749065]
      },
      {
        "species": [{ "element": "B", "occu": 1 }],
        "abc": [0.5, 0.91013298, 0.41013298000000004],
        "properties": { "magmom": -0.0 },
        "label": "B",
        "xyz": [2.063372535, 6.604433894749065, 2.9761542697490655]
      },
      {
        "species": [{ "element": "B", "occu": 1 }],
        "abc": [0.5, 0.17467621, 0.03880365],
        "properties": { "magmom": -0.0 },
        "label": "B",
        "xyz": [2.063372535, 1.2675482674304426, 0.2815809853412625]
      },
      {
        "species": [{ "element": "B", "occu": 1 }],
        "abc": [0.5, 0.96119635, 0.17467621],
        "properties": { "magmom": -0.0 },
        "label": "B",
        "xyz": [2.063372535, 6.974978264658739, 1.2675482674304426]
      },
      {
        "species": [{ "element": "B", "occu": 1 }],
        "abc": [0.5, 0.03880365, 0.82532379],
        "properties": { "magmom": -0.0 },
        "label": "B",
        "xyz": [2.063372535, 0.2815809853412625, 5.989010982569558]
      },
      {
        "species": [{ "element": "B", "occu": 1 }],
        "abc": [0.5, 0.82532379, 0.96119635],
        "properties": { "magmom": -0.0 },
        "label": "B",
        "xyz": [2.063372535, 5.989010982569558, 6.974978264658739]
      },
      {
        "species": [{ "element": "B", "occu": 1 }],
        "abc": [0.5, 0.67467621, 0.46119635000000003],
        "properties": { "magmom": -0.0 },
        "label": "B",
        "xyz": [2.063372535, 4.895827892430443, 3.346698639658738]
      },
      {
        "species": [{ "element": "B", "occu": 1 }],
        "abc": [0.5, 0.32532379, 0.53880365],
        "properties": { "magmom": -0.0 },
        "label": "B",
        "xyz": [2.063372535, 2.360731357569558, 3.9098606103412625]
      },
      {
        "species": [{ "element": "B", "occu": 1 }],
        "abc": [0.5, 0.53880365, 0.67467621],
        "properties": { "magmom": -0.0 },
        "label": "B",
        "xyz": [2.063372535, 3.9098606103412625, 4.895827892430443]
      },
      {
        "species": [{ "element": "B", "occu": 1 }],
        "abc": [0.5, 0.46119635000000003, 0.32532379],
        "properties": { "magmom": -0.0 },
        "label": "B",
        "xyz": [2.063372535, 3.346698639658738, 2.360731357569558]
      }
    ]
  },
  "task_ids": null,
  "uncorrected_energy_per_atom": null,
  "energy_per_atom": -21.2223446305,
  "formation_energy_per_atom": -0.6502088425000011,
  "energy_above_hull": 0.0,
  "is_stable": true,
  "equilibrium_reaction_energy_per_atom": null,
  "decomposes_to": null,
  "xas": null,
  "grain_boundaries": null,
  "band_gap": 0.0,
  "cbm": null,
  "vbm": null,
  "efermi": 8.63595444,
  "is_gap_direct": null,
  "is_metal": null,
  "es_source_calc_id": null,
  "bandstructure": null,
  "dos": null,
  "dos_energy_up": null,
  "dos_energy_down": null,
  "is_magnetic": null,
  "ordering": null,
  "total_magnetization": 0.0,
  "total_magnetization_normalized_vol": null,
  "total_magnetization_normalized_formula_units": null,
  "num_magnetic_sites": null,
  "num_unique_magnetic_sites": null,
  "types_of_magnetic_species": null,
  "bulk_modulus": null,
  "shear_modulus": null,
  "universal_anisotropy": null,
  "homogeneous_poisson": null,
  "e_total": null,
  "e_ionic": null,
  "e_electronic": null,
  "n": null,
  "e_ij_max": null,
  "weighted_surface_energy_EV_PER_ANG2": null,
  "weighted_surface_energy": null,
  "weighted_work_function": null,
  "surface_anisotropy": null,
  "shape_factor": null,
  "has_reconstructed": null,
  "possible_species": null,
  "has_props": null,
  "theoretical": null,
  "database_IDs": null,
  "fields_not_requested": [
    "builder_meta",
    "nsites",
    "elements",
    "nelements",
    "composition",
    "composition_reduced",
    "chemsys",
    "symmetry",
    "property_name",
    "deprecated",
    "deprecation_reasons",
    "last_updated",
    "origins",
    "warnings",
    "task_ids",
    "uncorrected_energy_per_atom",
    "equilibrium_reaction_energy_per_atom",
    "decomposes_to",
    "xas",
    "grain_boundaries",
    "cbm",
    "vbm",
    "is_gap_direct",
    "is_metal",
    "es_source_calc_id",
    "bandstructure",
    "dos",
    "dos_energy_up",
    "dos_energy_down",
    "is_magnetic",
    "ordering",
    "total_magnetization_normalized_vol",
    "total_magnetization_normalized_formula_units",
    "num_magnetic_sites",
    "num_unique_magnetic_sites",
    "types_of_magnetic_species",
    "bulk_modulus",
    "shear_modulus",
    "universal_anisotropy",
    "homogeneous_poisson",
    "e_total",
    "e_ionic",
    "e_electronic",
    "n",
    "e_ij_max",
    "weighted_surface_energy_EV_PER_ANG2",
    "weighted_surface_energy",
    "weighted_work_function",
    "surface_anisotropy",
    "shape_factor",
    "has_reconstructed",
    "possible_species",
    "has_props",
    "theoretical",
    "database_IDs"
  ]
}
