{"builder_meta": null, "nsites": null, "elements": null, "nelements": null, "composition": null, "composition_reduced": null, "formula_pretty": "ThBr4", "formula_anonymous": "AB4", "chemsys": null, "volume": 321.16184173762616, "density": 5.704557633137897, "density_atomic": 32.11618417376262, "symmetry": null, "property_name": null, "material_id": "mp-570229", "deprecated": null, "deprecation_reasons": null, "last_updated": null, "origins": null, "warnings": null, "structure": {"@module": "pymatgen.core.structure", "@class": "Structure", "charge": 0, "lattice": {"matrix": [[6.99949193, 2.8408254, -3.65575513], [-1.541401, 7.39489668, -3.65613212], [-1.5149811400000002, -2.8406137, 7.75006262]], "pbc": [true, true, true], "a": 8.392122604081854, "b": 8.392122260165882, "c": 8.392122774429879, "alpha": 131.869599468161, "beta": 131.86961128509355, "gamma": 70.43503902235368, "volume": 321.1618417376261}, "properties": {}, "sites": [{"species": [{"element": "Th", "occu": 1}], "abc": [0.375, 0.125, 0.25], "properties": {"magmom": 0.0}, "label": "Th", "xyz": [2.05338906375, 1.2795181850000001, 0.10959096624999964]}, {"species": [{"element": "Th", "occu": 1}], "abc": [0.625, 0.875, 0.75], "properties": {"magmom": 0.0}, "label": "Th", "xyz": [1.8897207262499993, 6.115590195, 0.328584403749999]}, {"species": [{"element": "Br", "occu": 1}], "abc": [0.66839384, 0.53605075, 0.80508903], "properties": {"magmom": -0.0}, "label": "Br", "xyz": [2.6324534305700666, 3.5758831810243352, 1.8361338227095683]}, {"species": [{"element": "Br", "occu": 1}], "abc": [0.36330481000000003, 0.16839384000000002, 0.632343099999999], "properties": {"magmom": -0.0}, "label": "Br", "xyz": [1.325398781846211, 0.4810981075781584, 2.956875072179598]}, {"species": [{"element": "Br", "occu": 1}], "abc": [0.33160616, 0.46394925000000004, 0.19491097000000002], "properties": {"magmom": -0.0}, "label": "Br", "xyz": [1.3106563594299327, 3.819225198975665, -1.3979584527095694]}, {"species": [{"element": "Br", "occu": 1}], "abc": [0.96394925, 0.26903728, 0.1323431], "properties": {"magmom": -0.0}, "label": "Br", "xyz": [6.131963363366138, 4.351978779418711, -3.4819309443076643]}, {"species": [{"element": "Br", "occu": 1}], "abc": [0.03605075, 0.7309627200000001, 0.8676569], "properties": {"magmom": -0.0}, "label": "Br", "xyz": [-2.1888535733661385, 3.0431296005812896, 3.9201063143076627]}, {"species": [{"element": "Br", "occu": 1}], "abc": [0.76903728, 0.13669519, 0.30508903], "properties": {"magmom": -0.0}, "label": "Br", "xyz": [4.709964006197066, 2.3289073669361704, -0.9467285691546912]}, {"species": [{"element": "Br", "occu": 1}], "abc": [0.63669519, 0.83160616, 0.3676569], "properties": {"magmom": -0.0}, "label": "Br", "xyz": [2.61771100815379, 6.914010272421844, -2.518699702179606]}, {"species": [{"element": "Br", "occu": 1}], "abc": [0.23096272, 0.86330481, 0.69491097], "properties": {"magmom": -0.0}, "label": "Br", "xyz": [-0.7668542161970664, 5.06620101306383, 1.3849039391546896]}]}, "task_ids": null, "uncorrected_energy_per_atom": null, "energy_per_atom": -4.963534585999997, "formation_energy_per_atom": -2.171205707999996, "energy_above_hull": 0.0, "is_stable": true, "equilibrium_reaction_energy_per_atom": null, "decomposes_to": null, "xas": null, "grain_boundaries": null, "band_gap": 2.6098, "cbm": null, "vbm": null, "efermi": 1.10431725, "is_gap_direct": null, "is_metal": null, "es_source_calc_id": null, "bandstructure": null, "dos": null, "dos_energy_up": null, "dos_energy_down": null, "is_magnetic": null, "ordering": null, "total_magnetization": 0.0, "total_magnetization_normalized_vol": null, "total_magnetization_normalized_formula_units": null, "num_magnetic_sites": null, "num_unique_magnetic_sites": null, "types_of_magnetic_species": null, "bulk_modulus": null, "shear_modulus": null, "universal_anisotropy": null, "homogeneous_poisson": null, "e_total": null, "e_ionic": null, "e_electronic": null, "n": null, "e_ij_max": null, "weighted_surface_energy_EV_PER_ANG2": null, "weighted_surface_energy": null, "weighted_work_function": null, "surface_anisotropy": null, "shape_factor": null, "has_reconstructed": null, "possible_species": null, "has_props": null, "theoretical": null, "database_IDs": null, "fields_not_requested": ["builder_meta", "nsites", "elements", "nelements", "composition", "composition_reduced", "chemsys", "symmetry", "property_name", "deprecated", "deprecation_reasons", "last_updated", "origins", "warnings", "task_ids", "uncorrected_energy_per_atom", "equilibrium_reaction_energy_per_atom", "decomposes_to", "xas", "grain_boundaries", "cbm", "vbm", "is_gap_direct", "is_metal", "es_source_calc_id", "bandstructure", "dos", "dos_energy_up", "dos_energy_down", "is_magnetic", "ordering", "total_magnetization_normalized_vol", "total_magnetization_normalized_formula_units", "num_magnetic_sites", "num_unique_magnetic_sites", "types_of_magnetic_species", "bulk_modulus", "shear_modulus", "universal_anisotropy", "homogeneous_poisson", "e_total", "e_ionic", "e_electronic", "n", "e_ij_max", "weighted_surface_energy_EV_PER_ANG2", "weighted_surface_energy", "weighted_work_function", "surface_anisotropy", "shape_factor", "has_reconstructed", "possible_species", "has_props", "theoretical", "database_IDs"]}