{
  "builder_meta": null,
  "nsites": null,
  "elements": null,
  "nelements": null,
  "composition": null,
  "composition_reduced": null,
  "formula_pretty": "ThBr2",
  "formula_anonymous": "AB2",
  "chemsys": null,
  "volume": 423.99295839573904,
  "density": 6.138551858835083,
  "density_atomic": 35.332746532978256,
  "symmetry": null,
  "property_name": null,
  "material_id": "mp-1208286",
  "deprecated": null,
  "deprecation_reasons": null,
  "last_updated": null,
  "origins": null,
  "warnings": null,
  "structure": {
    "@module": "pymatgen.core.structure",
    "@class": "Structure",
    "charge": 0,
    "lattice": {
      "matrix": [
        [-3.792977999999999, 3.792977999999999, 7.367803],
        [3.792977999999999, -3.792977999999999, 7.367803],
        [3.792977999999999, 3.792977999999999, -7.367803]
      ],
      "pbc": [true, true, true],
      "a": 9.11360989201189,
      "b": 9.11360989201189,
      "c": 9.11360989201189,
      "alpha": 130.81165392479298,
      "beta": 130.81165392479298,
      "gamma": 72.11249272895992,
      "volume": 423.9929583957387
    },
    "properties": {},
    "sites": [
      {
        "species": [{ "element": "Th", "occu": 1 }],
        "abc": [0.375, 0.125, 0.25],
        "properties": { "magmom": 0.046 },
        "label": "Th",
        "xyz": [-1.1102230246251565e-16, 1.8964889999999994, 1.84195075]
      },
      {
        "species": [{ "element": "Th", "occu": 1 }],
        "abc": [0.875, 0.125, 0.75],
        "properties": { "magmom": 0.046 },
        "label": "Th",
        "xyz": [0.0, 5.689466999999999, 1.8419507500000005]
      },
      {
        "species": [{ "element": "Th", "occu": 1 }],
        "abc": [0.875, 0.125, 0.25],
        "properties": { "magmom": -0.048 },
        "label": "Th",
        "xyz": [-1.8964889999999996, 3.792977999999999, 5.52585225]
      },
      {
        "species": [{ "element": "Th", "occu": 1 }],
        "abc": [0.875, 0.625, 0.75],
        "properties": { "magmom": -0.048 },
        "label": "Th",
        "xyz": [1.8964889999999994, 3.7929779999999993, 5.52585225]
      },
      {
        "species": [{ "element": "Br", "occu": 1 }],
        "abc": [0.447135, 0.498672, 0.374865],
        "properties": { "magmom": -0.002 },
        "label": "Br",
        "xyz": [1.6173334051559993, 1.2263759907839997, 4.206588180426]
      },
      {
        "species": [{ "element": "Br", "occu": 1 }],
        "abc": [0.12380799999999902, 0.07227, 0.625135],
        "properties": { "magmom": -0.002 },
        "label": "Br",
        "xyz": [2.175640801866003, 2.5666058021939953, -3.1612074517710074]
      },
      {
        "species": [{ "element": "Br", "occu": 1 }],
        "abc": [0.24867199999999903, 0.373808, 0.551538],
        "properties": { "magmom": 0.001 },
        "label": "Br",
        "xyz": [2.5666095951720025, 1.6173334051559958, 0.5226866804259931]
      },
      {
        "species": [{ "element": "Br", "occu": 1 }],
        "abc": [0.302865, 0.751328, 0.125135],
        "properties": { "magmom": -0.002 },
        "label": "Br",
        "xyz": [2.175644594843999, -1.2263759907839995, 6.845116319574]
      },
      {
        "species": [{ "element": "Br", "occu": 1 }],
        "abc": [0.8222700000000001, 0.697135, 0.44846199999999903],
        "properties": { "magmom": 0.001 },
        "label": "Br",
        "xyz": [1.2263721978059952, 2.1756408018659963, 7.890497048229006]
      },
      {
        "species": [{ "element": "Br", "occu": 1 }],
        "abc": [0.626192, 0.17773000000000003, 0.874865],
        "properties": { "magmom": -0.002 },
        "label": "Br",
        "xyz": [1.617337198134, 5.0193501978059984, -0.5226940482289999]
      },
      {
        "species": [{ "element": "Br", "occu": 1 }],
        "abc": [0.501328, 0.876192, 0.948461999999999],
        "properties": { "magmom": 0.001 },
        "label": "Br",
        "xyz": [5.019346404827994, 2.175644594843996, 3.161214819574007]
      },
      {
        "species": [{ "element": "Br", "occu": 1 }],
        "abc": [0.92773, 0.552864999999999, 0.051538],
        "properties": { "magmom": 0.001 },
        "label": "Br",
        "xyz": [-1.2263721978060034, 1.6173371981340032, 10.529010451770993]
      }
    ]
  },
  "task_ids": null,
  "uncorrected_energy_per_atom": null,
  "energy_per_atom": -5.069745931666667,
  "formation_energy_per_atom": -1.507162158333332,
  "energy_above_hull": 0.302175931666664,
  "is_stable": false,
  "equilibrium_reaction_energy_per_atom": null,
  "decomposes_to": null,
  "xas": null,
  "grain_boundaries": null,
  "band_gap": 0.0,
  "cbm": null,
  "vbm": null,
  "efermi": 4.27882929,
  "is_gap_direct": null,
  "is_metal": null,
  "es_source_calc_id": null,
  "bandstructure": null,
  "dos": null,
  "dos_energy_up": null,
  "dos_energy_down": null,
  "is_magnetic": null,
  "ordering": null,
  "total_magnetization": 0.011609399999999001,
  "total_magnetization_normalized_vol": null,
  "total_magnetization_normalized_formula_units": null,
  "num_magnetic_sites": null,
  "num_unique_magnetic_sites": null,
  "types_of_magnetic_species": null,
  "bulk_modulus": null,
  "shear_modulus": null,
  "universal_anisotropy": null,
  "homogeneous_poisson": null,
  "e_total": null,
  "e_ionic": null,
  "e_electronic": null,
  "n": null,
  "e_ij_max": null,
  "weighted_surface_energy_EV_PER_ANG2": null,
  "weighted_surface_energy": null,
  "weighted_work_function": null,
  "surface_anisotropy": null,
  "shape_factor": null,
  "has_reconstructed": null,
  "possible_species": null,
  "has_props": null,
  "theoretical": null,
  "database_IDs": null,
  "fields_not_requested": [
    "builder_meta",
    "nsites",
    "elements",
    "nelements",
    "composition",
    "composition_reduced",
    "chemsys",
    "symmetry",
    "property_name",
    "deprecated",
    "deprecation_reasons",
    "last_updated",
    "origins",
    "warnings",
    "task_ids",
    "uncorrected_energy_per_atom",
    "equilibrium_reaction_energy_per_atom",
    "decomposes_to",
    "xas",
    "grain_boundaries",
    "cbm",
    "vbm",
    "is_gap_direct",
    "is_metal",
    "es_source_calc_id",
    "bandstructure",
    "dos",
    "dos_energy_up",
    "dos_energy_down",
    "is_magnetic",
    "ordering",
    "total_magnetization_normalized_vol",
    "total_magnetization_normalized_formula_units",
    "num_magnetic_sites",
    "num_unique_magnetic_sites",
    "types_of_magnetic_species",
    "bulk_modulus",
    "shear_modulus",
    "universal_anisotropy",
    "homogeneous_poisson",
    "e_total",
    "e_ionic",
    "e_electronic",
    "n",
    "e_ij_max",
    "weighted_surface_energy_EV_PER_ANG2",
    "weighted_surface_energy",
    "weighted_work_function",
    "surface_anisotropy",
    "shape_factor",
    "has_reconstructed",
    "possible_species",
    "has_props",
    "theoretical",
    "database_IDs"
  ]
}
