{"builder_meta": null, "nsites": null, "elements": null, "nelements": null, "composition": null, "composition_reduced": null, "formula_pretty": "ThC2", "formula_anonymous": "AB2", "chemsys": null, "volume": 93.85557279082359, "density": 9.060660418111523, "density_atomic": 15.642595465137264, "symmetry": null, "property_name": null, "material_id": "mp-7224", "deprecated": null, "deprecation_reasons": null, "last_updated": null, "origins": null, "warnings": null, "structure": {"@module": "pymatgen.core.structure", "@class": "Structure", "charge": 0, "lattice": {"matrix": [[3.90383543, -0.00696322, 0.79569066], [1.57632438, 3.57143956, 0.79569066], [0.00553372, 0.0035992800000000003, 6.72801929]], "pbc": [true, true, true], "a": 3.984106321042059, "b": 3.984106262152983, "c": 6.728022528461514, "alpha": 78.43256647651461, "beta": 78.43256638609684, "gamma": 64.78592759718795, "volume": 93.85557279082359}, "properties": {}, "sites": [{"species": [{"element": "Th", "occu": 1}], "abc": [0.78893855, 0.21106145, 0.25], "properties": {"magmom": 0.0}, "label": "Th", "xyz": [3.4139710028959773, 0.7491994794308311, 2.4776954824999997]}, {"species": [{"element": "Th", "occu": 1}], "abc": [0.21106145, 0.78893855, 0.75], "properties": {"magmom": 0.0}, "label": "Th", "xyz": [2.0717225271040225, 2.818876140569169, 5.8417051275]}, {"species": [{"element": "C", "occu": 1}], "abc": [0.16835257, 0.432937099999999, 0.44690387000000004], "properties": {"magmom": 0.0}, "label": "C", "xyz": [1.3421430741175477, 1.5466449421104105, 3.485218432509134]}, {"species": [{"element": "C", "occu": 1}], "abc": [0.567062899999999, 0.83164743, 0.05309613], "properties": {"magmom": 0.0}, "label": "C", "xyz": [3.5249601786483904, 2.966421055586579, 1.4701725324908648]}, {"species": [{"element": "C", "occu": 1}], "abc": [0.432937099999999, 0.16835257, 0.94690387], "properties": {"magmom": 0.0}, "label": "C", "xyz": [1.9607333513516023, 0.6016545644134208, 6.849228077509133]}, {"species": [{"element": "C", "occu": 1}], "abc": [0.83164743, 0.567062899999999, 0.55309613], "properties": {"magmom": 0.0}, "label": "C", "xyz": [4.143550455882449, 2.0214306778895823, 4.834182177490865]}]}, "task_ids": null, "uncorrected_energy_per_atom": null, "energy_per_atom": -8.87540471666667, "formation_energy_per_atom": -0.251674971666669, "energy_above_hull": 0.0, "is_stable": true, "equilibrium_reaction_energy_per_atom": null, "decomposes_to": null, "xas": null, "grain_boundaries": null, "band_gap": 0.0, "cbm": null, "vbm": null, "efermi": 7.00809941, "is_gap_direct": null, "is_metal": null, "es_source_calc_id": null, "bandstructure": null, "dos": null, "dos_energy_up": null, "dos_energy_down": null, "is_magnetic": null, "ordering": null, "total_magnetization": 1e-07, "total_magnetization_normalized_vol": null, "total_magnetization_normalized_formula_units": null, "num_magnetic_sites": null, "num_unique_magnetic_sites": null, "types_of_magnetic_species": null, "bulk_modulus": null, "shear_modulus": null, "universal_anisotropy": null, "homogeneous_poisson": null, "e_total": null, "e_ionic": null, "e_electronic": null, "n": null, "e_ij_max": null, "weighted_surface_energy_EV_PER_ANG2": null, "weighted_surface_energy": null, "weighted_work_function": null, "surface_anisotropy": null, "shape_factor": null, "has_reconstructed": null, "possible_species": null, "has_props": null, "theoretical": null, "database_IDs": null, "fields_not_requested": ["builder_meta", "nsites", "elements", "nelements", "composition", "composition_reduced", "chemsys", "symmetry", "property_name", "deprecated", "deprecation_reasons", "last_updated", "origins", "warnings", "task_ids", "uncorrected_energy_per_atom", "equilibrium_reaction_energy_per_atom", "decomposes_to", "xas", "grain_boundaries", "cbm", "vbm", "is_gap_direct", "is_metal", "es_source_calc_id", "bandstructure", "dos", "dos_energy_up", "dos_energy_down", "is_magnetic", "ordering", "total_magnetization_normalized_vol", "total_magnetization_normalized_formula_units", "num_magnetic_sites", "num_unique_magnetic_sites", "types_of_magnetic_species", "bulk_modulus", "shear_modulus", "universal_anisotropy", "homogeneous_poisson", "e_total", "e_ionic", "e_electronic", "n", "e_ij_max", "weighted_surface_energy_EV_PER_ANG2", "weighted_surface_energy", "weighted_work_function", "surface_anisotropy", "shape_factor", "has_reconstructed", "possible_species", "has_props", "theoretical", "database_IDs"]}