{"builder_meta": null, "nsites": null, "elements": null, "nelements": null, "composition": null, "composition_reduced": null, "formula_pretty": "ThCd5", "formula_anonymous": "AB5", "chemsys": null, "volume": 879.0285106970819, "density": 9.000544573464984, "density_atomic": 24.417458630474496, "symmetry": null, "property_name": null, "material_id": "mp-1202085", "deprecated": null, "deprecation_reasons": null, "last_updated": null, "origins": null, "warnings": null, "structure": {"@module": "pymatgen.core.structure", "@class": "Structure", "charge": 0, "lattice": {"matrix": [[5.006229, -8.671043, 0.0], [5.006229, 8.671043, 0.0], [0.0, 0.0, 10.124904]], "pbc": [true, true, true], "a": 10.01245801530723, "b": 10.01245801530723, "c": 10.124904, "alpha": 90.0, "beta": 90.0, "gamma": 120.0000001011458, "volume": 879.0285106970819}, "properties": {}, "sites": [{"species": [{"element": "Th", "occu": 1}], "abc": [0.192201999999999, 0.807798, 0.25], "properties": {"magmom": -0.0}, "label": "Th", "xyz": [5.006228999999995, 5.337859386628009, 2.531226]}, {"species": [{"element": "Th", "occu": 1}], "abc": [0.192201999999999, 0.384405, 0.25], "properties": {"magmom": 0.001}, "label": "Th", "xyz": [2.8866266850029954, 1.6666004777290082, 2.531226]}, {"species": [{"element": "Th", "occu": 1}], "abc": [0.615595, 0.807798, 0.25], "properties": {"magmom": 0.001}, "label": "Th", "xyz": [7.125831314997001, 1.6666004777290002, 2.531226]}, {"species": [{"element": "Th", "occu": 1}], "abc": [0.807798, 0.192201999999999, 0.75], "properties": {"magmom": 0.001}, "label": "Th", "xyz": [5.006228999999995, -5.337859386628009, 7.593678000000001]}, {"species": [{"element": "Th", "occu": 1}], "abc": [0.807798, 0.615595, 0.75], "properties": {"magmom": 0.002}, "label": "Th", "xyz": [7.125831314997001, -1.6666004777290002, 7.593678000000001]}, {"species": [{"element": "Th", "occu": 1}], "abc": [0.384405, 0.192201999999999, 0.75], "properties": {"magmom": 0.002}, "label": "Th", "xyz": [2.8866266850029954, -1.6666004777290082, 7.593678000000001]}, {"species": [{"element": "Cd", "occu": 1}], "abc": [0.0, 0.0, 0.5], "properties": {"magmom": 0.0}, "label": "Cd", "xyz": [0.0, 0.0, 5.062452]}, {"species": [{"element": "Cd", "occu": 1}], "abc": [0.0, 0.0, 0.0], "properties": {"magmom": 0.0}, "label": "Cd", "xyz": [0.0, 0.0, 0.0]}, {"species": [{"element": "Cd", "occu": 1}], "abc": [0.333333, 0.666667, 0.468636999999999], "properties": {"magmom": -0.0}, "label": "Cd", "xyz": [5.006229, 2.8903534473619996, 4.74490463584799]}, {"species": [{"element": "Cd", "occu": 1}], "abc": [0.666667, 0.333333, 0.531363], "properties": {"magmom": 0.0}, "label": "Cd", "xyz": [5.006229, -2.8903534473619996, 5.379999364152001]}, {"species": [{"element": "Cd", "occu": 1}], "abc": [0.666667, 0.333333, 0.968637], "properties": {"magmom": 0.0}, "label": "Cd", "xyz": [5.006229, -2.8903534473619996, 9.807356635848]}, {"species": [{"element": "Cd", "occu": 1}], "abc": [0.333333, 0.666667, 0.031363], "properties": {"magmom": -0.0}, "label": "Cd", "xyz": [5.006229, 2.8903534473619996, 0.317547364152]}, {"species": [{"element": "Cd", "occu": 1}], "abc": [0.5, 0.5, 0.5], "properties": {"magmom": 0.0}, "label": "Cd", "xyz": [5.006229, 0.0, 5.062452]}, {"species": [{"element": "Cd", "occu": 1}], "abc": [0.5, 0.0, 0.5], "properties": {"magmom": -0.0}, "label": "Cd", "xyz": [2.5031145, -4.3355215, 5.062452]}, {"species": [{"element": "Cd", "occu": 1}], "abc": [0.0, 0.5, 0.5], "properties": {"magmom": -0.0}, "label": "Cd", "xyz": [2.5031145, 4.3355215, 5.062452]}, {"species": [{"element": "Cd", "occu": 1}], "abc": [0.5, 0.5, 0.0], "properties": {"magmom": 0.0}, "label": "Cd", "xyz": [5.006229, 0.0, 0.0]}, {"species": [{"element": "Cd", "occu": 1}], "abc": [0.5, 0.0, 0.0], "properties": {"magmom": -0.0}, "label": "Cd", "xyz": [2.5031145, -4.3355215, 0.0]}, {"species": [{"element": "Cd", "occu": 1}], "abc": [0.0, 0.5, 0.0], "properties": {"magmom": -0.0}, "label": "Cd", "xyz": [2.5031145, 4.3355215, 0.0]}, {"species": [{"element": "Cd", "occu": 1}], "abc": [0.56627, 0.43373000000000006, 0.25], "properties": {"magmom": -0.0}, "label": "Cd", "xyz": [5.006229000000001, -1.14926003922, 2.531226]}, {"species": [{"element": "Cd", "occu": 1}], "abc": [0.56627, 0.13254000000000002, 0.25], "properties": {"magmom": -0.0}, "label": "Cd", "xyz": [3.4984028874900006, -3.76089148039, 2.531226]}, {"species": [{"element": "Cd", "occu": 1}], "abc": [0.8674600000000001, 0.43373000000000006, 0.25], "properties": {"magmom": -0.0}, "label": "Cd", "xyz": [6.514055112510002, -3.76089148039, 2.531226]}, {"species": [{"element": "Cd", "occu": 1}], "abc": [0.43373000000000006, 0.56627, 0.75], "properties": {"magmom": 0.0}, "label": "Cd", "xyz": [5.006229000000001, 1.14926003922, 7.593678000000001]}, {"species": [{"element": "Cd", "occu": 1}], "abc": [0.43373000000000006, 0.8674600000000001, 0.75], "properties": {"magmom": 0.0}, "label": "Cd", "xyz": [6.514055112510002, 3.76089148039, 7.593678000000001]}, {"species": [{"element": "Cd", "occu": 1}], "abc": [0.13254000000000002, 0.56627, 0.75], "properties": {"magmom": 0.0}, "label": "Cd", "xyz": [3.4984028874900006, 3.76089148039, 7.593678000000001]}, {"species": [{"element": "Cd", "occu": 1}], "abc": [0.843692, 0.156308, 0.403916], "properties": {"magmom": 0.001}, "label": "Cd", "xyz": [5.006229, -5.960336221512, 4.089610724064]}, {"species": [{"element": "Cd", "occu": 1}], "abc": [0.843692, 0.687385, 0.403916], "properties": {"magmom": -0.0}, "label": "Cd", "xyz": [7.664922078633001, -1.3553447182009997, 4.089610724064]}, {"species": [{"element": "Cd", "occu": 1}], "abc": [0.312615, 0.156308, 0.403916], "properties": {"magmom": -0.0}, "label": "Cd", "xyz": [2.347535921367, -1.3553447182009994, 4.089610724064]}, {"species": [{"element": "Cd", "occu": 1}], "abc": [0.156308, 0.843692, 0.596084], "properties": {"magmom": 0.001}, "label": "Cd", "xyz": [5.006229, 5.960336221512, 6.035293275936]}, {"species": [{"element": "Cd", "occu": 1}], "abc": [0.156308, 0.312615, 0.596084], "properties": {"magmom": -0.0}, "label": "Cd", "xyz": [2.347535921367, 1.3553447182009994, 6.035293275936]}, {"species": [{"element": "Cd", "occu": 1}], "abc": [0.687385, 0.843692, 0.596084], "properties": {"magmom": -0.0}, "label": "Cd", "xyz": [7.664922078633001, 1.3553447182009997, 6.035293275936]}, {"species": [{"element": "Cd", "occu": 1}], "abc": [0.156308, 0.843692, 0.903915999999999], "properties": {"magmom": 0.001}, "label": "Cd", "xyz": [5.006229, 5.960336221512, 9.152062724063992]}, {"species": [{"element": "Cd", "occu": 1}], "abc": [0.156308, 0.312615, 0.903915999999999], "properties": {"magmom": -0.0}, "label": "Cd", "xyz": [2.347535921367, 1.3553447182009994, 9.152062724063992]}, {"species": [{"element": "Cd", "occu": 1}], "abc": [0.687385, 0.843692, 0.903915999999999], "properties": {"magmom": -0.0}, "label": "Cd", "xyz": [7.664922078633001, 1.3553447182009997, 9.152062724063992]}, {"species": [{"element": "Cd", "occu": 1}], "abc": [0.843692, 0.156308, 0.096083999999999], "properties": {"magmom": 0.001}, "label": "Cd", "xyz": [5.006229, -5.960336221512, 0.97284127593599]}, {"species": [{"element": "Cd", "occu": 1}], "abc": [0.843692, 0.687385, 0.096083999999999], "properties": {"magmom": -0.0}, "label": "Cd", "xyz": [7.664922078633001, -1.3553447182009997, 0.97284127593599]}, {"species": [{"element": "Cd", "occu": 1}], "abc": [0.312615, 0.156308, 0.096083999999999], "properties": {"magmom": -0.0}, "label": "Cd", "xyz": [2.347535921367, -1.3553447182009994, 0.97284127593599]}]}, "task_ids": null, "uncorrected_energy_per_atom": null, "energy_per_atom": -29.11712041534722, "formation_energy_per_atom": -0.11708698201388401, "energy_above_hull": 0.035018348472224, "is_stable": false, "equilibrium_reaction_energy_per_atom": null, "decomposes_to": null, "xas": null, "grain_boundaries": null, "band_gap": 0.0, "cbm": null, "vbm": null, "efermi": 3.79262709, "is_gap_direct": null, "is_metal": null, "es_source_calc_id": null, "bandstructure": null, "dos": null, "dos_energy_up": null, "dos_energy_down": null, "is_magnetic": null, "ordering": null, "total_magnetization": 0.023167, "total_magnetization_normalized_vol": null, "total_magnetization_normalized_formula_units": null, "num_magnetic_sites": null, "num_unique_magnetic_sites": null, "types_of_magnetic_species": null, "bulk_modulus": null, "shear_modulus": null, "universal_anisotropy": null, "homogeneous_poisson": null, "e_total": null, "e_ionic": null, "e_electronic": null, "n": null, "e_ij_max": null, "weighted_surface_energy_EV_PER_ANG2": null, "weighted_surface_energy": null, "weighted_work_function": null, "surface_anisotropy": null, "shape_factor": null, "has_reconstructed": null, "possible_species": null, "has_props": null, "theoretical": null, "database_IDs": null, "fields_not_requested": ["builder_meta", "nsites", "elements", "nelements", "composition", "composition_reduced", "chemsys", "symmetry", "property_name", "deprecated", "deprecation_reasons", "last_updated", "origins", "warnings", "task_ids", "uncorrected_energy_per_atom", "equilibrium_reaction_energy_per_atom", "decomposes_to", "xas", "grain_boundaries", "cbm", "vbm", "is_gap_direct", "is_metal", "es_source_calc_id", "bandstructure", "dos", "dos_energy_up", "dos_energy_down", "is_magnetic", "ordering", "total_magnetization_normalized_vol", "total_magnetization_normalized_formula_units", "num_magnetic_sites", "num_unique_magnetic_sites", "types_of_magnetic_species", "bulk_modulus", "shear_modulus", "universal_anisotropy", "homogeneous_poisson", "e_total", "e_ionic", "e_electronic", "n", "e_ij_max", "weighted_surface_energy_EV_PER_ANG2", "weighted_surface_energy", "weighted_work_function", "surface_anisotropy", "shape_factor", "has_reconstructed", "possible_species", "has_props", "theoretical", "database_IDs"]}