{"builder_meta": null, "nsites": null, "elements": null, "nelements": null, "composition": null, "composition_reduced": null, "formula_pretty": "ThCd3", "formula_anonymous": "AB3", "chemsys": null, "volume": 199.2380059708744, "density": 9.489121616213934, "density_atomic": 24.9047507463593, "symmetry": null, "property_name": null, "material_id": "mp-1025443", "deprecated": null, "deprecation_reasons": null, "last_updated": null, "origins": null, "warnings": null, "structure": {"@module": "pymatgen.core.structure", "@class": "Structure", "charge": 0, "lattice": {"matrix": [[0.0, 0.0, -4.92701216], [-3.41486474, -5.92222424, 0.0], [-3.41368352, 5.92155133, 0.0]], "pbc": [true, true, true], "a": 4.92701216, "b": 6.836230038649873, "c": 6.835057083049443, "alpha": 120.06866112553547, "beta": 90.0, "gamma": 90.0, "volume": 199.23800597087444}, "properties": {}, "sites": [{"species": [{"element": "Th", "occu": 1}], "abc": [0.25, 0.66690596, 0.33280346], "properties": {"magmom": 0.0}, "label": "Th", "xyz": [-3.41347933450083, -1.978853870920869, -1.23175304]}, {"species": [{"element": "Th", "occu": 1}], "abc": [0.75, 0.333094599999999, 0.66719848], "properties": {"magmom": 0.0}, "label": "Th", "xyz": [-3.4150774603694503, 1.9781891322848801, -3.6952591200000002]}, {"species": [{"element": "Cd", "occu": 1}], "abc": [0.75, 0.84560114, 0.15457556], "properties": {"magmom": 0.0}, "label": "Cd", "xyz": [-3.4152855588565747, -4.092512455776139, -3.6952591200000002]}, {"species": [{"element": "Cd", "occu": 1}], "abc": [0.25, 0.15438824, 0.8454378], "properties": {"magmom": 0.0}, "label": "Cd", "xyz": [-3.413272042091714, 4.091981551723337, -1.23175304]}, {"species": [{"element": "Cd", "occu": 1}], "abc": [0.75, 0.30958305, 0.15527666], "properties": {"magmom": -0.0}, "label": "Cd", "xyz": [-1.5872496168293004, -0.9139415304621745, -3.6952591200000002]}, {"species": [{"element": "Cd", "occu": 1}], "abc": [0.25, 0.6904404, 0.8447366900000001], "properties": {"magmom": -0.0}, "label": "Cd", "xyz": [-5.241424294423846, 0.9132087970140024, -1.23175304]}, {"species": [{"element": "Cd", "occu": 1}], "abc": [0.75, 0.84473052, 0.69023888], "properties": {"magmom": 0.0}, "label": "Cd", "xyz": [-5.240897557069123, -0.915398603930095, -3.6952591200000002]}, {"species": [{"element": "Cd", "occu": 1}], "abc": [0.25, 0.155258099999999, 0.30974046], "properties": {"magmom": 0.0}, "label": "Cd", "xyz": [-1.58754131506861, 0.9146707495914737, -1.23175304]}]}, "task_ids": null, "uncorrected_energy_per_atom": null, "energy_per_atom": -33.63525115875, "formation_energy_per_atom": -0.187694853749995, "energy_above_hull": 0.0, "is_stable": true, "equilibrium_reaction_energy_per_atom": null, "decomposes_to": null, "xas": null, "grain_boundaries": null, "band_gap": 0.0, "cbm": null, "vbm": null, "efermi": 4.05918745, "is_gap_direct": null, "is_metal": null, "es_source_calc_id": null, "bandstructure": null, "dos": null, "dos_energy_up": null, "dos_energy_down": null, "is_magnetic": null, "ordering": null, "total_magnetization": 0.0, "total_magnetization_normalized_vol": null, "total_magnetization_normalized_formula_units": null, "num_magnetic_sites": null, "num_unique_magnetic_sites": null, "types_of_magnetic_species": null, "bulk_modulus": null, "shear_modulus": null, "universal_anisotropy": null, "homogeneous_poisson": null, "e_total": null, "e_ionic": null, "e_electronic": null, "n": null, "e_ij_max": null, "weighted_surface_energy_EV_PER_ANG2": null, "weighted_surface_energy": null, "weighted_work_function": null, "surface_anisotropy": null, "shape_factor": null, "has_reconstructed": null, "possible_species": null, "has_props": null, "theoretical": null, "database_IDs": null, "fields_not_requested": ["builder_meta", "nsites", "elements", "nelements", "composition", "composition_reduced", "chemsys", "symmetry", "property_name", "deprecated", "deprecation_reasons", "last_updated", "origins", "warnings", "task_ids", "uncorrected_energy_per_atom", "equilibrium_reaction_energy_per_atom", "decomposes_to", "xas", "grain_boundaries", "cbm", "vbm", "is_gap_direct", "is_metal", "es_source_calc_id", "bandstructure", "dos", "dos_energy_up", "dos_energy_down", "is_magnetic", "ordering", "total_magnetization_normalized_vol", "total_magnetization_normalized_formula_units", "num_magnetic_sites", "num_unique_magnetic_sites", "types_of_magnetic_species", "bulk_modulus", "shear_modulus", "universal_anisotropy", "homogeneous_poisson", "e_total", "e_ionic", "e_electronic", "n", "e_ij_max", "weighted_surface_energy_EV_PER_ANG2", "weighted_surface_energy", "weighted_work_function", "surface_anisotropy", "shape_factor", "has_reconstructed", "possible_species", "has_props", "theoretical", "database_IDs"]}