{
  "builder_meta": null,
  "nsites": null,
  "elements": null,
  "nelements": null,
  "composition": null,
  "composition_reduced": null,
  "formula_pretty": "ThCl",
  "formula_anonymous": "AB",
  "chemsys": null,
  "volume": 111.852998124152,
  "density": 7.942198466655755,
  "density_atomic": 27.963249531038,
  "symmetry": null,
  "property_name": null,
  "material_id": "mp-1187440",
  "deprecated": null,
  "deprecation_reasons": null,
  "last_updated": null,
  "origins": null,
  "warnings": null,
  "structure": {
    "@module": "pymatgen.core.structure",
    "@class": "Structure",
    "charge": 0,
    "lattice": {
      "matrix": [
        [1.783523, -3.089153, 0.0],
        [1.783523, 3.089153, 0.0],
        [0.0, 0.0, 10.150782]
      ],
      "pbc": [true, true, true],
      "a": 3.567046474176921,
      "b": 3.567046474176921,
      "c": 10.150782,
      "alpha": 90.0,
      "beta": 90.0,
      "gamma": 120.00000879475277,
      "volume": 111.852998124152
    },
    "properties": {},
    "sites": [
      {
        "species": [{ "element": "Th", "occu": 1 }],
        "abc": [0.666667, 0.333333, 0.8300700000000001],
        "properties": { "magmom": -0.269 },
        "label": "Th",
        "xyz": [1.783523, -1.0297197261020001, 8.42585961474]
      },
      {
        "species": [{ "element": "Th", "occu": 1 }],
        "abc": [0.333333, 0.666667, 0.33007000000000003],
        "properties": { "magmom": -0.277 },
        "label": "Th",
        "xyz": [1.783523, 1.0297197261020001, 3.35046861474]
      },
      {
        "species": [{ "element": "Cl", "occu": 1 }],
        "abc": [0.666667, 0.333333, 0.544929],
        "properties": { "magmom": -0.004 },
        "label": "Cl",
        "xyz": [1.783523, -1.0297197261020001, 5.531455484477999]
      },
      {
        "species": [{ "element": "Cl", "occu": 1 }],
        "abc": [0.333333, 0.666667, 0.044929],
        "properties": { "magmom": -0.004 },
        "label": "Cl",
        "xyz": [1.783523, 1.0297197261020001, 0.45606448447799997]
      }
    ]
  },
  "task_ids": null,
  "uncorrected_energy_per_atom": null,
  "energy_per_atom": -40.91972759375001,
  "formation_energy_per_atom": -1.105877070000005,
  "energy_above_hull": 0.406613736874994,
  "is_stable": false,
  "equilibrium_reaction_energy_per_atom": null,
  "decomposes_to": null,
  "xas": null,
  "grain_boundaries": null,
  "band_gap": 0.0,
  "cbm": null,
  "vbm": null,
  "efermi": 6.9982201,
  "is_gap_direct": null,
  "is_metal": null,
  "es_source_calc_id": null,
  "bandstructure": null,
  "dos": null,
  "dos_energy_up": null,
  "dos_energy_down": null,
  "is_magnetic": null,
  "ordering": null,
  "total_magnetization": 1.1137236,
  "total_magnetization_normalized_vol": null,
  "total_magnetization_normalized_formula_units": null,
  "num_magnetic_sites": null,
  "num_unique_magnetic_sites": null,
  "types_of_magnetic_species": null,
  "bulk_modulus": null,
  "shear_modulus": null,
  "universal_anisotropy": null,
  "homogeneous_poisson": null,
  "e_total": null,
  "e_ionic": null,
  "e_electronic": null,
  "n": null,
  "e_ij_max": null,
  "weighted_surface_energy_EV_PER_ANG2": null,
  "weighted_surface_energy": null,
  "weighted_work_function": null,
  "surface_anisotropy": null,
  "shape_factor": null,
  "has_reconstructed": null,
  "possible_species": null,
  "has_props": null,
  "theoretical": null,
  "database_IDs": null,
  "fields_not_requested": [
    "builder_meta",
    "nsites",
    "elements",
    "nelements",
    "composition",
    "composition_reduced",
    "chemsys",
    "symmetry",
    "property_name",
    "deprecated",
    "deprecation_reasons",
    "last_updated",
    "origins",
    "warnings",
    "task_ids",
    "uncorrected_energy_per_atom",
    "equilibrium_reaction_energy_per_atom",
    "decomposes_to",
    "xas",
    "grain_boundaries",
    "cbm",
    "vbm",
    "is_gap_direct",
    "is_metal",
    "es_source_calc_id",
    "bandstructure",
    "dos",
    "dos_energy_up",
    "dos_energy_down",
    "is_magnetic",
    "ordering",
    "total_magnetization_normalized_vol",
    "total_magnetization_normalized_formula_units",
    "num_magnetic_sites",
    "num_unique_magnetic_sites",
    "types_of_magnetic_species",
    "bulk_modulus",
    "shear_modulus",
    "universal_anisotropy",
    "homogeneous_poisson",
    "e_total",
    "e_ionic",
    "e_electronic",
    "n",
    "e_ij_max",
    "weighted_surface_energy_EV_PER_ANG2",
    "weighted_surface_energy",
    "weighted_work_function",
    "surface_anisotropy",
    "shape_factor",
    "has_reconstructed",
    "possible_species",
    "has_props",
    "theoretical",
    "database_IDs"
  ]
}
