{
  "builder_meta": null,
  "nsites": null,
  "elements": null,
  "nelements": null,
  "composition": null,
  "composition_reduced": null,
  "formula_pretty": "ThCl4",
  "formula_anonymous": "AB4",
  "chemsys": null,
  "volume": 272.34551955862787,
  "density": 4.558860602420271,
  "density_atomic": 27.234551955862788,
  "symmetry": null,
  "property_name": null,
  "material_id": "mp-567431",
  "deprecated": null,
  "deprecation_reasons": null,
  "last_updated": null,
  "origins": null,
  "warnings": null,
  "structure": {
    "@module": "pymatgen.core.structure",
    "@class": "Structure",
    "charge": 0,
    "lattice": {
      "matrix": [
        [5.92045997, 0.00016772, -2.62912895],
        [-1.167100169999999, 5.80385365, -2.62912559],
        [-0.0158601, -0.01780271, 7.9425473]
      ],
      "pbc": [true, true, true],
      "a": 6.477975402873223,
      "b": 6.477587619278121,
      "c": 7.942583086880027,
      "alpha": 114.04958194394015,
      "beta": 114.05916655146987,
      "gamma": 89.99520216354834,
      "volume": 272.34551955862787
    },
    "properties": {},
    "sites": [
      {
        "species": [{ "element": "Th", "occu": 1 }],
        "abc": [0.12506732, 0.37502597, 0.25000866],
        "properties": { "magmom": 0.0 },
        "label": "Th",
        "xyz": [0.2987980259252999, 2.1721659894487324, 0.6708971211071315]
      },
      {
        "species": [{ "element": "Th", "occu": 1 }],
        "abc": [0.87493268, 0.62497403, 0.74999134],
        "properties": { "magmom": 0.0 },
        "label": "Th",
        "xyz": [4.438701674074701, 3.614052670551267, 2.0133956388928684]
      },
      {
        "species": [{ "element": "Cl", "occu": 1 }],
        "abc": [0.4631634, 0.33108154, 0.59748922],
        "properties": { "magmom": 0.0 },
        "label": "Cl",
        "xyz": [2.3462588088731144, 1.9109895588302828, 2.6574151383790676]
      },
      {
        "species": [{ "element": "Cl", "occu": 1 }],
        "abc": [0.733686699999999, 0.03700915, 0.90251333],
        "properties": { "magmom": -0.0 },
        "label": "Cl",
        "xyz": [4.286255400949705, 0.1988515611590972, 5.141996165876398]
      },
      {
        "species": [{ "element": "Cl", "occu": 1 }],
        "abc": [0.83112166, 0.63442788, 0.09757287],
        "properties": { "magmom": 0.0 },
        "label": "Cl",
        "xyz": [4.178634116153724, 3.6805289012160993, -3.078139456423756]
      },
      {
        "species": [{ "element": "Cl", "occu": 1 }],
        "abc": [0.2663133, 0.9629908500000001, 0.09748667],
        "properties": { "magmom": -0.0 },
        "label": "Cl",
        "xyz": [0.4512442990502902, 5.587367098840904, -2.457703405876396]
      },
      {
        "species": [{ "element": "Cl", "occu": 1 }],
        "abc": [0.16887834000000002, 0.36557212, 0.90242713],
        "properties": { "magmom": 0.0 },
        "label": "Cl",
        "xyz": [0.5588655838462767, 2.1056897587839, 5.762432216423756]
      },
      {
        "species": [{ "element": "Cl", "occu": 1 }],
        "abc": [0.5368366, 0.66891846, 0.40251078],
        "properties": { "magmom": 0.0 },
        "label": "Cl",
        "xyz": [2.3912408911268863, 3.875229101169717, 0.026877621620932768]
      },
      {
        "species": [{ "element": "Cl", "occu": 1 }],
        "abc": [0.86564554, 0.233654299999999, 0.40247954],
        "properties": { "magmom": -0.0 },
        "label": "Cl",
        "xyz": [4.84593842877545, 1.3490753214316047, 0.30651253473632467]
      },
      {
        "species": [{ "element": "Cl", "occu": 1 }],
        "abc": [0.13435446, 0.7663457, 0.59752046],
        "properties": { "magmom": -0.0 },
        "label": "Cl",
        "xyz": [-0.10843872877544797, 4.437143338568389, 2.3777802252636784]
      }
    ]
  },
  "task_ids": null,
  "uncorrected_energy_per_atom": null,
  "energy_per_atom": -22.036988839,
  "formation_energy_per_atom": -2.419985290999997,
  "energy_above_hull": 0.0,
  "is_stable": true,
  "equilibrium_reaction_energy_per_atom": null,
  "decomposes_to": null,
  "xas": null,
  "grain_boundaries": null,
  "band_gap": 3.6452,
  "cbm": null,
  "vbm": null,
  "efermi": 1.10487212,
  "is_gap_direct": null,
  "is_metal": null,
  "es_source_calc_id": null,
  "bandstructure": null,
  "dos": null,
  "dos_energy_up": null,
  "dos_energy_down": null,
  "is_magnetic": null,
  "ordering": null,
  "total_magnetization": 0.0,
  "total_magnetization_normalized_vol": null,
  "total_magnetization_normalized_formula_units": null,
  "num_magnetic_sites": null,
  "num_unique_magnetic_sites": null,
  "types_of_magnetic_species": null,
  "bulk_modulus": null,
  "shear_modulus": null,
  "universal_anisotropy": null,
  "homogeneous_poisson": null,
  "e_total": null,
  "e_ionic": null,
  "e_electronic": null,
  "n": null,
  "e_ij_max": null,
  "weighted_surface_energy_EV_PER_ANG2": null,
  "weighted_surface_energy": null,
  "weighted_work_function": null,
  "surface_anisotropy": null,
  "shape_factor": null,
  "has_reconstructed": null,
  "possible_species": null,
  "has_props": null,
  "theoretical": null,
  "database_IDs": null,
  "fields_not_requested": [
    "builder_meta",
    "nsites",
    "elements",
    "nelements",
    "composition",
    "composition_reduced",
    "chemsys",
    "symmetry",
    "property_name",
    "deprecated",
    "deprecation_reasons",
    "last_updated",
    "origins",
    "warnings",
    "task_ids",
    "uncorrected_energy_per_atom",
    "equilibrium_reaction_energy_per_atom",
    "decomposes_to",
    "xas",
    "grain_boundaries",
    "cbm",
    "vbm",
    "is_gap_direct",
    "is_metal",
    "es_source_calc_id",
    "bandstructure",
    "dos",
    "dos_energy_up",
    "dos_energy_down",
    "is_magnetic",
    "ordering",
    "total_magnetization_normalized_vol",
    "total_magnetization_normalized_formula_units",
    "num_magnetic_sites",
    "num_unique_magnetic_sites",
    "types_of_magnetic_species",
    "bulk_modulus",
    "shear_modulus",
    "universal_anisotropy",
    "homogeneous_poisson",
    "e_total",
    "e_ionic",
    "e_electronic",
    "n",
    "e_ij_max",
    "weighted_surface_energy_EV_PER_ANG2",
    "weighted_surface_energy",
    "weighted_work_function",
    "surface_anisotropy",
    "shape_factor",
    "has_reconstructed",
    "possible_species",
    "has_props",
    "theoretical",
    "database_IDs"
  ]
}
