{
  "builder_meta": null,
  "nsites": null,
  "elements": null,
  "nelements": null,
  "composition": null,
  "composition_reduced": null,
  "formula_pretty": "ThCl2",
  "formula_anonymous": "AB2",
  "chemsys": null,
  "volume": 315.77806625476626,
  "density": 6.372202510335963,
  "density_atomic": 26.314838854563856,
  "symmetry": null,
  "property_name": null,
  "material_id": "mp-1208314",
  "deprecated": null,
  "deprecation_reasons": null,
  "last_updated": null,
  "origins": null,
  "warnings": null,
  "structure": {
    "@module": "pymatgen.core.structure",
    "@class": "Structure",
    "charge": 0,
    "lattice": {
      "matrix": [
        [-4.112702, 4.112702, 4.667319],
        [4.112702, -4.112702, 4.667319],
        [4.112702, 4.112702, -4.667319]
      ],
      "pbc": [true, true, true],
      "a": 7.45737903886942,
      "b": 7.45737903886942,
      "c": 7.45737903886942,
      "alpha": 113.0608231929954,
      "beta": 113.0608231929954,
      "gamma": 102.50846386504148,
      "volume": 315.77806625476626
    },
    "properties": {},
    "sites": [
      {
        "species": [{ "element": "Th", "occu": 1 }],
        "abc": [0.375, 0.125, 0.25],
        "properties": { "magmom": -0.0 },
        "label": "Th",
        "xyz": [-2.220446049250313e-16, 2.0563510000000003, 1.16682975]
      },
      {
        "species": [{ "element": "Th", "occu": 1 }],
        "abc": [0.875, 0.125, 0.75],
        "properties": { "magmom": -0.0 },
        "label": "Th",
        "xyz": [0.0, 6.169053, 1.1668297499999998]
      },
      {
        "species": [{ "element": "Th", "occu": 1 }],
        "abc": [0.875, 0.125, 0.25],
        "properties": { "magmom": -0.0 },
        "label": "Th",
        "xyz": [-2.0563510000000003, 4.112702, 3.50048925]
      },
      {
        "species": [{ "element": "Th", "occu": 1 }],
        "abc": [0.875, 0.625, 0.75],
        "properties": { "magmom": -0.0 },
        "label": "Th",
        "xyz": [2.056351, 4.1127020000000005, 3.50048925]
      },
      {
        "species": [{ "element": "Cl", "occu": 1 }],
        "abc": [0.185334, 0.417915999999999, 0.232581999999999],
        "properties": { "magmom": 0.0 },
        "label": "Cl",
        "xyz": [1.9130809131279918, 0.0, 1.730025799092]
      },
      {
        "species": [{ "element": "Cl", "occu": 1 }],
        "abc": [0.185334, 0.952753, 0.767417999999999],
        "properties": { "magmom": 0.0 },
        "label": "Cl",
        "xyz": [6.312327199573995, -4.112702003844504e-6, 1.7300304664110042]
      },
      {
        "species": [{ "element": "Cl", "occu": 1 }],
        "abc": [0.167915999999999, 0.435334, 0.732582],
        "properties": { "magmom": -0.0 },
        "label": "Cl",
        "xyz": [4.112702000000004, 1.9130809131279958, -0.6036337009080048]
      },
      {
        "species": [{ "element": "Cl", "occu": 1 }],
        "abc": [0.564666, 0.832083999999999, 0.267418],
        "properties": { "magmom": 0.0 },
        "label": "Cl",
        "xyz": [2.199621086871996, 3.9968028886505635e-15, 5.270952700907996]
      },
      {
        "species": [{ "element": "Cl", "occu": 1 }],
        "abc": [0.702753, 0.435334, 0.267418],
        "properties": { "magmom": -0.0 },
        "label": "Cl",
        "xyz": [-4.112701999847701e-6, 2.1996251995739997, 4.063689966411]
      },
      {
        "species": [{ "element": "Cl", "occu": 1 }],
        "abc": [0.564666, 0.297247, 0.732582],
        "properties": { "magmom": -0.0 },
        "label": "Cl",
        "xyz": [1.9130768004259997, 4.112706112702, 0.6036290335890002]
      },
      {
        "species": [{ "element": "Cl", "occu": 1 }],
        "abc": [0.582083999999999, 0.814666, 0.767417999999999],
        "properties": { "magmom": 0.0 },
        "label": "Cl",
        "xyz": [4.112701999999999, 2.1996210868719923, 2.937293200908]
      },
      {
        "species": [{ "element": "Cl", "occu": 1 }],
        "abc": [0.047247, 0.814666, 0.232581999999999],
        "properties": { "magmom": 0.0 },
        "label": "Cl",
        "xyz": [4.1127061127019955, -2.1996251995740037, 2.9372885335890047]
      }
    ]
  },
  "task_ids": null,
  "uncorrected_energy_per_atom": null,
  "energy_per_atom": -30.44959854166667,
  "formation_energy_per_atom": -1.856218560000002,
  "energy_above_hull": 0.160435849166667,
  "is_stable": false,
  "equilibrium_reaction_energy_per_atom": null,
  "decomposes_to": null,
  "xas": null,
  "grain_boundaries": null,
  "band_gap": 0.0,
  "cbm": null,
  "vbm": null,
  "efermi": 6.1545773,
  "is_gap_direct": null,
  "is_metal": null,
  "es_source_calc_id": null,
  "bandstructure": null,
  "dos": null,
  "dos_energy_up": null,
  "dos_energy_down": null,
  "is_magnetic": null,
  "ordering": null,
  "total_magnetization": 0.005912199999999,
  "total_magnetization_normalized_vol": null,
  "total_magnetization_normalized_formula_units": null,
  "num_magnetic_sites": null,
  "num_unique_magnetic_sites": null,
  "types_of_magnetic_species": null,
  "bulk_modulus": null,
  "shear_modulus": null,
  "universal_anisotropy": null,
  "homogeneous_poisson": null,
  "e_total": null,
  "e_ionic": null,
  "e_electronic": null,
  "n": null,
  "e_ij_max": null,
  "weighted_surface_energy_EV_PER_ANG2": null,
  "weighted_surface_energy": null,
  "weighted_work_function": null,
  "surface_anisotropy": null,
  "shape_factor": null,
  "has_reconstructed": null,
  "possible_species": null,
  "has_props": null,
  "theoretical": null,
  "database_IDs": null,
  "fields_not_requested": [
    "builder_meta",
    "nsites",
    "elements",
    "nelements",
    "composition",
    "composition_reduced",
    "chemsys",
    "symmetry",
    "property_name",
    "deprecated",
    "deprecation_reasons",
    "last_updated",
    "origins",
    "warnings",
    "task_ids",
    "uncorrected_energy_per_atom",
    "equilibrium_reaction_energy_per_atom",
    "decomposes_to",
    "xas",
    "grain_boundaries",
    "cbm",
    "vbm",
    "is_gap_direct",
    "is_metal",
    "es_source_calc_id",
    "bandstructure",
    "dos",
    "dos_energy_up",
    "dos_energy_down",
    "is_magnetic",
    "ordering",
    "total_magnetization_normalized_vol",
    "total_magnetization_normalized_formula_units",
    "num_magnetic_sites",
    "num_unique_magnetic_sites",
    "types_of_magnetic_species",
    "bulk_modulus",
    "shear_modulus",
    "universal_anisotropy",
    "homogeneous_poisson",
    "e_total",
    "e_ionic",
    "e_electronic",
    "n",
    "e_ij_max",
    "weighted_surface_energy_EV_PER_ANG2",
    "weighted_surface_energy",
    "weighted_work_function",
    "surface_anisotropy",
    "shape_factor",
    "has_reconstructed",
    "possible_species",
    "has_props",
    "theoretical",
    "database_IDs"
  ]
}
