{"builder_meta": null, "nsites": null, "elements": null, "nelements": null, "composition": null, "composition_reduced": null, "formula_pretty": "ThCo3", "formula_anonymous": "AB3", "chemsys": null, "volume": 181.30431568084717, "density": 11.233448231000265, "density_atomic": 15.108692973403931, "symmetry": null, "property_name": null, "material_id": "mp-1102437", "deprecated": null, "deprecation_reasons": null, "last_updated": null, "origins": null, "warnings": null, "structure": {"@module": "pymatgen.core.structure", "@class": "Structure", "charge": 0, "lattice": {"matrix": [[-2.485081, -4.304287, 0.0], [-4.970162, 0.0, 0.0], [-2.485081, -1.434762, -8.474935]], "pbc": [true, true, true], "a": 4.970162387179116, "b": 4.970162, "c": 8.947552337227764, "alpha": 73.87471418436472, "beta": 73.87471567846514, "gamma": 60.00000257693429, "volume": 181.30431568084717}, "properties": {}, "sites": [{"species": [{"element": "Th", "occu": 1}], "abc": [0.863310999999999, 0.863310999999999, 0.410066999999999], "properties": {"magmom": -0.093}, "label": "Th", "xyz": [-7.4552429999999905, -4.304286863310995, -3.475291170644992]}, {"species": [{"element": "Th", "occu": 1}], "abc": [0.136689, 0.136689, 0.589932999999999], "properties": {"magmom": -0.093}, "label": "Th", "xyz": [-2.485080999999998, -1.4347621366889987, -4.999643829354992]}, {"species": [{"element": "Th", "occu": 1}], "abc": [0.0, 0.0, 0.0], "properties": {"magmom": -0.10400000000000001}, "label": "Th", "xyz": [0.0, 0.0, 0.0]}, {"species": [{"element": "Co", "occu": 1}], "abc": [0.421178, 0.421178, 0.239637], "properties": {"magmom": 0.259}, "label": "Co", "xyz": [-3.7355016918510002, -2.15669305148, -2.030907998595]}, {"species": [{"element": "Co", "occu": 1}], "abc": [0.918006999999999, 0.421178, 0.239637], "properties": {"magmom": 0.259}, "label": "Co", "xyz": [-4.970161999999998, -4.295187657402996, -2.030907998595]}, {"species": [{"element": "Co", "occu": 1}], "abc": [0.421178, 0.918006999999999, 0.239637], "properties": {"magmom": 0.259}, "label": "Co", "xyz": [-6.204822308148996, -2.15669305148, -2.030907998595]}, {"species": [{"element": "Co", "occu": 1}], "abc": [0.578822, 0.578822, 0.760363], "properties": {"magmom": 0.259}, "label": "Co", "xyz": [-6.204822308149001, -3.58235594852, -6.444027001405001]}, {"species": [{"element": "Co", "occu": 1}], "abc": [0.081993, 0.578822, 0.760363], "properties": {"magmom": 0.259}, "label": "Co", "xyz": [-4.970162, -1.4438613425970002, -6.444027001405001]}, {"species": [{"element": "Co", "occu": 1}], "abc": [0.578822, 0.081993, 0.760363], "properties": {"magmom": 0.259}, "label": "Co", "xyz": [-3.7355016918510002, -3.58235594852, -6.444027001405001]}, {"species": [{"element": "Co", "occu": 1}], "abc": [0.667397, 0.667397, 0.997807999999999], "properties": {"magmom": 0.884}, "label": "Co", "xyz": [-7.455240514918998, -4.304285232634999, -8.456357942479992]}, {"species": [{"element": "Co", "occu": 1}], "abc": [0.332603, 0.332603, 0.002192], "properties": {"magmom": 0.884}, "label": "Co", "xyz": [-2.485083485081, -1.434763767365, -0.01857705752]}, {"species": [{"element": "Co", "occu": 1}], "abc": [0.5, 0.5, 0.5], "properties": {"magmom": 0.088}, "label": "Co", "xyz": [-4.970162, -2.8695245000000003, -4.2374675]}]}, "task_ids": null, "uncorrected_energy_per_atom": null, "energy_per_atom": -28.376652166583337, "formation_energy_per_atom": -0.08216328158333301, "energy_above_hull": 0.026514756166665, "is_stable": false, "equilibrium_reaction_energy_per_atom": null, "decomposes_to": null, "xas": null, "grain_boundaries": null, "band_gap": 0.0, "cbm": null, "vbm": null, "efermi": 6.85106746, "is_gap_direct": null, "is_metal": null, "es_source_calc_id": null, "bandstructure": null, "dos": null, "dos_energy_up": null, "dos_energy_down": null, "is_magnetic": null, "ordering": null, "total_magnetization": 2.6763607, "total_magnetization_normalized_vol": null, "total_magnetization_normalized_formula_units": null, "num_magnetic_sites": null, "num_unique_magnetic_sites": null, "types_of_magnetic_species": null, "bulk_modulus": null, "shear_modulus": null, "universal_anisotropy": null, "homogeneous_poisson": null, "e_total": null, "e_ionic": null, "e_electronic": null, "n": null, "e_ij_max": null, "weighted_surface_energy_EV_PER_ANG2": null, "weighted_surface_energy": null, "weighted_work_function": null, "surface_anisotropy": null, "shape_factor": null, "has_reconstructed": null, "possible_species": null, "has_props": null, "theoretical": null, "database_IDs": null, "fields_not_requested": ["builder_meta", "nsites", "elements", "nelements", "composition", "composition_reduced", "chemsys", "symmetry", "property_name", "deprecated", "deprecation_reasons", "last_updated", "origins", "warnings", "task_ids", "uncorrected_energy_per_atom", "equilibrium_reaction_energy_per_atom", "decomposes_to", "xas", "grain_boundaries", "cbm", "vbm", "is_gap_direct", "is_metal", "es_source_calc_id", "bandstructure", "dos", "dos_energy_up", "dos_energy_down", "is_magnetic", "ordering", "total_magnetization_normalized_vol", "total_magnetization_normalized_formula_units", "num_magnetic_sites", "num_unique_magnetic_sites", "types_of_magnetic_species", "bulk_modulus", "shear_modulus", "universal_anisotropy", "homogeneous_poisson", "e_total", "e_ionic", "e_electronic", "n", "e_ij_max", "weighted_surface_energy_EV_PER_ANG2", "weighted_surface_energy", "weighted_work_function", "surface_anisotropy", "shape_factor", "has_reconstructed", "possible_species", "has_props", "theoretical", "database_IDs"]}