{
  "builder_meta": null,
  "nsites": null,
  "elements": null,
  "nelements": null,
  "composition": null,
  "composition_reduced": null,
  "formula_pretty": "ThCo",
  "formula_anonymous": "AB",
  "chemsys": null,
  "volume": 81.56075390338545,
  "density": 11.848079206268224,
  "density_atomic": 20.39018847584636,
  "symmetry": null,
  "property_name": null,
  "material_id": "mp-30564",
  "deprecated": null,
  "deprecation_reasons": null,
  "last_updated": null,
  "origins": null,
  "warnings": null,
  "structure": {
    "@module": "pymatgen.core.structure",
    "@class": "Structure",
    "charge": 0,
    "lattice": {
      "matrix": [
        [3.48397528, 0.0, -1.1976157],
        [0.0, 3.95744871, -0.0],
        [0.07657458, -0.0, 5.88916951]
      ],
      "pbc": [true, true, true],
      "a": 3.6840693691266955,
      "b": 3.95744871,
      "c": 5.88966732369629,
      "alpha": 90.0,
      "beta": 108.22544325576554,
      "gamma": 90.0,
      "volume": 81.56075390338545
    },
    "properties": {},
    "sites": [
      {
        "species": [{ "element": "Th", "occu": 1 }],
        "abc": [0.8678271, 0.25, 0.7356552],
        "properties": { "magmom": -0.0 },
        "label": "Th",
        "xyz": [3.079820651678904, 0.9893621775, 3.2930748138674817]
      },
      {
        "species": [{ "element": "Th", "occu": 1 }],
        "abc": [0.132172899999999, 0.75, 0.2643448],
        "properties": { "magmom": -0.0 },
        "label": "Th",
        "xyz": [0.48072920832109256, 2.9680865325, 1.3984789961325192]
      },
      {
        "species": [{ "element": "Co", "occu": 1 }],
        "abc": [0.5915916, 0.25, 0.1831832],
        "properties": { "magmom": 0.0 },
        "label": "Co",
        "xyz": [2.0751176868587042, 0.9893621775, 0.3702975280361118]
      },
      {
        "species": [{ "element": "Co", "occu": 1 }],
        "abc": [0.4084084, 0.75, 0.8168168],
        "properties": { "magmom": 0.0 },
        "label": "Co",
        "xyz": [1.485432173141296, 2.9680865325, 4.321256281963888]
      }
    ]
  },
  "task_ids": null,
  "uncorrected_energy_per_atom": null,
  "energy_per_atom": -43.5442825775,
  "formation_energy_per_atom": -0.189535937499996,
  "energy_above_hull": 0.0,
  "is_stable": true,
  "equilibrium_reaction_energy_per_atom": null,
  "decomposes_to": null,
  "xas": null,
  "grain_boundaries": null,
  "band_gap": 0.0,
  "cbm": null,
  "vbm": null,
  "efermi": 7.43542973,
  "is_gap_direct": null,
  "is_metal": null,
  "es_source_calc_id": null,
  "bandstructure": null,
  "dos": null,
  "dos_energy_up": null,
  "dos_energy_down": null,
  "is_magnetic": null,
  "ordering": null,
  "total_magnetization": 0.0,
  "total_magnetization_normalized_vol": null,
  "total_magnetization_normalized_formula_units": null,
  "num_magnetic_sites": null,
  "num_unique_magnetic_sites": null,
  "types_of_magnetic_species": null,
  "bulk_modulus": null,
  "shear_modulus": null,
  "universal_anisotropy": null,
  "homogeneous_poisson": null,
  "e_total": null,
  "e_ionic": null,
  "e_electronic": null,
  "n": null,
  "e_ij_max": null,
  "weighted_surface_energy_EV_PER_ANG2": null,
  "weighted_surface_energy": null,
  "weighted_work_function": null,
  "surface_anisotropy": null,
  "shape_factor": null,
  "has_reconstructed": null,
  "possible_species": null,
  "has_props": null,
  "theoretical": null,
  "database_IDs": null,
  "fields_not_requested": [
    "builder_meta",
    "nsites",
    "elements",
    "nelements",
    "composition",
    "composition_reduced",
    "chemsys",
    "symmetry",
    "property_name",
    "deprecated",
    "deprecation_reasons",
    "last_updated",
    "origins",
    "warnings",
    "task_ids",
    "uncorrected_energy_per_atom",
    "equilibrium_reaction_energy_per_atom",
    "decomposes_to",
    "xas",
    "grain_boundaries",
    "cbm",
    "vbm",
    "is_gap_direct",
    "is_metal",
    "es_source_calc_id",
    "bandstructure",
    "dos",
    "dos_energy_up",
    "dos_energy_down",
    "is_magnetic",
    "ordering",
    "total_magnetization_normalized_vol",
    "total_magnetization_normalized_formula_units",
    "num_magnetic_sites",
    "num_unique_magnetic_sites",
    "types_of_magnetic_species",
    "bulk_modulus",
    "shear_modulus",
    "universal_anisotropy",
    "homogeneous_poisson",
    "e_total",
    "e_ionic",
    "e_electronic",
    "n",
    "e_ij_max",
    "weighted_surface_energy_EV_PER_ANG2",
    "weighted_surface_energy",
    "weighted_work_function",
    "surface_anisotropy",
    "shape_factor",
    "has_reconstructed",
    "possible_species",
    "has_props",
    "theoretical",
    "database_IDs"
  ]
}
