{"builder_meta": null, "nsites": null, "elements": null, "nelements": null, "composition": null, "composition_reduced": null, "formula_pretty": "ThCo5", "formula_anonymous": "AB5", "chemsys": null, "volume": 84.67845669194553, "density": 10.328632108106728, "density_atomic": 14.113076115324255, "symmetry": null, "property_name": null, "material_id": "mp-809", "deprecated": null, "deprecation_reasons": null, "last_updated": null, "origins": null, "warnings": null, "structure": {"@module": "pymatgen.core.structure", "@class": "Structure", "charge": 0, "lattice": {"matrix": [[4.94884117, -0.0001451, 0.0], [-2.47454802, 4.28615435, 0.0], [0.0, 0.0, 3.992169419999999]], "pbc": [true, true, true], "a": 4.948841172127166, "b": 4.949192561954914, "c": 3.992169419999999, "alpha": 90.0, "beta": 90.0, "gamma": 120.00103477439187, "volume": 84.6784566919455}, "properties": {}, "sites": [{"species": [{"element": "Th", "occu": 1}], "abc": [-0.0, -0.0, -0.0], "properties": {"magmom": -0.46900000000000003}, "label": "Th", "xyz": [0.0, 0.0, 0.0]}, {"species": [{"element": "Co", "occu": 1}], "abc": [0.33339369, 0.66673944, 0.0], "properties": {"magmom": 1.5}, "label": "Co", "xyz": [3.365778230857153e-05, 2.857699775648145, 0.0]}, {"species": [{"element": "Co", "occu": 1}], "abc": [0.66660631, 0.33326056, -0.0], "properties": {"magmom": 1.5}, "label": "Co", "xyz": [2.4742594922176915, 1.4283094743518552, 0.0]}, {"species": [{"element": "Co", "occu": 1}], "abc": [0.5, -0.0, 0.5], "properties": {"magmom": 1.679}, "label": "Co", "xyz": [2.474420585, -7.255e-05, 1.9960847099999994]}, {"species": [{"element": "Co", "occu": 1}], "abc": [0.5, 0.5, 0.5], "properties": {"magmom": 1.679}, "label": "Co", "xyz": [1.237146575, 2.143004625, 1.9960847099999994]}, {"species": [{"element": "Co", "occu": 1}], "abc": [-0.0, 0.5, 0.5], "properties": {"magmom": 1.679}, "label": "Co", "xyz": [-1.23727401, 2.143077175, 1.9960847099999994]}]}, "task_ids": null, "uncorrected_energy_per_atom": null, "energy_per_atom": -23.319829145, "formation_energy_per_atom": -0.045426178333334004, "energy_above_hull": 0.036299226166665005, "is_stable": false, "equilibrium_reaction_energy_per_atom": null, "decomposes_to": null, "xas": null, "grain_boundaries": null, "band_gap": 0.0, "cbm": null, "vbm": null, "efermi": 6.23907357, "is_gap_direct": null, "is_metal": null, "es_source_calc_id": null, "bandstructure": null, "dos": null, "dos_energy_up": null, "dos_energy_down": null, "is_magnetic": null, "ordering": null, "total_magnetization": 6.9325943, "total_magnetization_normalized_vol": null, "total_magnetization_normalized_formula_units": null, "num_magnetic_sites": null, "num_unique_magnetic_sites": null, "types_of_magnetic_species": null, "bulk_modulus": null, "shear_modulus": null, "universal_anisotropy": null, "homogeneous_poisson": null, "e_total": null, "e_ionic": null, "e_electronic": null, "n": null, "e_ij_max": null, "weighted_surface_energy_EV_PER_ANG2": null, "weighted_surface_energy": null, "weighted_work_function": null, "surface_anisotropy": null, "shape_factor": null, "has_reconstructed": null, "possible_species": null, "has_props": null, "theoretical": null, "database_IDs": null, "fields_not_requested": ["builder_meta", "nsites", "elements", "nelements", "composition", "composition_reduced", "chemsys", "symmetry", "property_name", "deprecated", "deprecation_reasons", "last_updated", "origins", "warnings", "task_ids", "uncorrected_energy_per_atom", "equilibrium_reaction_energy_per_atom", "decomposes_to", "xas", "grain_boundaries", "cbm", "vbm", "is_gap_direct", "is_metal", "es_source_calc_id", "bandstructure", "dos", "dos_energy_up", "dos_energy_down", "is_magnetic", "ordering", "total_magnetization_normalized_vol", "total_magnetization_normalized_formula_units", "num_magnetic_sites", "num_unique_magnetic_sites", "types_of_magnetic_species", "bulk_modulus", "shear_modulus", "universal_anisotropy", "homogeneous_poisson", "e_total", "e_ionic", "e_electronic", "n", "e_ij_max", "weighted_surface_energy_EV_PER_ANG2", "weighted_surface_energy", "weighted_work_function", "surface_anisotropy", "shape_factor", "has_reconstructed", "possible_species", "has_props", "theoretical", "database_IDs"]}