{
  "builder_meta": null,
  "nsites": null,
  "elements": null,
  "nelements": null,
  "composition": null,
  "composition_reduced": null,
  "formula_pretty": "ThCu6",
  "formula_anonymous": "AB6",
  "chemsys": null,
  "volume": 407.4451048977848,
  "density": 9.99822498277945,
  "density_atomic": 14.5516108892066,
  "symmetry": null,
  "property_name": null,
  "material_id": "mp-12834",
  "deprecated": null,
  "deprecation_reasons": null,
  "last_updated": null,
  "origins": null,
  "warnings": null,
  "structure": {
    "@module": "pymatgen.core.structure",
    "@class": "Structure",
    "charge": 0,
    "lattice": {
      "matrix": [
        [5.04011191, 0.0, 0.0],
        [-0.0, 8.02552918, 0.0],
        [0.0, 0.0, 10.0729168]
      ],
      "pbc": [true, true, true],
      "a": 5.04011191,
      "b": 8.02552918,
      "c": 10.0729168,
      "alpha": 90.0,
      "beta": 90.0,
      "gamma": 90.0,
      "volume": 407.4451048977848
    },
    "properties": {},
    "sites": [
      {
        "species": [{ "element": "Th", "occu": 1 }],
        "abc": [0.25, 0.7607301, 0.06565005],
        "properties": { "magmom": 0.0 },
        "label": "Th",
        "xyz": [1.2600279775, 6.105261615654317, 0.66128749156584]
      },
      {
        "species": [{ "element": "Th", "occu": 1 }],
        "abc": [0.75, 0.239269899999999, 0.93434995],
        "properties": { "magmom": 0.0 },
        "label": "Th",
        "xyz": [3.7800839325, 1.920267564345674, 9.41162930843416]
      },
      {
        "species": [{ "element": "Th", "occu": 1 }],
        "abc": [0.25, 0.260730099999999, 0.43434995],
        "properties": { "magmom": 0.0 },
        "label": "Th",
        "xyz": [1.2600279775, 2.09249702565431, 4.37517090843416]
      },
      {
        "species": [{ "element": "Th", "occu": 1 }],
        "abc": [0.75, 0.739269899999999, 0.56565005],
        "properties": { "magmom": 0.0 },
        "label": "Th",
        "xyz": [3.7800839325, 5.933032154345674, 5.69774589156584]
      },
      {
        "species": [{ "element": "Cu", "occu": 1 }],
        "abc": [0.99577286, 0.06472785, 0.69006221],
        "properties": { "magmom": -0.0 },
        "label": "Cu",
        "xyz": [5.018806651340762, 0.519475248933663, 6.950939228154128]
      },
      {
        "species": [{ "element": "Cu", "occu": 1 }],
        "abc": [0.49577286000000004, 0.93527215, 0.30993779],
        "properties": { "magmom": -0.0 },
        "label": "Cu",
        "xyz": [2.498750696340763, 7.506053931066337, 3.1219775718458718]
      },
      {
        "species": [{ "element": "Cu", "occu": 1 }],
        "abc": [0.50422714, 0.56472785, 0.80993779],
        "properties": { "magmom": -0.0 },
        "label": "Cu",
        "xyz": [2.5413612136592376, 4.532239838933663, 8.158435971845872]
      },
      {
        "species": [{ "element": "Cu", "occu": 1 }],
        "abc": [0.00422714, 0.43527215, 0.19006221],
        "properties": { "magmom": -0.0 },
        "label": "Cu",
        "xyz": [0.0213052586592374, 3.493289341066337, 1.9144808281541281]
      },
      {
        "species": [{ "element": "Cu", "occu": 1 }],
        "abc": [0.75, 0.85460158, 0.8592802700000001],
        "properties": { "magmom": -0.0 },
        "label": "Cu",
        "xyz": [3.7800839325, 6.8586299175641035, 8.655458667591537]
      },
      {
        "species": [{ "element": "Cu", "occu": 1 }],
        "abc": [0.25, 0.14539842, 0.14071973000000002],
        "properties": { "magmom": -0.0 },
        "label": "Cu",
        "xyz": [1.2600279775, 1.1668992624358956, 1.417458132408464]
      },
      {
        "species": [{ "element": "Cu", "occu": 1 }],
        "abc": [0.75, 0.35460158, 0.64071973],
        "properties": { "magmom": -0.0 },
        "label": "Cu",
        "xyz": [3.7800839325, 2.8458653275641046, 6.453916532408464]
      },
      {
        "species": [{ "element": "Cu", "occu": 1 }],
        "abc": [0.25, 0.64539842, 0.35928027],
        "properties": { "magmom": -0.0 },
        "label": "Cu",
        "xyz": [1.2600279775, 5.179663852435896, 3.6190002675915363]
      },
      {
        "species": [{ "element": "Cu", "occu": 1 }],
        "abc": [0.75, 0.18193257000000002, 0.24474277],
        "properties": { "magmom": -0.0 },
        "label": "Cu",
        "xyz": [3.7800839325, 1.4601051493273927, 2.465273559611536]
      },
      {
        "species": [{ "element": "Cu", "occu": 1 }],
        "abc": [0.25, 0.81806743, 0.75525723],
        "properties": { "magmom": -0.0 },
        "label": "Cu",
        "xyz": [1.2600279775, 6.565424030672608, 7.607643240388464]
      },
      {
        "species": [{ "element": "Cu", "occu": 1 }],
        "abc": [0.75, 0.68193257, 0.25525723],
        "properties": { "magmom": -0.0 },
        "label": "Cu",
        "xyz": [3.7800839325, 5.4728697393273915, 2.571184840388464]
      },
      {
        "species": [{ "element": "Cu", "occu": 1 }],
        "abc": [0.25, 0.31806743, 0.74474277],
        "properties": { "magmom": -0.0 },
        "label": "Cu",
        "xyz": [1.2600279775, 2.552659440672607, 7.5017319596115355]
      },
      {
        "species": [{ "element": "Cu", "occu": 1 }],
        "abc": [0.75, 0.43839905, 0.4002304],
        "properties": { "magmom": 0.0 },
        "label": "Cu",
        "xyz": [3.7800839325, 3.518384368259279, 4.03148752003072]
      },
      {
        "species": [{ "element": "Cu", "occu": 1 }],
        "abc": [0.25, 0.56160095, 0.5997696],
        "properties": { "magmom": 0.0 },
        "label": "Cu",
        "xyz": [1.2600279775, 4.50714481174072, 6.04142927996928]
      },
      {
        "species": [{ "element": "Cu", "occu": 1 }],
        "abc": [0.75, 0.93839905, 0.0997696],
        "properties": { "magmom": 0.0 },
        "label": "Cu",
        "xyz": [3.7800839325, 7.531148958259279, 1.00497087996928]
      },
      {
        "species": [{ "element": "Cu", "occu": 1 }],
        "abc": [0.25, 0.06160095, 0.9002304],
        "properties": { "magmom": 0.0 },
        "label": "Cu",
        "xyz": [1.2600279775, 0.494380221740721, 9.06794592003072]
      },
      {
        "species": [{ "element": "Cu", "occu": 1 }],
        "abc": [0.75, 0.09912944, 0.48470024],
        "properties": { "magmom": -0.0 },
        "label": "Cu",
        "xyz": [3.7800839325, 0.7955662133170591, 4.882345190460032]
      },
      {
        "species": [{ "element": "Cu", "occu": 1 }],
        "abc": [0.25, 0.90087056, 0.51529976],
        "properties": { "magmom": -0.0 },
        "label": "Cu",
        "xyz": [1.2600279775, 7.22996296668294, 5.190571609539968]
      },
      {
        "species": [{ "element": "Cu", "occu": 1 }],
        "abc": [0.75, 0.59912944, 0.01529976],
        "properties": { "magmom": -0.0 },
        "label": "Cu",
        "xyz": [3.7800839325, 4.808330803317059, 0.15411320953996802]
      },
      {
        "species": [{ "element": "Cu", "occu": 1 }],
        "abc": [0.25, 0.40087056, 0.98470024],
        "properties": { "magmom": -0.0 },
        "label": "Cu",
        "xyz": [1.2600279775, 3.2171983766829406, 9.918803590460032]
      },
      {
        "species": [{ "element": "Cu", "occu": 1 }],
        "abc": [0.99577286, 0.56472785, 0.80993779],
        "properties": { "magmom": -0.0 },
        "label": "Cu",
        "xyz": [5.018806651340762, 4.532239838933663, 8.158435971845872]
      },
      {
        "species": [{ "element": "Cu", "occu": 1 }],
        "abc": [0.49577286000000004, 0.43527215, 0.19006221],
        "properties": { "magmom": -0.0 },
        "label": "Cu",
        "xyz": [2.498750696340763, 3.493289341066337, 1.9144808281541281]
      },
      {
        "species": [{ "element": "Cu", "occu": 1 }],
        "abc": [0.50422714, 0.06472785, 0.69006221],
        "properties": { "magmom": -0.0 },
        "label": "Cu",
        "xyz": [2.5413612136592376, 0.519475248933663, 6.950939228154128]
      },
      {
        "species": [{ "element": "Cu", "occu": 1 }],
        "abc": [0.00422714, 0.93527215, 0.30993779],
        "properties": { "magmom": -0.0 },
        "label": "Cu",
        "xyz": [0.0213052586592374, 7.506053931066337, 3.1219775718458718]
      }
    ]
  },
  "task_ids": null,
  "uncorrected_energy_per_atom": null,
  "energy_per_atom": -4.713596037142856,
  "formation_energy_per_atom": -0.140867712857141,
  "energy_above_hull": 0.0,
  "is_stable": true,
  "equilibrium_reaction_energy_per_atom": null,
  "decomposes_to": null,
  "xas": null,
  "grain_boundaries": null,
  "band_gap": 0.0,
  "cbm": null,
  "vbm": null,
  "efermi": 7.10666207,
  "is_gap_direct": null,
  "is_metal": null,
  "es_source_calc_id": null,
  "bandstructure": null,
  "dos": null,
  "dos_energy_up": null,
  "dos_energy_down": null,
  "is_magnetic": null,
  "ordering": null,
  "total_magnetization": 1e-7,
  "total_magnetization_normalized_vol": null,
  "total_magnetization_normalized_formula_units": null,
  "num_magnetic_sites": null,
  "num_unique_magnetic_sites": null,
  "types_of_magnetic_species": null,
  "bulk_modulus": null,
  "shear_modulus": null,
  "universal_anisotropy": null,
  "homogeneous_poisson": null,
  "e_total": null,
  "e_ionic": null,
  "e_electronic": null,
  "n": null,
  "e_ij_max": null,
  "weighted_surface_energy_EV_PER_ANG2": null,
  "weighted_surface_energy": null,
  "weighted_work_function": null,
  "surface_anisotropy": null,
  "shape_factor": null,
  "has_reconstructed": null,
  "possible_species": null,
  "has_props": null,
  "theoretical": null,
  "database_IDs": null,
  "fields_not_requested": [
    "builder_meta",
    "nsites",
    "elements",
    "nelements",
    "composition",
    "composition_reduced",
    "chemsys",
    "symmetry",
    "property_name",
    "deprecated",
    "deprecation_reasons",
    "last_updated",
    "origins",
    "warnings",
    "task_ids",
    "uncorrected_energy_per_atom",
    "equilibrium_reaction_energy_per_atom",
    "decomposes_to",
    "xas",
    "grain_boundaries",
    "cbm",
    "vbm",
    "is_gap_direct",
    "is_metal",
    "es_source_calc_id",
    "bandstructure",
    "dos",
    "dos_energy_up",
    "dos_energy_down",
    "is_magnetic",
    "ordering",
    "total_magnetization_normalized_vol",
    "total_magnetization_normalized_formula_units",
    "num_magnetic_sites",
    "num_unique_magnetic_sites",
    "types_of_magnetic_species",
    "bulk_modulus",
    "shear_modulus",
    "universal_anisotropy",
    "homogeneous_poisson",
    "e_total",
    "e_ionic",
    "e_electronic",
    "n",
    "e_ij_max",
    "weighted_surface_energy_EV_PER_ANG2",
    "weighted_surface_energy",
    "weighted_work_function",
    "surface_anisotropy",
    "shape_factor",
    "has_reconstructed",
    "possible_species",
    "has_props",
    "theoretical",
    "database_IDs"
  ]
}
