{"builder_meta": null, "nsites": null, "elements": null, "nelements": null, "composition": null, "composition_reduced": null, "formula_pretty": "ThF4", "formula_anonymous": "AB4", "chemsys": null, "volume": 498.57564794025814, "density": 6.155518768889077, "density_atomic": 16.61918826467527, "symmetry": null, "property_name": null, "material_id": "mp-31034", "deprecated": null, "deprecation_reasons": null, "last_updated": null, "origins": null, "warnings": null, "structure": {"@module": "pymatgen.core.structure", "@class": "Structure", "charge": 0, "lattice": {"matrix": [[7.6432366, 0.00266319, 3.86180992], [3.63916278, 7.62559906, 1.394905759999999], [0.01969554, 0.03163414, 8.5637407]], "pbc": [true, true, true], "a": 8.563448410212498, "b": 8.56382092541007, "c": 8.563821775933098, "alpha": 80.37792732036316, "beta": 63.06277957092452, "gamma": 63.062784771205195, "volume": 498.5756479402582}, "properties": {}, "sites": [{"species": [{"element": "Th", "occu": 1}], "abc": [0.25, 0.21283124, 0.78716876], "properties": {"magmom": 0.0}, "label": "Th", "xyz": [2.700840390828578, 1.6485329079401008, 8.003441150364475]}, {"species": [{"element": "Th", "occu": 1}], "abc": [0.75, 0.78716876, 0.21283124], "properties": {"magmom": 0.0}, "label": "Th", "xyz": [8.601254529171422, 6.011363482059899, 5.817015229635524]}, {"species": [{"element": "Th", "occu": 1}], "abc": [0.16979348, 0.77586215, 0.63211227], "properties": {"magmom": 0.0}, "label": "Th", "xyz": [4.133710191966421, 5.936862202072478, 7.151210300984694]}, {"species": [{"element": "Th", "occu": 1}], "abc": [0.33020652, 0.36788773, 0.22413785], "properties": {"magmom": 0.0}, "label": "Th", "xyz": [3.8670644094475106, 2.8133341389017317, 3.7078219566504975]}, {"species": [{"element": "Th", "occu": 1}], "abc": [0.8302065200000001, 0.22413785, 0.36788773], "properties": {"magmom": 0.0}, "label": "Th", "xyz": [7.168384728033579, 1.723034187927522, 6.669246079015306]}, {"species": [{"element": "Th", "occu": 1}], "abc": [0.66979348, 0.63211227, 0.77586215], "properties": {"magmom": 0.0}, "label": "Th", "xyz": [7.43503051055249, 4.846562251098269, 10.112634423349501]}, {"species": [{"element": "F", "occu": 1}], "abc": [0.39766432, 0.68118293, 0.7397695200000001], "properties": {"magmom": -0.0}, "label": "F", "xyz": [5.532948210537398, 5.218888938899839, 8.821084355520195]}, {"species": [{"element": "F", "occu": 1}], "abc": [0.10233568, 0.26023048, 0.31881707], "properties": {"magmom": -0.0}, "label": "F", "xyz": [1.7354761662542901, 1.9947713468577377, 3.488464657887259]}, {"species": [{"element": "F", "occu": 1}], "abc": [0.60233568, 0.31881707, 0.26023048], "properties": {"magmom": -0.0}, "label": "F", "xyz": [5.7691467094626026, 2.4410074511001607, 4.999372024479804]}, {"species": [{"element": "F", "occu": 1}], "abc": [0.8976643200000001, 0.7397695200000001, 0.68118293], "properties": {"magmom": -0.0}, "label": "F", "xyz": [9.56661875374571, 5.665125043142262, 10.33199172211274]}, {"species": [{"element": "F", "occu": 1}], "abc": [0.56756632, 0.18677069000000002, 0.59821228], "properties": {"magmom": -0.0}, "label": "F", "xyz": [5.029514727283461, 1.4446738660625513, 7.575295605589865]}, {"species": [{"element": "F", "occu": 1}], "abc": [0.93243368, 0.40178772, 0.81322931], "properties": {"magmom": -0.0}, "label": "F", "xyz": [8.604999136538028, 3.0920811178484255, 11.125622580571289]}, {"species": [{"element": "F", "occu": 1}], "abc": [0.75, 0.39656798, 0.60343202], "properties": {"magmom": -0.0}, "label": "F", "xyz": [7.187487802042974, 3.045154861015261, 8.617167748890779]}, {"species": [{"element": "F", "occu": 1}], "abc": [0.25, 0.60343202, 0.39656798], "properties": {"magmom": -0.0}, "label": "F", "xyz": [4.114607117957024, 4.614741528984737, 5.203288631109221]}, {"species": [{"element": "F", "occu": 1}], "abc": [0.71938778, 0.7378087, 0.49735125], "properties": {"magmom": -0.0}, "label": "F", "xyz": [8.193252570927358, 5.643882474593315, 8.066499612359765]}, {"species": [{"element": "F", "occu": 1}], "abc": [0.78061222, 0.50264875, 0.262191299999999], "properties": {"magmom": -0.0}, "label": "F", "xyz": [7.800788511961579, 3.8433709504593385, 5.9610619584969236]}, {"species": [{"element": "F", "occu": 1}], "abc": [0.28061122, 0.262191299999999, 0.50264875], "properties": {"magmom": -0.0}, "label": "F", "xyz": [3.1088347058360375, 2.016013912743487, 5.753952905830313]}, {"species": [{"element": "F", "occu": 1}], "abc": [0.21938878, 0.49735125, 0.7378087], "properties": {"magmom": -0.0}, "label": "F", "xyz": [3.501314051275021, 3.8165254422038517, 7.859398283312988]}, {"species": [{"element": "F", "occu": 1}], "abc": [0.84480052, 0.97343293, 0.27767805], "properties": {"magmom": -0.0}, "label": "F", "xyz": [10.004960160986274, 7.434043206586532, 6.998269047869469]}, {"species": [{"element": "F", "occu": 1}], "abc": [0.6551994800000001, 0.72232195, 0.02656707], "properties": {"magmom": -0.0}, "label": "F", "xyz": [7.637015054243856, 5.510722930052277, 3.7653403987110217]}, {"species": [{"element": "F", "occu": 1}], "abc": [0.15519948, 0.02656707, 0.72232195], "properties": {"magmom": -0.0}, "label": "F", "xyz": [1.2971347590137257, 0.2258531834134684, 6.82218733213053]}, {"species": [{"element": "F", "occu": 1}], "abc": [0.34480052, 0.27767805, 0.97343293], "properties": {"magmom": -0.0}, "label": "F", "xyz": [3.665079865756143, 2.1491734599477224, 10.055115981288976]}, {"species": [{"element": "F", "occu": 1}], "abc": [0.0, -0.0, 0.5], "properties": {"magmom": -0.0}, "label": "F", "xyz": [0.00984777, 0.01581707, 4.28187035]}, {"species": [{"element": "F", "occu": 1}], "abc": [0.5, 0.5, 0.0], "properties": {"magmom": -0.0}, "label": "F", "xyz": [5.64119969, 3.814131125, 2.6283578399999996]}, {"species": [{"element": "F", "occu": 1}], "abc": [0.9579170100000001, 0.82470703, 0.93270778], "properties": {"magmom": -0.0}, "label": "F", "xyz": [10.341199661964211, 6.320941676236862, 12.837149575006878]}, {"species": [{"element": "F", "occu": 1}], "abc": [0.54208299, 0.06729222, 0.17529297], "properties": {"magmom": -0.0}, "label": "F", "xyz": [4.3916083815153595, 0.520132401929447, 3.6884513151393272]}, {"species": [{"element": "F", "occu": 1}], "abc": [0.04208299, 0.17529297, 0.06729222], "properties": {"magmom": -0.0}, "label": "F", "xyz": [0.9608952580357895, 1.338954713763137, 0.9833068049931218]}, {"species": [{"element": "F", "occu": 1}], "abc": [0.45791701, 0.93270778, 0.82470703], "properties": {"magmom": -0.0}, "label": "F", "xyz": [6.910486538484641, 7.139763988070553, 10.132005064860673]}, {"species": [{"element": "F", "occu": 1}], "abc": [0.06756632, 0.59821228, 0.18677069000000002], "properties": {"magmom": -0.0}, "label": "F", "xyz": [2.6970957834619727, 4.567815272151574, 2.69483379942871]}, {"species": [{"element": "F", "occu": 1}], "abc": [0.43243368, 0.81322931, 0.40178772], "properties": {"magmom": -0.0}, "label": "F", "xyz": [6.272580192716538, 6.215222523937448, 6.2451607744101345]}]}, "task_ids": null, "uncorrected_energy_per_atom": null, "energy_per_atom": -21.620961467666667, "formation_energy_per_atom": -4.425086677666665, "energy_above_hull": 0.0, "is_stable": true, "equilibrium_reaction_energy_per_atom": null, "decomposes_to": null, "xas": null, "grain_boundaries": null, "band_gap": 6.529, "cbm": null, "vbm": null, "efermi": -1.53522782, "is_gap_direct": null, "is_metal": null, "es_source_calc_id": null, "bandstructure": null, "dos": null, "dos_energy_up": null, "dos_energy_down": null, "is_magnetic": null, "ordering": null, "total_magnetization": 0.0, "total_magnetization_normalized_vol": null, "total_magnetization_normalized_formula_units": null, "num_magnetic_sites": null, "num_unique_magnetic_sites": null, "types_of_magnetic_species": null, "bulk_modulus": null, "shear_modulus": null, "universal_anisotropy": null, "homogeneous_poisson": null, "e_total": null, "e_ionic": null, "e_electronic": null, "n": null, "e_ij_max": null, "weighted_surface_energy_EV_PER_ANG2": null, "weighted_surface_energy": null, "weighted_work_function": null, "surface_anisotropy": null, "shape_factor": null, "has_reconstructed": null, "possible_species": null, "has_props": null, "theoretical": null, "database_IDs": null, "fields_not_requested": ["builder_meta", "nsites", "elements", "nelements", "composition", "composition_reduced", "chemsys", "symmetry", "property_name", "deprecated", "deprecation_reasons", "last_updated", "origins", "warnings", "task_ids", "uncorrected_energy_per_atom", "equilibrium_reaction_energy_per_atom", "decomposes_to", "xas", "grain_boundaries", "cbm", "vbm", "is_gap_direct", "is_metal", "es_source_calc_id", "bandstructure", "dos", "dos_energy_up", "dos_energy_down", "is_magnetic", "ordering", "total_magnetization_normalized_vol", "total_magnetization_normalized_formula_units", "num_magnetic_sites", "num_unique_magnetic_sites", "types_of_magnetic_species", "bulk_modulus", "shear_modulus", "universal_anisotropy", "homogeneous_poisson", "e_total", "e_ionic", "e_electronic", "n", "e_ij_max", "weighted_surface_energy_EV_PER_ANG2", "weighted_surface_energy", "weighted_work_function", "surface_anisotropy", "shape_factor", "has_reconstructed", "possible_species", "has_props", "theoretical", "database_IDs"]}