{"builder_meta": null, "nsites": null, "elements": null, "nelements": null, "composition": null, "composition_reduced": null, "formula_pretty": "ThFe2", "formula_anonymous": "AB2", "chemsys": null, "volume": 57.808426154436695, "density": 9.873541106132032, "density_atomic": 19.26947538481223, "symmetry": null, "property_name": null, "material_id": "mp-1062988", "deprecated": null, "deprecation_reasons": null, "last_updated": null, "origins": null, "warnings": null, "structure": {"@module": "pymatgen.core.structure", "@class": "Structure", "charge": 0, "lattice": {"matrix": [[3.544466, 0.0, 0.0], [0.0, 3.544466, 0.0], [-1.772233, -1.772233, 4.601395]], "pbc": [true, true, true], "a": 3.544466, "b": 3.544466, "c": 5.239699949291276, "alpha": 109.7691806469756, "beta": 109.7691806469756, "gamma": 90.0, "volume": 57.808426154436695}, "properties": {}, "sites": [{"species": [{"element": "Th", "occu": 1}], "abc": [0.0, 0.0, 0.0], "properties": {"magmom": -0.219}, "label": "Th", "xyz": [0.0, 0.0, 0.0]}, {"species": [{"element": "Fe", "occu": 1}], "abc": [0.25, 0.75, 0.5], "properties": {"magmom": 2.074}, "label": "Fe", "xyz": [0.0, 1.772233, 2.3006975]}, {"species": [{"element": "Fe", "occu": 1}], "abc": [0.75, 0.25, 0.5], "properties": {"magmom": 2.074}, "label": "Fe", "xyz": [1.772233, 0.0, 2.3006975]}]}, "task_ids": null, "uncorrected_energy_per_atom": null, "energy_per_atom": -7.811993183333333, "formation_energy_per_atom": 0.305973706666668, "energy_above_hull": 0.38278038463178304, "is_stable": false, "equilibrium_reaction_energy_per_atom": null, "decomposes_to": null, "xas": null, "grain_boundaries": null, "band_gap": 0.0, "cbm": null, "vbm": null, "efermi": 6.32358391, "is_gap_direct": null, "is_metal": null, "es_source_calc_id": null, "bandstructure": null, "dos": null, "dos_energy_up": null, "dos_energy_down": null, "is_magnetic": null, "ordering": null, "total_magnetization": 3.8963438, "total_magnetization_normalized_vol": null, "total_magnetization_normalized_formula_units": null, "num_magnetic_sites": null, "num_unique_magnetic_sites": null, "types_of_magnetic_species": null, "bulk_modulus": null, "shear_modulus": null, "universal_anisotropy": null, "homogeneous_poisson": null, "e_total": null, "e_ionic": null, "e_electronic": null, "n": null, "e_ij_max": null, "weighted_surface_energy_EV_PER_ANG2": null, "weighted_surface_energy": null, "weighted_work_function": null, "surface_anisotropy": null, "shape_factor": null, "has_reconstructed": null, "possible_species": null, "has_props": null, "theoretical": null, "database_IDs": null, "fields_not_requested": ["builder_meta", "nsites", "elements", "nelements", "composition", "composition_reduced", "chemsys", "symmetry", "property_name", "deprecated", "deprecation_reasons", "last_updated", "origins", "warnings", "task_ids", "uncorrected_energy_per_atom", "equilibrium_reaction_energy_per_atom", "decomposes_to", "xas", "grain_boundaries", "cbm", "vbm", "is_gap_direct", "is_metal", "es_source_calc_id", "bandstructure", "dos", "dos_energy_up", "dos_energy_down", "is_magnetic", "ordering", "total_magnetization_normalized_vol", "total_magnetization_normalized_formula_units", "num_magnetic_sites", "num_unique_magnetic_sites", "types_of_magnetic_species", "bulk_modulus", "shear_modulus", "universal_anisotropy", "homogeneous_poisson", "e_total", "e_ionic", "e_electronic", "n", "e_ij_max", "weighted_surface_energy_EV_PER_ANG2", "weighted_surface_energy", "weighted_work_function", "surface_anisotropy", "shape_factor", "has_reconstructed", "possible_species", "has_props", "theoretical", "database_IDs"]}