{
  "builder_meta": null,
  "nsites": null,
  "elements": null,
  "nelements": null,
  "composition": null,
  "composition_reduced": null,
  "formula_pretty": "ThFe3",
  "formula_anonymous": "AB3",
  "chemsys": null,
  "volume": 190.7084812099939,
  "density": 10.437501340493116,
  "density_atomic": 15.892373434166158,
  "symmetry": null,
  "property_name": null,
  "material_id": "mp-30638",
  "deprecated": null,
  "deprecation_reasons": null,
  "last_updated": null,
  "origins": null,
  "warnings": null,
  "structure": {
    "@module": "pymatgen.core.structure",
    "@class": "Structure",
    "charge": 0,
    "lattice": {
      "matrix": [
        [8.458251, -2.571263, 0.0],
        [8.458251, 2.571263, 0.0],
        [7.676601, 0.0, 4.384428]
      ],
      "pbc": [true, true, true],
      "a": 8.840441357430635,
      "b": 8.840441357430635,
      "c": 8.840441832871532,
      "alpha": 33.81798436626001,
      "beta": 33.81798436626001,
      "gamma": 33.81798177002372,
      "volume": 190.7084812099939
    },
    "properties": {},
    "sites": [
      {
        "species": [{ "element": "Th", "occu": 1 }],
        "abc": [0.858823999999999, 0.858823999999999, 0.858823999999999],
        "properties": { "magmom": -0.438 },
        "label": "Th",
        "xyz": [21.121147090871975, 0.0, 3.7654519926719954]
      },
      {
        "species": [{ "element": "Th", "occu": 1 }],
        "abc": [0.141176, 0.141176, 0.141176],
        "properties": { "magmom": -0.438 },
        "label": "Th",
        "xyz": [3.471955909128, 0.0, 0.618976007328]
      },
      {
        "species": [{ "element": "Th", "occu": 1 }],
        "abc": [0.0, 0.0, 0.0],
        "properties": { "magmom": -0.343 },
        "label": "Th",
        "xyz": [0.0, 0.0, 0.0]
      },
      {
        "species": [{ "element": "Fe", "occu": 1 }],
        "abc": [0.41968000000000005, 0.91685, 0.41968000000000005],
        "properties": { "magmom": 2.099 },
        "label": "Fe",
        "xyz": [14.526422116710002, 1.2783548257100001, 1.84005674304]
      },
      {
        "species": [{ "element": "Fe", "occu": 1 }],
        "abc": [0.41968000000000005, 0.41968000000000005, 0.91685],
        "properties": { "magmom": 2.099 },
        "label": "Fe",
        "xyz": [14.137809186210003, 0.0, 4.0198628118]
      },
      {
        "species": [{ "element": "Fe", "occu": 1 }],
        "abc": [0.91685, 0.41968000000000005, 0.41968000000000005],
        "properties": { "magmom": 2.099 },
        "label": "Fe",
        "xyz": [14.526422116710002, -1.2783548257100001, 1.84005674304]
      },
      {
        "species": [{ "element": "Fe", "occu": 1 }],
        "abc": [0.5803200000000001, 0.08315, 0.5803200000000001],
        "properties": { "magmom": 2.099 },
        "label": "Fe",
        "xyz": [10.066680883290001, -1.2783548257100001, 2.5443712569600003]
      },
      {
        "species": [{ "element": "Fe", "occu": 1 }],
        "abc": [0.5803200000000001, 0.5803200000000001, 0.08315],
        "properties": { "magmom": 2.099 },
        "label": "Fe",
        "xyz": [10.455293813790002, 0.0, 0.3645651882]
      },
      {
        "species": [{ "element": "Fe", "occu": 1 }],
        "abc": [0.08315, 0.5803200000000001, 0.5803200000000001],
        "properties": { "magmom": 2.099 },
        "label": "Fe",
        "xyz": [10.066680883290001, 1.2783548257100001, 2.5443712569600003]
      },
      {
        "species": [{ "element": "Fe", "occu": 1 }],
        "abc": [0.667435999999999, 0.667435999999999, 0.667435999999999],
        "properties": { "magmom": 2.29 },
        "label": "Fe",
        "xyz": [16.414322293907976, 0.0, 2.9263250866079957]
      },
      {
        "species": [{ "element": "Fe", "occu": 1 }],
        "abc": [0.332563999999999, 0.332563999999999, 0.332563999999999],
        "properties": { "magmom": 2.29 },
        "label": "Fe",
        "xyz": [8.178780706091976, 0.0, 1.4581029133919956]
      },
      {
        "species": [{ "element": "Fe", "occu": 1 }],
        "abc": [0.5, 0.5, 0.5],
        "properties": { "magmom": 1.806 },
        "label": "Fe",
        "xyz": [12.2965515, 0.0, 2.192214]
      }
    ]
  },
  "task_ids": null,
  "uncorrected_energy_per_atom": null,
  "energy_per_atom": -8.263817861666666,
  "formation_energy_per_atom": -0.057837391666665,
  "energy_above_hull": 0.008373485949613001,
  "is_stable": false,
  "equilibrium_reaction_energy_per_atom": null,
  "decomposes_to": null,
  "xas": null,
  "grain_boundaries": null,
  "band_gap": 0.0,
  "cbm": null,
  "vbm": null,
  "efermi": 6.51554509,
  "is_gap_direct": null,
  "is_metal": null,
  "es_source_calc_id": null,
  "bandstructure": null,
  "dos": null,
  "dos_energy_up": null,
  "dos_energy_down": null,
  "is_magnetic": null,
  "ordering": null,
  "total_magnetization": 16.9972799,
  "total_magnetization_normalized_vol": null,
  "total_magnetization_normalized_formula_units": null,
  "num_magnetic_sites": null,
  "num_unique_magnetic_sites": null,
  "types_of_magnetic_species": null,
  "bulk_modulus": null,
  "shear_modulus": null,
  "universal_anisotropy": null,
  "homogeneous_poisson": null,
  "e_total": null,
  "e_ionic": null,
  "e_electronic": null,
  "n": null,
  "e_ij_max": null,
  "weighted_surface_energy_EV_PER_ANG2": null,
  "weighted_surface_energy": null,
  "weighted_work_function": null,
  "surface_anisotropy": null,
  "shape_factor": null,
  "has_reconstructed": null,
  "possible_species": null,
  "has_props": null,
  "theoretical": null,
  "database_IDs": null,
  "fields_not_requested": [
    "builder_meta",
    "nsites",
    "elements",
    "nelements",
    "composition",
    "composition_reduced",
    "chemsys",
    "symmetry",
    "property_name",
    "deprecated",
    "deprecation_reasons",
    "last_updated",
    "origins",
    "warnings",
    "task_ids",
    "uncorrected_energy_per_atom",
    "equilibrium_reaction_energy_per_atom",
    "decomposes_to",
    "xas",
    "grain_boundaries",
    "cbm",
    "vbm",
    "is_gap_direct",
    "is_metal",
    "es_source_calc_id",
    "bandstructure",
    "dos",
    "dos_energy_up",
    "dos_energy_down",
    "is_magnetic",
    "ordering",
    "total_magnetization_normalized_vol",
    "total_magnetization_normalized_formula_units",
    "num_magnetic_sites",
    "num_unique_magnetic_sites",
    "types_of_magnetic_species",
    "bulk_modulus",
    "shear_modulus",
    "universal_anisotropy",
    "homogeneous_poisson",
    "e_total",
    "e_ionic",
    "e_electronic",
    "n",
    "e_ij_max",
    "weighted_surface_energy_EV_PER_ANG2",
    "weighted_surface_energy",
    "weighted_work_function",
    "surface_anisotropy",
    "shape_factor",
    "has_reconstructed",
    "possible_species",
    "has_props",
    "theoretical",
    "database_IDs"
  ]
}
