{
  "builder_meta": null,
  "nsites": null,
  "elements": null,
  "nelements": null,
  "composition": null,
  "composition_reduced": null,
  "formula_pretty": "ThFe5",
  "formula_anonymous": "AB5",
  "chemsys": null,
  "volume": 91.36724451282065,
  "density": 9.291867002953472,
  "density_atomic": 15.227874085470107,
  "symmetry": null,
  "property_name": null,
  "material_id": "mp-2689",
  "deprecated": null,
  "deprecation_reasons": null,
  "last_updated": null,
  "origins": null,
  "warnings": null,
  "structure": {
    "@module": "pymatgen.core.structure",
    "@class": "Structure",
    "charge": 0,
    "lattice": {
      "matrix": [
        [2.543786309999999, -4.40593342, 2.299999999999999e-7],
        [2.543792739999999, 4.40593779, -0.0],
        [1.8e-7, -1.1e-7, 4.07606604]
      ],
      "pbc": [true, true, true],
      "a": 5.087543424130782,
      "b": 5.087550423674127,
      "c": 4.076066040000006,
      "alpha": 90.0000000739654,
      "beta": 89.99999480556959,
      "gamma": 119.9995822254499,
      "volume": 91.3672445128206
    },
    "properties": {},
    "sites": [
      {
        "species": [{ "element": "Th", "occu": 1 }],
        "abc": [-2e-8, -8e-8, -2e-8],
        "properties": { "magmom": -0.583 },
        "label": "Th",
        "xyz": [-2.5437914899999986e-7, -2.6435635260000004e-7, -8.15213254e-8]
      },
      {
        "species": [{ "element": "Fe", "occu": 1 }],
        "abc": [0.49999969, 0.50000035, 0.50000014],
        "properties": { "magmom": 2.6550000000000002 },
        "label": "Fe",
        "xyz": [2.543789716753727, 5.0379175713686634e-6, 2.038033705649174]
      },
      {
        "species": [{ "element": "Fe", "occu": 1 }],
        "abc": [0.33332626, 0.66665884, -9e-8],
        "properties": { "magmom": 2.565 },
        "label": "Fe",
        "xyz": [2.543752694200305, 1.4686440674959644, -2.901809038e-7]
      },
      {
        "species": [{ "element": "Fe", "occu": 1 }],
        "abc": [0.66667376, 0.33334117, -6.000000000000001e-8],
        "properties": { "magmom": 2.565 },
        "label": "Fe",
        "xyz": [2.5438264321133195, -1.4686397415552381, -9.12289976000001e-8]
      },
      {
        "species": [{ "element": "Fe", "occu": 1 }],
        "abc": [6.3e-7, 0.50000038, 0.50000006],
        "properties": { "magmom": 2.6550000000000002 },
        "label": "Fe",
        "xyz": [1.2718990292266268, 2.202967738518299, 2.038033264564107]
      },
      {
        "species": [{ "element": "Fe", "occu": 1 }],
        "abc": [0.49999968, -6.599999999999997e-7, 0.49999997],
        "properties": { "magmom": 2.656 },
        "label": "Fe",
        "xyz": [1.2718907520851663, -2.2029682630202436, 2.0380330127179453]
      }
    ]
  },
  "task_ids": null,
  "uncorrected_energy_per_atom": null,
  "energy_per_atom": -8.348148279999998,
  "formation_energy_per_atom": -0.054154229999998006,
  "energy_above_hull": 0.0,
  "is_stable": true,
  "equilibrium_reaction_energy_per_atom": null,
  "decomposes_to": null,
  "xas": null,
  "grain_boundaries": null,
  "band_gap": 0.0,
  "cbm": null,
  "vbm": null,
  "efermi": 5.94832499,
  "is_gap_direct": null,
  "is_metal": null,
  "es_source_calc_id": null,
  "bandstructure": null,
  "dos": null,
  "dos_energy_up": null,
  "dos_energy_down": null,
  "is_magnetic": null,
  "ordering": null,
  "total_magnetization": 11.5568201,
  "total_magnetization_normalized_vol": null,
  "total_magnetization_normalized_formula_units": null,
  "num_magnetic_sites": null,
  "num_unique_magnetic_sites": null,
  "types_of_magnetic_species": null,
  "bulk_modulus": null,
  "shear_modulus": null,
  "universal_anisotropy": null,
  "homogeneous_poisson": null,
  "e_total": null,
  "e_ionic": null,
  "e_electronic": null,
  "n": null,
  "e_ij_max": null,
  "weighted_surface_energy_EV_PER_ANG2": null,
  "weighted_surface_energy": null,
  "weighted_work_function": null,
  "surface_anisotropy": null,
  "shape_factor": null,
  "has_reconstructed": null,
  "possible_species": null,
  "has_props": null,
  "theoretical": null,
  "database_IDs": null,
  "fields_not_requested": [
    "builder_meta",
    "nsites",
    "elements",
    "nelements",
    "composition",
    "composition_reduced",
    "chemsys",
    "symmetry",
    "property_name",
    "deprecated",
    "deprecation_reasons",
    "last_updated",
    "origins",
    "warnings",
    "task_ids",
    "uncorrected_energy_per_atom",
    "equilibrium_reaction_energy_per_atom",
    "decomposes_to",
    "xas",
    "grain_boundaries",
    "cbm",
    "vbm",
    "is_gap_direct",
    "is_metal",
    "es_source_calc_id",
    "bandstructure",
    "dos",
    "dos_energy_up",
    "dos_energy_down",
    "is_magnetic",
    "ordering",
    "total_magnetization_normalized_vol",
    "total_magnetization_normalized_formula_units",
    "num_magnetic_sites",
    "num_unique_magnetic_sites",
    "types_of_magnetic_species",
    "bulk_modulus",
    "shear_modulus",
    "universal_anisotropy",
    "homogeneous_poisson",
    "e_total",
    "e_ionic",
    "e_electronic",
    "n",
    "e_ij_max",
    "weighted_surface_energy_EV_PER_ANG2",
    "weighted_surface_energy",
    "weighted_work_function",
    "surface_anisotropy",
    "shape_factor",
    "has_reconstructed",
    "possible_species",
    "has_props",
    "theoretical",
    "database_IDs"
  ]
}
