{"builder_meta": null, "nsites": null, "elements": null, "nelements": null, "composition": null, "composition_reduced": null, "formula_pretty": "ThGa2", "formula_anonymous": "AB2", "chemsys": null, "volume": 133.05937153897227, "density": 9.272008233835717, "density_atomic": 22.176561923162044, "symmetry": null, "property_name": null, "material_id": "mp-2067", "deprecated": null, "deprecation_reasons": null, "last_updated": null, "origins": null, "warnings": null, "structure": {"@module": "pymatgen.core.structure", "@class": "Structure", "charge": 0, "lattice": {"matrix": [[4.10871938, 1e-08, -1.14014156], [-0.3163804, 4.09651956, -1.14014156], [-0.01616198, -0.01745897, 7.91512009]], "pbc": [true, true, true], "a": 4.263976749517617, "b": 4.263976059947568, "c": 7.915155845866371, "alpha": 105.6259321459329, "beta": 105.62592490443947, "gamma": 89.99998570284585, "volume": 133.05937153897227}, "properties": {}, "sites": [{"species": [{"element": "Th", "occu": 1}], "abc": [0.875, 0.625, 0.25], "properties": {"magmom": -0.0}, "label": "Th", "xyz": [3.3933512125000003, 2.55595999125, 0.26856768250000007]}, {"species": [{"element": "Th", "occu": 1}], "abc": [0.125, 0.375, 0.75], "properties": {"magmom": -0.0}, "label": "Th", "xyz": [0.3828257875, 1.52310060875, 5.3662692875]}, {"species": [{"element": "Ga", "occu": 1}], "abc": [0.70822716, 0.95822716, 0.9164553200000001], "properties": {"magmom": 0.0}, "label": "Ga", "xyz": [2.591930633009963, 3.909395945007301, 5.35386008684584]}, {"species": [{"element": "Ga", "occu": 1}], "abc": [0.45822716, 0.20822716, 0.41645532], "properties": {"magmom": 0.0}, "label": "Ga", "xyz": [1.8101170780099634, 0.8457357575073008, 2.5364416018458398]}, {"species": [{"element": "Ga", "occu": 1}], "abc": [0.54177284, 0.79177284, 0.58354468], "properties": {"magmom": 0.0}, "label": "Ga", "xyz": [1.966059921990037, 3.2333248424926992, 3.0983953681541605]}, {"species": [{"element": "Ga", "occu": 1}], "abc": [0.29177284000000003, 0.04177284, 0.08354468], "properties": {"magmom": 0.0}, "label": "Ga", "xyz": [1.184246366990037, 0.16966465499269917, 0.2809768831541604]}]}, "task_ids": null, "uncorrected_energy_per_atom": null, "energy_per_atom": -32.865234648333335, "formation_energy_per_atom": -0.7449632983333311, "energy_above_hull": 0.0, "is_stable": true, "equilibrium_reaction_energy_per_atom": null, "decomposes_to": null, "xas": null, "grain_boundaries": null, "band_gap": 0.0, "cbm": null, "vbm": null, "efermi": 5.7605962, "is_gap_direct": null, "is_metal": null, "es_source_calc_id": null, "bandstructure": null, "dos": null, "dos_energy_up": null, "dos_energy_down": null, "is_magnetic": null, "ordering": null, "total_magnetization": 0.0, "total_magnetization_normalized_vol": null, "total_magnetization_normalized_formula_units": null, "num_magnetic_sites": null, "num_unique_magnetic_sites": null, "types_of_magnetic_species": null, "bulk_modulus": null, "shear_modulus": null, "universal_anisotropy": null, "homogeneous_poisson": null, "e_total": null, "e_ionic": null, "e_electronic": null, "n": null, "e_ij_max": null, "weighted_surface_energy_EV_PER_ANG2": null, "weighted_surface_energy": null, "weighted_work_function": null, "surface_anisotropy": null, "shape_factor": null, "has_reconstructed": null, "possible_species": null, "has_props": null, "theoretical": null, "database_IDs": null, "fields_not_requested": ["builder_meta", "nsites", "elements", "nelements", "composition", "composition_reduced", "chemsys", "symmetry", "property_name", "deprecated", "deprecation_reasons", "last_updated", "origins", "warnings", "task_ids", "uncorrected_energy_per_atom", "equilibrium_reaction_energy_per_atom", "decomposes_to", "xas", "grain_boundaries", "cbm", "vbm", "is_gap_direct", "is_metal", "es_source_calc_id", "bandstructure", "dos", "dos_energy_up", "dos_energy_down", "is_magnetic", "ordering", "total_magnetization_normalized_vol", "total_magnetization_normalized_formula_units", "num_magnetic_sites", "num_unique_magnetic_sites", "types_of_magnetic_species", "bulk_modulus", "shear_modulus", "universal_anisotropy", "homogeneous_poisson", "e_total", "e_ionic", "e_electronic", "n", "e_ij_max", "weighted_surface_energy_EV_PER_ANG2", "weighted_surface_energy", "weighted_work_function", "surface_anisotropy", "shape_factor", "has_reconstructed", "possible_species", "has_props", "theoretical", "database_IDs"]}