{"builder_meta": null, "nsites": null, "elements": null, "nelements": null, "composition": null, "composition_reduced": null, "formula_pretty": "ThGa", "formula_anonymous": "AB", "chemsys": null, "volume": 412.7572486229082, "density": 9.711975367224426, "density_atomic": 25.797328038931763, "symmetry": null, "property_name": null, "material_id": "mp-30669", "deprecated": null, "deprecation_reasons": null, "last_updated": null, "origins": null, "warnings": null, "structure": {"@module": "pymatgen.core.structure", "@class": "Structure", "charge": 0, "lattice": {"matrix": [[4.13308883, 0.0, 0.0], [-0.0, 6.07374853, 0.0], [0.0, 0.0, 16.44232251]], "pbc": [true, true, true], "a": 4.13308883, "b": 6.07374853, "c": 16.44232251, "alpha": 90.0, "beta": 90.0, "gamma": 90.0, "volume": 412.7572486229082}, "properties": {}, "sites": [{"species": [{"element": "Th", "occu": 1}], "abc": [0.25, 0.48709307, 0.28624295], "properties": {"magmom": 0.167}, "label": "Th", "xyz": [1.0332722075, 2.958480817885687, 4.706498900113805]}, {"species": [{"element": "Th", "occu": 1}], "abc": [0.75, 0.51290693, 0.71375705], "properties": {"magmom": 0.167}, "label": "Th", "xyz": [3.0998166225, 3.1152677121143126, 11.735823609886197]}, {"species": [{"element": "Th", "occu": 1}], "abc": [0.75, 0.98709307, 0.21375705], "properties": {"magmom": 0.167}, "label": "Th", "xyz": [3.0998166225, 5.995355082885687, 3.5146623548861955]}, {"species": [{"element": "Th", "occu": 1}], "abc": [0.25, 0.01290693, 0.78624295], "properties": {"magmom": 0.167}, "label": "Th", "xyz": [1.0332722075, 0.0783934471143129, 12.927660155113804]}, {"species": [{"element": "Th", "occu": 1}], "abc": [0.25, 0.7500498600000001, 0.03613832], "properties": {"magmom": 0.154}, "label": "Th", "xyz": [1.0332722075, 4.555614234601706, 0.5941979124095832]}, {"species": [{"element": "Th", "occu": 1}], "abc": [0.75, 0.24995014000000002, 0.96386168], "properties": {"magmom": 0.154}, "label": "Th", "xyz": [3.0998166225, 1.5181342953982941, 15.848124597590418]}, {"species": [{"element": "Th", "occu": 1}], "abc": [0.75, 0.25004986, 0.46386168], "properties": {"magmom": 0.154}, "label": "Th", "xyz": [3.0998166225, 1.5187399696017059, 7.626963342590417]}, {"species": [{"element": "Th", "occu": 1}], "abc": [0.25, 0.74995014, 0.5361383200000001], "properties": {"magmom": 0.154}, "label": "Th", "xyz": [1.0332722075, 4.555008560398294, 8.815359167409584]}, {"species": [{"element": "Ga", "occu": 1}], "abc": [0.25, 0.994275599999999, 0.35707581], "properties": {"magmom": -0.004}, "label": "Ga", "xyz": [1.0332722075, 6.038979963914862, 5.8711556285394835]}, {"species": [{"element": "Ga", "occu": 1}], "abc": [0.75, 0.0057244, 0.64292419], "properties": {"magmom": -0.004}, "label": "Ga", "xyz": [3.0998166225, 0.034768566085132, 10.571166881460517]}, {"species": [{"element": "Ga", "occu": 1}], "abc": [0.75, 0.4942756, 0.14292419], "properties": {"magmom": -0.004}, "label": "Ga", "xyz": [3.0998166225, 3.0021056989148676, 2.350005626460517]}, {"species": [{"element": "Ga", "occu": 1}], "abc": [0.25, 0.5057244, 0.85707581], "properties": {"magmom": -0.004}, "label": "Ga", "xyz": [1.0332722075, 3.0716428310851316, 14.092316883539484]}, {"species": [{"element": "Ga", "occu": 1}], "abc": [0.25, 0.24605959, 0.10689953], "properties": {"magmom": -0.005}, "label": "Ga", "xyz": [1.0332722075, 1.4945040730549026, 1.7576765484274204]}, {"species": [{"element": "Ga", "occu": 1}], "abc": [0.75, 0.75394041, 0.89310047], "properties": {"magmom": -0.005}, "label": "Ga", "xyz": [3.0998166225, 4.579244456945097, 14.684645961572581]}, {"species": [{"element": "Ga", "occu": 1}], "abc": [0.75, 0.74605959, 0.39310047000000004], "properties": {"magmom": -0.005}, "label": "Ga", "xyz": [3.0998166225, 4.531378338054902, 6.46348470657258]}, {"species": [{"element": "Ga", "occu": 1}], "abc": [0.25, 0.25394041, 0.60689953], "properties": {"magmom": -0.005}, "label": "Ga", "xyz": [1.0332722075, 1.5423701919450972, 9.97883780342742]}]}, "task_ids": null, "uncorrected_energy_per_atom": null, "energy_per_atom": -43.06810551875, "formation_energy_per_atom": -0.609086468749999, "energy_above_hull": 0.0, "is_stable": true, "equilibrium_reaction_energy_per_atom": null, "decomposes_to": null, "xas": null, "grain_boundaries": null, "band_gap": 0.0, "cbm": null, "vbm": null, "efermi": 5.9736711, "is_gap_direct": null, "is_metal": null, "es_source_calc_id": null, "bandstructure": null, "dos": null, "dos_energy_up": null, "dos_energy_down": null, "is_magnetic": null, "ordering": null, "total_magnetization": 3.1086015, "total_magnetization_normalized_vol": null, "total_magnetization_normalized_formula_units": null, "num_magnetic_sites": null, "num_unique_magnetic_sites": null, "types_of_magnetic_species": null, "bulk_modulus": null, "shear_modulus": null, "universal_anisotropy": null, "homogeneous_poisson": null, "e_total": null, "e_ionic": null, "e_electronic": null, "n": null, "e_ij_max": null, "weighted_surface_energy_EV_PER_ANG2": null, "weighted_surface_energy": null, "weighted_work_function": null, "surface_anisotropy": null, "shape_factor": null, "has_reconstructed": null, "possible_species": null, "has_props": null, "theoretical": null, "database_IDs": null, "fields_not_requested": ["builder_meta", "nsites", "elements", "nelements", "composition", "composition_reduced", "chemsys", "symmetry", "property_name", "deprecated", "deprecation_reasons", "last_updated", "origins", "warnings", "task_ids", "uncorrected_energy_per_atom", "equilibrium_reaction_energy_per_atom", "decomposes_to", "xas", "grain_boundaries", "cbm", "vbm", "is_gap_direct", "is_metal", "es_source_calc_id", "bandstructure", "dos", "dos_energy_up", "dos_energy_down", "is_magnetic", "ordering", "total_magnetization_normalized_vol", "total_magnetization_normalized_formula_units", "num_magnetic_sites", "num_unique_magnetic_sites", "types_of_magnetic_species", "bulk_modulus", "shear_modulus", "universal_anisotropy", "homogeneous_poisson", "e_total", "e_ionic", "e_electronic", "n", "e_ij_max", "weighted_surface_energy_EV_PER_ANG2", "weighted_surface_energy", "weighted_work_function", "surface_anisotropy", "shape_factor", "has_reconstructed", "possible_species", "has_props", "theoretical", "database_IDs"]}