{
  "builder_meta": null,
  "nsites": null,
  "elements": null,
  "nelements": null,
  "composition": null,
  "composition_reduced": null,
  "formula_pretty": "ThGa3",
  "formula_anonymous": "AB3",
  "chemsys": null,
  "volume": 164.60469467926032,
  "density": 8.901830667920077,
  "density_atomic": 20.57558683490754,
  "symmetry": null,
  "property_name": null,
  "material_id": "mp-865450",
  "deprecated": null,
  "deprecation_reasons": null,
  "last_updated": null,
  "origins": null,
  "warnings": null,
  "structure": {
    "@module": "pymatgen.core.structure",
    "@class": "Structure",
    "charge": 0,
    "lattice": {
      "matrix": [
        [6.5015806099999995, -3.0000000000000004e-8, -0.0],
        [-3.25079236, 5.63053451, 0.0],
        [-0.0, -0.0, 4.49649011]
      ],
      "pbc": [true, true, true],
      "a": 6.5015806099999995,
      "b": 6.501582102545142,
      "c": 4.49649011,
      "alpha": 90.0,
      "beta": 90.0,
      "gamma": 120.00001358186177,
      "volume": 164.6046946792603
    },
    "properties": {},
    "sites": [
      {
        "species": [{ "element": "Th", "occu": 1 }],
        "abc": [0.333333, 0.666666, 0.749999],
        "properties": { "magmom": 0.0 },
        "label": "Th",
        "xyz": [-1.3699986300963474e-6, 3.75368590964367, 3.37236308600989]
      },
      {
        "species": [{ "element": "Th", "occu": 1 }],
        "abc": [0.666667, 0.333333, 0.249999],
        "properties": { "magmom": 0.0 },
        "label": "Th",
        "xyz": [3.250792870790989, 1.87684293982182, 1.12411803100989]
      },
      {
        "species": [{ "element": "Ga", "occu": 1 }],
        "abc": [0.14031183, 0.28062467, 0.249999],
        "properties": { "magmom": 0.0 },
        "label": "Ga",
        "xyz": [-3.859981905107723e-6, 1.580066884583007, 1.12411803100989]
      },
      {
        "species": [{ "element": "Ga", "occu": 1 }],
        "abc": [0.71937533, 0.85968817, 0.249999],
        "properties": { "magmom": 0.0 },
        "label": "Ga",
        "xyz": [1.88240896182197, 4.840503887442487, 1.12411803100989]
      },
      {
        "species": [{ "element": "Ga", "occu": 1 }],
        "abc": [0.14031283, 0.85968817, 0.249999],
        "properties": { "magmom": 0.0 },
        "label": "Ga",
        "xyz": [-1.8824125601561552, 4.840503904814362, 1.12411803100989]
      },
      {
        "species": [{ "element": "Ga", "occu": 1 }],
        "abc": [0.8596871700000001, 0.7193743300000001, 0.749999],
        "properties": { "magmom": 0.0 },
        "label": "Ga",
        "xyz": [3.2507888591936545, 4.050461964882514, 3.37236308600989]
      },
      {
        "species": [{ "element": "Ga", "occu": 1 }],
        "abc": [0.28062367, 0.14031183, 0.749999],
        "properties": { "magmom": 0.0 },
        "label": "Ga",
        "xyz": [1.3683727865974196, 0.7900305925575433, 3.37236308600989]
      },
      {
        "species": [{ "element": "Ga", "occu": 1 }],
        "abc": [0.85968817, 0.14031183, 0.749999],
        "properties": { "magmom": 0.0 },
        "label": "Ga",
        "xyz": [5.133207311736765, 0.7900305751856083, 3.37236308600989]
      }
    ]
  },
  "task_ids": null,
  "uncorrected_energy_per_atom": null,
  "energy_per_atom": -27.52159388375,
  "formation_energy_per_atom": -0.5706963837499971,
  "energy_above_hull": 0.0,
  "is_stable": true,
  "equilibrium_reaction_energy_per_atom": null,
  "decomposes_to": null,
  "xas": null,
  "grain_boundaries": null,
  "band_gap": 0.0,
  "cbm": null,
  "vbm": null,
  "efermi": 5.60826998,
  "is_gap_direct": null,
  "is_metal": null,
  "es_source_calc_id": null,
  "bandstructure": null,
  "dos": null,
  "dos_energy_up": null,
  "dos_energy_down": null,
  "is_magnetic": null,
  "ordering": null,
  "total_magnetization": 1e-7,
  "total_magnetization_normalized_vol": null,
  "total_magnetization_normalized_formula_units": null,
  "num_magnetic_sites": null,
  "num_unique_magnetic_sites": null,
  "types_of_magnetic_species": null,
  "bulk_modulus": null,
  "shear_modulus": null,
  "universal_anisotropy": null,
  "homogeneous_poisson": null,
  "e_total": null,
  "e_ionic": null,
  "e_electronic": null,
  "n": null,
  "e_ij_max": null,
  "weighted_surface_energy_EV_PER_ANG2": null,
  "weighted_surface_energy": null,
  "weighted_work_function": null,
  "surface_anisotropy": null,
  "shape_factor": null,
  "has_reconstructed": null,
  "possible_species": null,
  "has_props": null,
  "theoretical": null,
  "database_IDs": null,
  "fields_not_requested": [
    "builder_meta",
    "nsites",
    "elements",
    "nelements",
    "composition",
    "composition_reduced",
    "chemsys",
    "symmetry",
    "property_name",
    "deprecated",
    "deprecation_reasons",
    "last_updated",
    "origins",
    "warnings",
    "task_ids",
    "uncorrected_energy_per_atom",
    "equilibrium_reaction_energy_per_atom",
    "decomposes_to",
    "xas",
    "grain_boundaries",
    "cbm",
    "vbm",
    "is_gap_direct",
    "is_metal",
    "es_source_calc_id",
    "bandstructure",
    "dos",
    "dos_energy_up",
    "dos_energy_down",
    "is_magnetic",
    "ordering",
    "total_magnetization_normalized_vol",
    "total_magnetization_normalized_formula_units",
    "num_magnetic_sites",
    "num_unique_magnetic_sites",
    "types_of_magnetic_species",
    "bulk_modulus",
    "shear_modulus",
    "universal_anisotropy",
    "homogeneous_poisson",
    "e_total",
    "e_ionic",
    "e_electronic",
    "n",
    "e_ij_max",
    "weighted_surface_energy_EV_PER_ANG2",
    "weighted_surface_energy",
    "weighted_work_function",
    "surface_anisotropy",
    "shape_factor",
    "has_reconstructed",
    "possible_species",
    "has_props",
    "theoretical",
    "database_IDs"
  ]
}
