{"builder_meta": null, "nsites": null, "elements": null, "nelements": null, "composition": null, "composition_reduced": null, "formula_pretty": "ThH2", "formula_anonymous": "AB2", "chemsys": null, "volume": 40.832459832735324, "density": 9.518302660523716, "density_atomic": 13.610819944245108, "symmetry": null, "property_name": null, "material_id": "mp-24291", "deprecated": null, "deprecation_reasons": null, "last_updated": null, "origins": null, "warnings": null, "structure": {"@module": "pymatgen.core.structure", "@class": "Structure", "charge": 0, "lattice": {"matrix": [[3.4247969, -0.020463580000000002, -1.6432442900000002], [-2.06302534, 3.14826608, -0.51210502], [-0.01341021, 0.02046359, 3.79859258]], "pbc": [true, true, true], "a": 3.7986713941816066, "b": 3.798671401354674, "c": 3.7986713705029804, "alpha": 97.37869842772055, "beta": 115.83536871582047, "gamma": 115.83533479842707, "volume": 40.832459832735324}, "properties": {}, "sites": [{"species": [{"element": "Th", "occu": 1}], "abc": [0.0, 0.0, 0.0], "properties": {"magmom": 0.0}, "label": "Th", "xyz": [0.0, 0.0, 0.0]}, {"species": [{"element": "H", "occu": 1}], "abc": [0.5, 0.75, 0.25], "properties": {"magmom": -0.0}, "label": "H", "xyz": [0.16177689250000005, 2.3560836675, -0.25605276499999996]}, {"species": [{"element": "H", "occu": 1}], "abc": [0.5, 0.25, 0.75], "properties": {"magmom": -0.0}, "label": "H", "xyz": [1.1865844575, 0.7921824225, 1.8992960349999999]}]}, "task_ids": null, "uncorrected_energy_per_atom": null, "energy_per_atom": -27.359137583333332, "formation_energy_per_atom": -0.56397526583333, "energy_above_hull": 0.0, "is_stable": true, "equilibrium_reaction_energy_per_atom": null, "decomposes_to": null, "xas": null, "grain_boundaries": null, "band_gap": 0.0, "cbm": null, "vbm": null, "efermi": 6.60256854, "is_gap_direct": null, "is_metal": null, "es_source_calc_id": null, "bandstructure": null, "dos": null, "dos_energy_up": null, "dos_energy_down": null, "is_magnetic": null, "ordering": null, "total_magnetization": 4e-07, "total_magnetization_normalized_vol": null, "total_magnetization_normalized_formula_units": null, "num_magnetic_sites": null, "num_unique_magnetic_sites": null, "types_of_magnetic_species": null, "bulk_modulus": null, "shear_modulus": null, "universal_anisotropy": null, "homogeneous_poisson": null, "e_total": null, "e_ionic": null, "e_electronic": null, "n": null, "e_ij_max": null, "weighted_surface_energy_EV_PER_ANG2": null, "weighted_surface_energy": null, "weighted_work_function": null, "surface_anisotropy": null, "shape_factor": null, "has_reconstructed": null, "possible_species": null, "has_props": null, "theoretical": null, "database_IDs": null, "fields_not_requested": ["builder_meta", "nsites", "elements", "nelements", "composition", "composition_reduced", "chemsys", "symmetry", "property_name", "deprecated", "deprecation_reasons", "last_updated", "origins", "warnings", "task_ids", "uncorrected_energy_per_atom", "equilibrium_reaction_energy_per_atom", "decomposes_to", "xas", "grain_boundaries", "cbm", "vbm", "is_gap_direct", "is_metal", "es_source_calc_id", "bandstructure", "dos", "dos_energy_up", "dos_energy_down", "is_magnetic", "ordering", "total_magnetization_normalized_vol", "total_magnetization_normalized_formula_units", "num_magnetic_sites", "num_unique_magnetic_sites", "types_of_magnetic_species", "bulk_modulus", "shear_modulus", "universal_anisotropy", "homogeneous_poisson", "e_total", "e_ionic", "e_electronic", "n", "e_ij_max", "weighted_surface_energy_EV_PER_ANG2", "weighted_surface_energy", "weighted_work_function", "surface_anisotropy", "shape_factor", "has_reconstructed", "possible_species", "has_props", "theoretical", "database_IDs"]}