{
  "builder_meta": null,
  "nsites": null,
  "elements": null,
  "nelements": null,
  "composition": null,
  "composition_reduced": null,
  "formula_pretty": "ThHg2",
  "formula_anonymous": "AB2",
  "chemsys": null,
  "volume": 155.84579651892602,
  "density": 13.493893961765853,
  "density_atomic": 25.974299419821005,
  "symmetry": null,
  "property_name": null,
  "material_id": "mp-2215",
  "deprecated": null,
  "deprecation_reasons": null,
  "last_updated": null,
  "origins": null,
  "warnings": null,
  "structure": {
    "@module": "pymatgen.core.structure",
    "@class": "Structure",
    "charge": 0,
    "lattice": {
      "matrix": [
        [4.87849922, -0.0, -0.0],
        [-2.43924961, 4.22490536, 0.0],
        [-0.0, -0.0, 7.56121989]
      ],
      "pbc": [true, true, true],
      "a": 4.87849922,
      "b": 4.878500175345071,
      "c": 7.56121989,
      "alpha": 90.0,
      "beta": 90.0,
      "gamma": 119.99999352207475,
      "volume": 155.84579651892602
    },
    "properties": {},
    "sites": [
      {
        "species": [{ "element": "Th", "occu": 1 }],
        "abc": [-0.0, -0.0, 0.25],
        "properties": { "magmom": 0.0 },
        "label": "Th",
        "xyz": [0.0, 0.0, 1.8903049725]
      },
      {
        "species": [{ "element": "Th", "occu": 1 }],
        "abc": [0.0, -0.0, 0.75],
        "properties": { "magmom": 0.0 },
        "label": "Th",
        "xyz": [0.0, 0.0, 5.6709149175]
      },
      {
        "species": [{ "element": "Hg", "occu": 1 }],
        "abc": [0.333333, 0.666667, 0.04387316],
        "properties": { "magmom": 0.0 },
        "label": "Hg",
        "xyz": [-2.439249610075578e-6, 2.81660498163512, 0.33173461002915244]
      },
      {
        "species": [{ "element": "Hg", "occu": 1 }],
        "abc": [0.666667, 0.333333, 0.54387316],
        "properties": { "magmom": 0.0 },
        "label": "Hg",
        "xyz": [2.43925204924961, 1.40830037836488, 4.112344555029153]
      },
      {
        "species": [{ "element": "Hg", "occu": 1 }],
        "abc": [0.666667, 0.333333, 0.95612684],
        "properties": { "magmom": 0.0 },
        "label": "Hg",
        "xyz": [2.43925204924961, 1.40830037836488, 7.229485279970848]
      },
      {
        "species": [{ "element": "Hg", "occu": 1 }],
        "abc": [0.333333, 0.666667, 0.45612684000000003],
        "properties": { "magmom": 0.0 },
        "label": "Hg",
        "xyz": [-2.439249610075578e-6, 2.81660498163512, 3.448875334970848]
      }
    ]
  },
  "task_ids": null,
  "uncorrected_energy_per_atom": null,
  "energy_per_atom": -57.75417066166667,
  "formation_energy_per_atom": -0.350545596666667,
  "energy_above_hull": 0.0,
  "is_stable": true,
  "equilibrium_reaction_energy_per_atom": null,
  "decomposes_to": null,
  "xas": null,
  "grain_boundaries": null,
  "band_gap": 0.0,
  "cbm": null,
  "vbm": null,
  "efermi": 5.29629567,
  "is_gap_direct": null,
  "is_metal": null,
  "es_source_calc_id": null,
  "bandstructure": null,
  "dos": null,
  "dos_energy_up": null,
  "dos_energy_down": null,
  "is_magnetic": null,
  "ordering": null,
  "total_magnetization": 0.0,
  "total_magnetization_normalized_vol": null,
  "total_magnetization_normalized_formula_units": null,
  "num_magnetic_sites": null,
  "num_unique_magnetic_sites": null,
  "types_of_magnetic_species": null,
  "bulk_modulus": null,
  "shear_modulus": null,
  "universal_anisotropy": null,
  "homogeneous_poisson": null,
  "e_total": null,
  "e_ionic": null,
  "e_electronic": null,
  "n": null,
  "e_ij_max": null,
  "weighted_surface_energy_EV_PER_ANG2": null,
  "weighted_surface_energy": null,
  "weighted_work_function": null,
  "surface_anisotropy": null,
  "shape_factor": null,
  "has_reconstructed": null,
  "possible_species": null,
  "has_props": null,
  "theoretical": null,
  "database_IDs": null,
  "fields_not_requested": [
    "builder_meta",
    "nsites",
    "elements",
    "nelements",
    "composition",
    "composition_reduced",
    "chemsys",
    "symmetry",
    "property_name",
    "deprecated",
    "deprecation_reasons",
    "last_updated",
    "origins",
    "warnings",
    "task_ids",
    "uncorrected_energy_per_atom",
    "equilibrium_reaction_energy_per_atom",
    "decomposes_to",
    "xas",
    "grain_boundaries",
    "cbm",
    "vbm",
    "is_gap_direct",
    "is_metal",
    "es_source_calc_id",
    "bandstructure",
    "dos",
    "dos_energy_up",
    "dos_energy_down",
    "is_magnetic",
    "ordering",
    "total_magnetization_normalized_vol",
    "total_magnetization_normalized_formula_units",
    "num_magnetic_sites",
    "num_unique_magnetic_sites",
    "types_of_magnetic_species",
    "bulk_modulus",
    "shear_modulus",
    "universal_anisotropy",
    "homogeneous_poisson",
    "e_total",
    "e_ionic",
    "e_electronic",
    "n",
    "e_ij_max",
    "weighted_surface_energy_EV_PER_ANG2",
    "weighted_surface_energy",
    "weighted_work_function",
    "surface_anisotropy",
    "shape_factor",
    "has_reconstructed",
    "possible_species",
    "has_props",
    "theoretical",
    "database_IDs"
  ]
}
