{
  "builder_meta": null,
  "nsites": null,
  "elements": null,
  "nelements": null,
  "composition": null,
  "composition_reduced": null,
  "formula_pretty": "ThHg3",
  "formula_anonymous": "AB3",
  "chemsys": null,
  "volume": 199.75727322908497,
  "density": 13.862532615652073,
  "density_atomic": 24.96965915363562,
  "symmetry": null,
  "property_name": null,
  "material_id": "mp-30724",
  "deprecated": null,
  "deprecation_reasons": null,
  "last_updated": null,
  "origins": null,
  "warnings": null,
  "structure": {
    "@module": "pymatgen.core.structure",
    "@class": "Structure",
    "charge": 0,
    "lattice": {
      "matrix": [
        [6.81529105, -1e-8, -0.0],
        [-3.40764604, 5.90221559, 0.0],
        [0.0, 0.0, 4.96595895]
      ],
      "pbc": [true, true, true],
      "a": 6.81529105,
      "b": 6.815291659552563,
      "c": 4.96595895,
      "alpha": 90.0,
      "beta": 90.0,
      "gamma": 120.00000212481694,
      "volume": 199.75727322908497
    },
    "properties": {},
    "sites": [
      {
        "species": [{ "element": "Th", "occu": 1 }],
        "abc": [0.333333, 0.666667, 0.25],
        "properties": { "magmom": -0.0 },
        "label": "Th",
        "xyz": [-3.750979030048285e-6, 3.9348123574052, 1.2414897375]
      },
      {
        "species": [{ "element": "Th", "occu": 1 }],
        "abc": [0.666667, 0.333333, 0.75],
        "properties": { "magmom": -0.0 },
        "label": "Th",
        "xyz": [3.40764876097903, 1.9674032225947997, 3.7244692125]
      },
      {
        "species": [{ "element": "Hg", "occu": 1 }],
        "abc": [0.83869892, 0.67739784, 0.25],
        "properties": { "magmom": 0.0 },
        "label": "Hg",
        "xyz": [3.4076451761401128, 3.9981480834933363, 1.2414897375]
      },
      {
        "species": [{ "element": "Hg", "occu": 1 }],
        "abc": [0.16130108, 0.83869892, 0.75],
        "properties": { "magmom": 0.0 },
        "label": "Hg",
        "xyz": [-1.758675246610943, 4.9501818393271515, 3.7244692125]
      },
      {
        "species": [{ "element": "Hg", "occu": 1 }],
        "abc": [0.67739784, 0.83869892, 0.75],
        "properties": { "magmom": 0.0 },
        "label": "Hg",
        "xyz": [1.758674382751055, 4.950181834166184, 3.7244692125]
      },
      {
        "species": [{ "element": "Hg", "occu": 1 }],
        "abc": [0.32260216, 0.16130108, 0.25],
        "properties": { "magmom": 0.0 },
        "label": "Hg",
        "xyz": [1.6489706272489446, 0.9520337458338157, 1.2414897375]
      },
      {
        "species": [{ "element": "Hg", "occu": 1 }],
        "abc": [0.83869892, 0.16130108, 0.25],
        "properties": { "magmom": 0.0 },
        "label": "Hg",
        "xyz": [5.166320256610943, 0.9520337406728481, 1.2414897375]
      },
      {
        "species": [{ "element": "Hg", "occu": 1 }],
        "abc": [0.16130108, 0.32260216, 0.75],
        "properties": { "magmom": 0.0 },
        "label": "Hg",
        "xyz": [-1.6614011255633443e-7, 1.9040674965066637, 3.7244692125]
      }
    ]
  },
  "task_ids": null,
  "uncorrected_energy_per_atom": null,
  "energy_per_atom": -55.69613189125,
  "formation_energy_per_atom": -0.301461461875,
  "energy_above_hull": 0.0,
  "is_stable": true,
  "equilibrium_reaction_energy_per_atom": null,
  "decomposes_to": null,
  "xas": null,
  "grain_boundaries": null,
  "band_gap": 0.0,
  "cbm": null,
  "vbm": null,
  "efermi": 4.69909302,
  "is_gap_direct": null,
  "is_metal": null,
  "es_source_calc_id": null,
  "bandstructure": null,
  "dos": null,
  "dos_energy_up": null,
  "dos_energy_down": null,
  "is_magnetic": null,
  "ordering": null,
  "total_magnetization": 0.0,
  "total_magnetization_normalized_vol": null,
  "total_magnetization_normalized_formula_units": null,
  "num_magnetic_sites": null,
  "num_unique_magnetic_sites": null,
  "types_of_magnetic_species": null,
  "bulk_modulus": null,
  "shear_modulus": null,
  "universal_anisotropy": null,
  "homogeneous_poisson": null,
  "e_total": null,
  "e_ionic": null,
  "e_electronic": null,
  "n": null,
  "e_ij_max": null,
  "weighted_surface_energy_EV_PER_ANG2": null,
  "weighted_surface_energy": null,
  "weighted_work_function": null,
  "surface_anisotropy": null,
  "shape_factor": null,
  "has_reconstructed": null,
  "possible_species": null,
  "has_props": null,
  "theoretical": null,
  "database_IDs": null,
  "fields_not_requested": [
    "builder_meta",
    "nsites",
    "elements",
    "nelements",
    "composition",
    "composition_reduced",
    "chemsys",
    "symmetry",
    "property_name",
    "deprecated",
    "deprecation_reasons",
    "last_updated",
    "origins",
    "warnings",
    "task_ids",
    "uncorrected_energy_per_atom",
    "equilibrium_reaction_energy_per_atom",
    "decomposes_to",
    "xas",
    "grain_boundaries",
    "cbm",
    "vbm",
    "is_gap_direct",
    "is_metal",
    "es_source_calc_id",
    "bandstructure",
    "dos",
    "dos_energy_up",
    "dos_energy_down",
    "is_magnetic",
    "ordering",
    "total_magnetization_normalized_vol",
    "total_magnetization_normalized_formula_units",
    "num_magnetic_sites",
    "num_unique_magnetic_sites",
    "types_of_magnetic_species",
    "bulk_modulus",
    "shear_modulus",
    "universal_anisotropy",
    "homogeneous_poisson",
    "e_total",
    "e_ionic",
    "e_electronic",
    "n",
    "e_ij_max",
    "weighted_surface_energy_EV_PER_ANG2",
    "weighted_surface_energy",
    "weighted_work_function",
    "surface_anisotropy",
    "shape_factor",
    "has_reconstructed",
    "possible_species",
    "has_props",
    "theoretical",
    "database_IDs"
  ]
}
