{"builder_meta": null, "nsites": null, "elements": null, "nelements": null, "composition": null, "composition_reduced": null, "formula_pretty": "ThI2", "formula_anonymous": "AB2", "chemsys": null, "volume": 452.9848333952775, "density": 7.124017092081483, "density_atomic": 37.74873611627313, "symmetry": null, "property_name": null, "material_id": "mp-27652", "deprecated": null, "deprecation_reasons": null, "last_updated": null, "origins": null, "warnings": null, "structure": {"@module": "pymatgen.core.structure", "@class": "Structure", "charge": 0, "lattice": {"matrix": [[3.9836416, -2e-08, -0.0], [-1.99182133, 3.44993515, -0.0], [0.0, -0.0, 32.9603999]], "pbc": [true, true, true], "a": 3.9836416, "b": 3.983642146308889, "c": 32.9603999, "alpha": 90.0, "beta": 90.0, "gamma": 120.00000455329086, "volume": 452.9848333952775}, "properties": {}, "sites": [{"species": [{"element": "Th", "occu": 1}], "abc": [0.666667, 0.333333, 0.75], "properties": {"magmom": -0.001}, "label": "Th", "xyz": [1.9918226151543101, 1.14997722002161, 24.720299925]}, {"species": [{"element": "Th", "occu": 1}], "abc": [0.333333, 0.666667, 0.25], "properties": {"magmom": -0.001}, "label": "Th", "xyz": [-2.3451543100794225e-06, 2.29995790997839, 8.240099975]}, {"species": [{"element": "Th", "occu": 1}], "abc": [0.0, -0.0, 0.5], "properties": {"magmom": -0.053}, "label": "Th", "xyz": [0.0, 0.0, 16.48019995]}, {"species": [{"element": "Th", "occu": 1}], "abc": [0.0, -0.0, 0.0], "properties": {"magmom": -0.053}, "label": "Th", "xyz": [0.0, 0.0, 0.0]}, {"species": [{"element": "I", "occu": 1}], "abc": [0.333333, 0.666667, 0.43063754], "properties": {"magmom": -0.001}, "label": "I", "xyz": [-2.3451543100794225e-06, 2.29995790997839, 14.193985530352245]}, {"species": [{"element": "I", "occu": 1}], "abc": [0.666667, 0.333333, 0.93063754], "properties": {"magmom": -0.001}, "label": "I", "xyz": [1.9918226151543101, 1.14997722002161, 30.674185480352243]}, {"species": [{"element": "I", "occu": 1}], "abc": [0.666667, 0.333333, 0.56936246], "properties": {"magmom": -0.001}, "label": "I", "xyz": [1.9918226151543101, 1.14997722002161, 18.766414369647755]}, {"species": [{"element": "I", "occu": 1}], "abc": [0.333333, 0.666667, 0.06936246], "properties": {"magmom": -0.001}, "label": "I", "xyz": [-2.3451543100794225e-06, 2.29995790997839, 2.286214419647754]}, {"species": [{"element": "I", "occu": 1}], "abc": [0.0, -0.0, 0.18158671], "properties": {"magmom": -0.0}, "label": "I", "xyz": [0.0, 0.0, 5.985170578125329]}, {"species": [{"element": "I", "occu": 1}], "abc": [0.0, 0.0, 0.68158671], "properties": {"magmom": -0.0}, "label": "I", "xyz": [0.0, 0.0, 22.46537052812533]}, {"species": [{"element": "I", "occu": 1}], "abc": [0.0, -0.0, 0.8184132900000001], "properties": {"magmom": -0.0}, "label": "I", "xyz": [0.0, 0.0, 26.97522932187467]}, {"species": [{"element": "I", "occu": 1}], "abc": [0.0, -0.0, 0.31841329], "properties": {"magmom": -0.0}, "label": "I", "xyz": [0.0, 0.0, 10.49502937187467]}]}, "task_ids": null, "uncorrected_energy_per_atom": null, "energy_per_atom": -4.805975782499999, "formation_energy_per_atom": -1.3186812891666642, "energy_above_hull": 0.00751867472222, "is_stable": false, "equilibrium_reaction_energy_per_atom": null, "decomposes_to": null, "xas": null, "grain_boundaries": null, "band_gap": 0.0, "cbm": null, "vbm": null, "efermi": 4.78033377, "is_gap_direct": null, "is_metal": null, "es_source_calc_id": null, "bandstructure": null, "dos": null, "dos_energy_up": null, "dos_energy_down": null, "is_magnetic": null, "ordering": null, "total_magnetization": 0.2134371, "total_magnetization_normalized_vol": null, "total_magnetization_normalized_formula_units": null, "num_magnetic_sites": null, "num_unique_magnetic_sites": null, "types_of_magnetic_species": null, "bulk_modulus": null, "shear_modulus": null, "universal_anisotropy": null, "homogeneous_poisson": null, "e_total": null, "e_ionic": null, "e_electronic": null, "n": null, "e_ij_max": null, "weighted_surface_energy_EV_PER_ANG2": null, "weighted_surface_energy": null, "weighted_work_function": null, "surface_anisotropy": null, "shape_factor": null, "has_reconstructed": null, "possible_species": null, "has_props": null, "theoretical": null, "database_IDs": null, "fields_not_requested": ["builder_meta", "nsites", "elements", "nelements", "composition", "composition_reduced", "chemsys", "symmetry", "property_name", "deprecated", "deprecation_reasons", "last_updated", "origins", "warnings", "task_ids", "uncorrected_energy_per_atom", "equilibrium_reaction_energy_per_atom", "decomposes_to", "xas", "grain_boundaries", "cbm", "vbm", "is_gap_direct", "is_metal", "es_source_calc_id", "bandstructure", "dos", "dos_energy_up", "dos_energy_down", "is_magnetic", "ordering", "total_magnetization_normalized_vol", "total_magnetization_normalized_formula_units", "num_magnetic_sites", "num_unique_magnetic_sites", "types_of_magnetic_species", "bulk_modulus", "shear_modulus", "universal_anisotropy", "homogeneous_poisson", "e_total", "e_ionic", "e_electronic", "n", "e_ij_max", "weighted_surface_energy_EV_PER_ANG2", "weighted_surface_energy", "weighted_work_function", "surface_anisotropy", "shape_factor", "has_reconstructed", "possible_species", "has_props", "theoretical", "database_IDs"]}