{
  "builder_meta": null,
  "nsites": null,
  "elements": null,
  "nelements": null,
  "composition": null,
  "composition_reduced": null,
  "formula_pretty": "ThI4",
  "formula_anonymous": "AB4",
  "chemsys": null,
  "volume": 873.8766551805696,
  "density": 5.62197228604971,
  "density_atomic": 43.69383275902848,
  "symmetry": null,
  "property_name": null,
  "material_id": "mp-27697",
  "deprecated": null,
  "deprecation_reasons": null,
  "last_updated": null,
  "origins": null,
  "warnings": null,
  "structure": {
    "@module": "pymatgen.core.structure",
    "@class": "Structure",
    "charge": 0,
    "lattice": {
      "matrix": [
        [7.94770994, 0.0, -1.23805616],
        [0.0, 8.19457376, 0.0],
        [-0.10536103000000001, 0.0, 13.43422642]
      ],
      "pbc": [true, true, true],
      "a": 8.043561173117833,
      "b": 8.19457376,
      "c": 13.434639572778597,
      "alpha": 90.0,
      "beta": 99.30344810861135,
      "gamma": 90.0,
      "volume": 873.8766551805696
    },
    "properties": {},
    "sites": [
      {
        "species": [{ "element": "Th", "occu": 1 }],
        "abc": [0.32260937, 0.51382739, 0.31728695],
        "properties": { "magmom": -0.0 },
        "label": "Th",
        "xyz": [2.5305760168285794, 4.210596447263287, 3.863096208609]
      },
      {
        "species": [{ "element": "Th", "occu": 1 }],
        "abc": [0.17739063, 0.01382739, 0.18271305000000002],
        "properties": { "magmom": -0.0 },
        "label": "Th",
        "xyz": [1.3905984381714207, 0.1133095672632864, 2.2349889213910004]
      },
      {
        "species": [{ "element": "Th", "occu": 1 }],
        "abc": [0.67739063, 0.48617261, 0.68271305],
        "properties": { "magmom": -0.0 },
        "label": "Th",
        "xyz": [5.311772893171421, 3.983977312736714, 8.333074051391]
      },
      {
        "species": [{ "element": "Th", "occu": 1 }],
        "abc": [0.82260937, 0.98617261, 0.8172869500000001],
        "properties": { "magmom": -0.0 },
        "label": "Th",
        "xyz": [6.451750471828579, 8.081264192736715, 9.961181338609]
      },
      {
        "species": [{ "element": "I", "occu": 1 }],
        "abc": [0.49549963, 0.85911289, 0.34495597],
        "properties": { "magmom": -0.0 },
        "label": "I",
        "xyz": [3.9017424183134737, 7.0400639452717675, 4.0207602367115065]
      },
      {
        "species": [{ "element": "I", "occu": 1 }],
        "abc": [0.00450037, 0.35911289, 0.15504403],
        "properties": { "magmom": -0.0 },
        "label": "I",
        "xyz": [0.019432036686526898, 2.9427770652717666, 2.0773248932884933]
      },
      {
        "species": [{ "element": "I", "occu": 1 }],
        "abc": [0.50450037, 0.14088711, 0.65504403],
        "properties": { "magmom": -0.0 },
        "label": "I",
        "xyz": [3.9406064916865278, 1.1545098147282338, 8.175410023288492]
      },
      {
        "species": [{ "element": "I", "occu": 1 }],
        "abc": [0.99549963, 0.64088711, 0.84495597],
        "properties": { "magmom": -0.0 },
        "label": "I",
        "xyz": [7.822916873313473, 5.251796694728234, 10.118845366711506]
      },
      {
        "species": [{ "element": "I", "occu": 1 }],
        "abc": [0.18387044, 0.08762862, 0.9419400000000001],
        "properties": { "magmom": 0.0 },
        "label": "I",
        "xyz": [1.3621051550619736, 0.7180791900770113, 12.426593303170892]
      },
      {
        "species": [{ "element": "I", "occu": 1 }],
        "abc": [0.31612956000000003, 0.58762862, 0.55806],
        "properties": { "magmom": 0.0 },
        "label": "I",
        "xyz": [2.453708269938027, 4.815366070077012, 7.10571824682911]
      },
      {
        "species": [{ "element": "I", "occu": 1 }],
        "abc": [0.81612956, 0.9123713800000001, 0.05806000000000001],
        "properties": { "magmom": 0.0 },
        "label": "I",
        "xyz": [6.4802437549380265, 7.47649456992299, -0.23042304317088946]
      },
      {
        "species": [{ "element": "I", "occu": 1 }],
        "abc": [0.68387044, 0.41237138, 0.44194000000000006],
        "properties": { "magmom": 0.0 },
        "label": "I",
        "xyz": [5.388640640061974, 3.379207689922989, 5.09045201317089]
      },
      {
        "species": [{ "element": "I", "occu": 1 }],
        "abc": [0.51090546, 0.74624409, 0.81939741],
        "properties": { "magmom": -0.0 },
        "label": "I",
        "xyz": [3.9741958477453405, 6.115152238469079, 10.375440681970938]
      },
      {
        "species": [{ "element": "I", "occu": 1 }],
        "abc": [0.98909454, 0.24624409, 0.68060259],
        "properties": { "magmom": -0.0 },
        "label": "I",
        "xyz": [7.78932751725466, 2.0178653584690784, 7.918814708029061]
      },
      {
        "species": [{ "element": "I", "occu": 1 }],
        "abc": [0.48909454, 0.25375591000000003, 0.18060259],
        "properties": { "magmom": -0.0 },
        "label": "I",
        "xyz": [3.8681530622546605, 2.079421521530922, 1.8207295780290615]
      },
      {
        "species": [{ "element": "I", "occu": 1 }],
        "abc": [0.01090546, 0.75375591, 0.31939741],
        "properties": { "magmom": -0.0 },
        "label": "I",
        "xyz": [0.053021392745340096, 6.176708401530922, 4.277355551970939]
      },
      {
        "species": [{ "element": "I", "occu": 1 }],
        "abc": [0.68759415, 0.3104414, 0.90228473],
        "properties": { "magmom": -0.0 },
        "label": "I",
        "xyz": [5.369733212134779, 2.5439349504576643, 11.270217185141103]
      },
      {
        "species": [{ "element": "I", "occu": 1 }],
        "abc": [0.81240585, 0.8104414, 0.59771527],
        "properties": { "magmom": -0.0 },
        "label": "I",
        "xyz": [6.393790152865221, 6.641221830457664, 7.024038204858899]
      },
      {
        "species": [{ "element": "I", "occu": 1 }],
        "abc": [0.31240585, 0.6895586, 0.09771527],
        "properties": { "magmom": -0.0 },
        "label": "I",
        "xyz": [2.472615697865221, 5.650638809542337, 0.9259530748588976]
      },
      {
        "species": [{ "element": "I", "occu": 1 }],
        "abc": [0.18759415000000002, 0.1895586, 0.40228473000000003],
        "properties": { "magmom": -0.0 },
        "label": "I",
        "xyz": [1.4485587571347793, 1.5533519295423361, 5.172132055141103]
      }
    ]
  },
  "task_ids": null,
  "uncorrected_energy_per_atom": null,
  "energy_per_atom": -4.241598454500002,
  "formation_energy_per_atom": -1.5396167125,
  "energy_above_hull": 0.0,
  "is_stable": true,
  "equilibrium_reaction_energy_per_atom": null,
  "decomposes_to": null,
  "xas": null,
  "grain_boundaries": null,
  "band_gap": 1.8452000000000002,
  "cbm": null,
  "vbm": null,
  "efermi": 2.1480505,
  "is_gap_direct": null,
  "is_metal": null,
  "es_source_calc_id": null,
  "bandstructure": null,
  "dos": null,
  "dos_energy_up": null,
  "dos_energy_down": null,
  "is_magnetic": null,
  "ordering": null,
  "total_magnetization": 0.0,
  "total_magnetization_normalized_vol": null,
  "total_magnetization_normalized_formula_units": null,
  "num_magnetic_sites": null,
  "num_unique_magnetic_sites": null,
  "types_of_magnetic_species": null,
  "bulk_modulus": null,
  "shear_modulus": null,
  "universal_anisotropy": null,
  "homogeneous_poisson": null,
  "e_total": null,
  "e_ionic": null,
  "e_electronic": null,
  "n": null,
  "e_ij_max": null,
  "weighted_surface_energy_EV_PER_ANG2": null,
  "weighted_surface_energy": null,
  "weighted_work_function": null,
  "surface_anisotropy": null,
  "shape_factor": null,
  "has_reconstructed": null,
  "possible_species": null,
  "has_props": null,
  "theoretical": null,
  "database_IDs": null,
  "fields_not_requested": [
    "builder_meta",
    "nsites",
    "elements",
    "nelements",
    "composition",
    "composition_reduced",
    "chemsys",
    "symmetry",
    "property_name",
    "deprecated",
    "deprecation_reasons",
    "last_updated",
    "origins",
    "warnings",
    "task_ids",
    "uncorrected_energy_per_atom",
    "equilibrium_reaction_energy_per_atom",
    "decomposes_to",
    "xas",
    "grain_boundaries",
    "cbm",
    "vbm",
    "is_gap_direct",
    "is_metal",
    "es_source_calc_id",
    "bandstructure",
    "dos",
    "dos_energy_up",
    "dos_energy_down",
    "is_magnetic",
    "ordering",
    "total_magnetization_normalized_vol",
    "total_magnetization_normalized_formula_units",
    "num_magnetic_sites",
    "num_unique_magnetic_sites",
    "types_of_magnetic_species",
    "bulk_modulus",
    "shear_modulus",
    "universal_anisotropy",
    "homogeneous_poisson",
    "e_total",
    "e_ionic",
    "e_electronic",
    "n",
    "e_ij_max",
    "weighted_surface_energy_EV_PER_ANG2",
    "weighted_surface_energy",
    "weighted_work_function",
    "surface_anisotropy",
    "shape_factor",
    "has_reconstructed",
    "possible_species",
    "has_props",
    "theoretical",
    "database_IDs"
  ]
}
