{
  "builder_meta": null,
  "nsites": null,
  "elements": null,
  "nelements": null,
  "composition": null,
  "composition_reduced": null,
  "formula_pretty": "ThMg3",
  "formula_anonymous": "AB3",
  "chemsys": null,
  "volume": 206.51847458197136,
  "density": 4.904030698795606,
  "density_atomic": 25.81480932274642,
  "symmetry": null,
  "property_name": null,
  "material_id": "mp-979263",
  "deprecated": null,
  "deprecation_reasons": null,
  "last_updated": null,
  "origins": null,
  "warnings": null,
  "structure": {
    "@module": "pymatgen.core.structure",
    "@class": "Structure",
    "charge": 0,
    "lattice": {
      "matrix": [
        [6.76275752, -1.029999999999998e-6, 0.0],
        [-3.38138029, 5.85671997, -0.0],
        [-0.0, 0.0, 5.21411579]
      ],
      "pbc": [true, true, true],
      "a": 6.762757520000078,
      "b": 6.762758421871751,
      "c": 5.21411579,
      "alpha": 90.0,
      "beta": 90.0,
      "gamma": 120.00001928280804,
      "volume": 206.51847458197136
    },
    "properties": {},
    "sites": [
      {
        "species": [{ "element": "Th", "occu": 1 }],
        "abc": [0.666667, 0.333333, 0.250001],
        "properties": { "magmom": -0.0 },
        "label": "Th",
        "xyz": [3.3813816313792704, 1.9522373510930002, 1.3035341616157898]
      },
      {
        "species": [{ "element": "Th", "occu": 1 }],
        "abc": [0.333333, 0.666666, 0.75],
        "properties": { "magmom": -0.0 },
        "label": "Th",
        "xyz": [-1.0199989799453135e-6, 3.9044757321870303, 3.9105868425]
      },
      {
        "species": [{ "element": "Mg", "occu": 1 }],
        "abc": [0.16078553, 0.32157107, 0.250001],
        "properties": { "magmom": -0.0 },
        "label": "Mg",
        "xyz": [-5.258175246325436e-7, 1.8833515418341722, 1.3035341616157898]
      },
      {
        "species": [{ "element": "Mg", "occu": 1 }],
        "abc": [0.16078453, 0.83921447, 0.250001],
        "properties": { "magmom": -0.0 },
        "label": "Mg",
        "xyz": [-1.7503564785836307, 4.9150439799539, 1.3035341616157898]
      },
      {
        "species": [{ "element": "Mg", "occu": 1 }],
        "abc": [0.67842993, 0.83921447, 0.250001],
        "properties": { "magmom": -0.0 },
        "label": "Mg",
        "xyz": [1.7503538429597767, 4.915043446779138, 1.3035341616157898]
      },
      {
        "species": [{ "element": "Mg", "occu": 1 }],
        "abc": [0.32157107, 0.16078453, 0.75],
        "properties": { "magmom": -0.0 },
        "label": "Mg",
        "xyz": [1.6310335311780328, 0.9416696364998621, 3.9105868425]
      },
      {
        "species": [{ "element": "Mg", "occu": 1 }],
        "abc": [0.83921347, 0.16078453, 0.75],
        "properties": { "magmom": -0.0 },
        "label": "Mg",
        "xyz": [5.1317235644488814, 0.9416691033281901, 3.9105868425]
      },
      {
        "species": [{ "element": "Mg", "occu": 1 }],
        "abc": [0.83921447, 0.67842693, 0.75],
        "properties": { "magmom": -0.0 },
        "label": "Mg",
        "xyz": [3.3813845185781055, 3.973355684725888, 3.9105868425]
      }
    ]
  },
  "task_ids": null,
  "uncorrected_energy_per_atom": null,
  "energy_per_atom": -3.005062442499998,
  "formation_energy_per_atom": 0.071254631250003,
  "energy_above_hull": 0.071254631250003,
  "is_stable": false,
  "equilibrium_reaction_energy_per_atom": null,
  "decomposes_to": null,
  "xas": null,
  "grain_boundaries": null,
  "band_gap": 0.0,
  "cbm": null,
  "vbm": null,
  "efermi": 4.38146299,
  "is_gap_direct": null,
  "is_metal": null,
  "es_source_calc_id": null,
  "bandstructure": null,
  "dos": null,
  "dos_energy_up": null,
  "dos_energy_down": null,
  "is_magnetic": null,
  "ordering": null,
  "total_magnetization": 1e-6,
  "total_magnetization_normalized_vol": null,
  "total_magnetization_normalized_formula_units": null,
  "num_magnetic_sites": null,
  "num_unique_magnetic_sites": null,
  "types_of_magnetic_species": null,
  "bulk_modulus": null,
  "shear_modulus": null,
  "universal_anisotropy": null,
  "homogeneous_poisson": null,
  "e_total": null,
  "e_ionic": null,
  "e_electronic": null,
  "n": null,
  "e_ij_max": null,
  "weighted_surface_energy_EV_PER_ANG2": null,
  "weighted_surface_energy": null,
  "weighted_work_function": null,
  "surface_anisotropy": null,
  "shape_factor": null,
  "has_reconstructed": null,
  "possible_species": null,
  "has_props": null,
  "theoretical": null,
  "database_IDs": null,
  "fields_not_requested": [
    "builder_meta",
    "nsites",
    "elements",
    "nelements",
    "composition",
    "composition_reduced",
    "chemsys",
    "symmetry",
    "property_name",
    "deprecated",
    "deprecation_reasons",
    "last_updated",
    "origins",
    "warnings",
    "task_ids",
    "uncorrected_energy_per_atom",
    "equilibrium_reaction_energy_per_atom",
    "decomposes_to",
    "xas",
    "grain_boundaries",
    "cbm",
    "vbm",
    "is_gap_direct",
    "is_metal",
    "es_source_calc_id",
    "bandstructure",
    "dos",
    "dos_energy_up",
    "dos_energy_down",
    "is_magnetic",
    "ordering",
    "total_magnetization_normalized_vol",
    "total_magnetization_normalized_formula_units",
    "num_magnetic_sites",
    "num_unique_magnetic_sites",
    "types_of_magnetic_species",
    "bulk_modulus",
    "shear_modulus",
    "universal_anisotropy",
    "homogeneous_poisson",
    "e_total",
    "e_ionic",
    "e_electronic",
    "n",
    "e_ij_max",
    "weighted_surface_energy_EV_PER_ANG2",
    "weighted_surface_energy",
    "weighted_work_function",
    "surface_anisotropy",
    "shape_factor",
    "has_reconstructed",
    "possible_species",
    "has_props",
    "theoretical",
    "database_IDs"
  ]
}
