{"builder_meta": null, "nsites": null, "elements": null, "nelements": null, "composition": null, "composition_reduced": null, "formula_pretty": "ThOs2", "formula_anonymous": "AB2", "chemsys": null, "volume": 114.44440898611279, "density": 17.77416591788468, "density_atomic": 19.07406816435213, "symmetry": null, "property_name": null, "material_id": "mp-1828", "deprecated": null, "deprecation_reasons": null, "last_updated": null, "origins": null, "warnings": null, "structure": {"@module": "pymatgen.core.structure", "@class": "Structure", "charge": 0, "lattice": {"matrix": [[4.71954919, -0.0, 2.72483214], [1.5731827200000001, 4.4496334300000004, 2.72483214], [-0.0, -0.0, 5.44966529]], "pbc": [true, true, true], "a": 5.4496655629503215, "b": 5.449665285414981, "c": 5.44966529, "alpha": 60.000006102917716, "beta": 60.00000778757023, "gamma": 60.00000711674094, "volume": 114.44440898611283}, "properties": {}, "sites": [{"species": [{"element": "Th", "occu": 1}], "abc": [0.875, 0.875, 0.875], "properties": {"magmom": -0.0}, "label": "Th", "xyz": [5.5061404212500005, 3.8934292512500006, 9.53691337375]}, {"species": [{"element": "Th", "occu": 1}], "abc": [0.125, 0.125, 0.125], "properties": {"magmom": -0.0}, "label": "Th", "xyz": [0.7865914887500001, 0.5562041787500001, 1.36241619625]}, {"species": [{"element": "Os", "occu": 1}], "abc": [0.5, -0.0, 0.5], "properties": {"magmom": 0.0}, "label": "Os", "xyz": [2.359774595, 0.0, 4.087248715]}, {"species": [{"element": "Os", "occu": 1}], "abc": [0.0, 0.5, 0.5], "properties": {"magmom": 0.0}, "label": "Os", "xyz": [0.7865913600000001, 2.2248167150000002, 4.087248715]}, {"species": [{"element": "Os", "occu": 1}], "abc": [0.5, 0.5, 0.5], "properties": {"magmom": 0.0}, "label": "Os", "xyz": [3.1463659550000003, 2.2248167150000002, 5.449664785]}, {"species": [{"element": "Os", "occu": 1}], "abc": [0.5, 0.5, -0.0], "properties": {"magmom": 0.0}, "label": "Os", "xyz": [3.1463659550000003, 2.2248167150000002, 2.72483214]}]}, "task_ids": null, "uncorrected_energy_per_atom": null, "energy_per_atom": -60.09754221166667, "formation_energy_per_atom": -0.282302261666671, "energy_above_hull": 0.0, "is_stable": true, "equilibrium_reaction_energy_per_atom": null, "decomposes_to": null, "xas": null, "grain_boundaries": null, "band_gap": 0.0, "cbm": null, "vbm": null, "efermi": 8.437407, "is_gap_direct": null, "is_metal": null, "es_source_calc_id": null, "bandstructure": null, "dos": null, "dos_energy_up": null, "dos_energy_down": null, "is_magnetic": null, "ordering": null, "total_magnetization": 9.9e-06, "total_magnetization_normalized_vol": null, "total_magnetization_normalized_formula_units": null, "num_magnetic_sites": null, "num_unique_magnetic_sites": null, "types_of_magnetic_species": null, "bulk_modulus": null, "shear_modulus": null, "universal_anisotropy": null, "homogeneous_poisson": null, "e_total": null, "e_ionic": null, "e_electronic": null, "n": null, "e_ij_max": null, "weighted_surface_energy_EV_PER_ANG2": null, "weighted_surface_energy": null, "weighted_work_function": null, "surface_anisotropy": null, "shape_factor": null, "has_reconstructed": null, "possible_species": null, "has_props": null, "theoretical": null, "database_IDs": null, "fields_not_requested": ["builder_meta", "nsites", "elements", "nelements", "composition", "composition_reduced", "chemsys", "symmetry", "property_name", "deprecated", "deprecation_reasons", "last_updated", "origins", "warnings", "task_ids", "uncorrected_energy_per_atom", "equilibrium_reaction_energy_per_atom", "decomposes_to", "xas", "grain_boundaries", "cbm", "vbm", "is_gap_direct", "is_metal", "es_source_calc_id", "bandstructure", "dos", "dos_energy_up", "dos_energy_down", "is_magnetic", "ordering", "total_magnetization_normalized_vol", "total_magnetization_normalized_formula_units", "num_magnetic_sites", "num_unique_magnetic_sites", "types_of_magnetic_species", "bulk_modulus", "shear_modulus", "universal_anisotropy", "homogeneous_poisson", "e_total", "e_ionic", "e_electronic", "n", "e_ij_max", "weighted_surface_energy_EV_PER_ANG2", "weighted_surface_energy", "weighted_work_function", "surface_anisotropy", "shape_factor", "has_reconstructed", "possible_species", "has_props", "theoretical", "database_IDs"]}