{
  "builder_meta": null,
  "nsites": null,
  "elements": null,
  "nelements": null,
  "composition": null,
  "composition_reduced": null,
  "formula_pretty": "ThP2",
  "formula_anonymous": "AB2",
  "chemsys": null,
  "volume": 264.03477712724225,
  "density": 7.395609814141375,
  "density_atomic": 22.002898093936853,
  "symmetry": null,
  "property_name": null,
  "material_id": "mp-1103645",
  "deprecated": null,
  "deprecation_reasons": null,
  "last_updated": null,
  "origins": null,
  "warnings": null,
  "structure": {
    "@module": "pymatgen.core.structure",
    "@class": "Structure",
    "charge": 0,
    "lattice": {
      "matrix": [
        [3.86502366, 0.0, 0.0],
        [0.0, 7.2462727, 0.0],
        [0.0, 0.0, 9.42745141]
      ],
      "pbc": [true, true, true],
      "a": 3.86502366,
      "b": 7.2462727,
      "c": 9.42745141,
      "alpha": 90.0,
      "beta": 90.0,
      "gamma": 90.0,
      "volume": 264.03477712724225
    },
    "properties": {},
    "sites": [
      {
        "species": [{ "element": "Th", "occu": 1 }],
        "abc": [0.25, 0.29974149, 0.84665325],
        "properties": { "magmom": 0.0 },
        "label": "Th",
        "xyz": [0.966255915, 2.172008576044323, 7.981782375493583]
      },
      {
        "species": [{ "element": "Th", "occu": 1 }],
        "abc": [0.25, 0.79974149, 0.65334675],
        "properties": { "magmom": 0.0 },
        "label": "Th",
        "xyz": [0.966255915, 5.795144926044323, 6.159394739506417]
      },
      {
        "species": [{ "element": "Th", "occu": 1 }],
        "abc": [0.75, 0.7002585100000001, 0.15334675],
        "properties": { "magmom": 0.0 },
        "label": "Th",
        "xyz": [2.898767745, 5.074264123955677, 1.4456690345064176]
      },
      {
        "species": [{ "element": "Th", "occu": 1 }],
        "abc": [0.75, 0.20025851, 0.34665325],
        "properties": { "magmom": 0.0 },
        "label": "Th",
        "xyz": [2.898767745, 1.451127773955677, 3.2680566704935825]
      },
      {
        "species": [{ "element": "P", "occu": 1 }],
        "abc": [0.25, 0.91803687, 0.96118319],
        "properties": { "magmom": -0.0 },
        "label": "P",
        "xyz": [0.966255915, 6.652345508674449, 9.061507819833798]
      },
      {
        "species": [{ "element": "P", "occu": 1 }],
        "abc": [0.25, 0.41803687, 0.53881681],
        "properties": { "magmom": -0.0 },
        "label": "P",
        "xyz": [0.966255915, 3.029209158674449, 5.079669295166203]
      },
      {
        "species": [{ "element": "P", "occu": 1 }],
        "abc": [0.75, 0.08196313, 0.03881681],
        "properties": { "magmom": -0.0 },
        "label": "P",
        "xyz": [2.898767745, 0.5939271913255509, 0.3659435901662021]
      },
      {
        "species": [{ "element": "P", "occu": 1 }],
        "abc": [0.75, 0.58196313, 0.46118319],
        "properties": { "magmom": -0.0 },
        "label": "P",
        "xyz": [2.898767745, 4.217063541325551, 4.347782114833798]
      },
      {
        "species": [{ "element": "P", "occu": 1 }],
        "abc": [0.25, 0.89594461, 0.33970213],
        "properties": { "magmom": 0.0 },
        "label": "P",
        "xyz": [0.966255915, 6.492258968155147, 3.2025253244485032]
      },
      {
        "species": [{ "element": "P", "occu": 1 }],
        "abc": [0.25, 0.39594461000000003, 0.16029787],
        "properties": { "magmom": 0.0 },
        "label": "P",
        "xyz": [0.966255915, 2.869122618155147, 1.5112003805514966]
      },
      {
        "species": [{ "element": "P", "occu": 1 }],
        "abc": [0.75, 0.10405539, 0.6602978700000001],
        "properties": { "magmom": 0.0 },
        "label": "P",
        "xyz": [2.898767745, 0.754013731844853, 6.224926085551497]
      },
      {
        "species": [{ "element": "P", "occu": 1 }],
        "abc": [0.75, 0.60405539, 0.83970213],
        "properties": { "magmom": 0.0 },
        "label": "P",
        "xyz": [2.898767745, 4.377150081844852, 7.916251029448503]
      }
    ]
  },
  "task_ids": null,
  "uncorrected_energy_per_atom": null,
  "energy_per_atom": -31.712616401666665,
  "formation_energy_per_atom": -1.219478143650789,
  "energy_above_hull": 0.035456752116402,
  "is_stable": false,
  "equilibrium_reaction_energy_per_atom": null,
  "decomposes_to": null,
  "xas": null,
  "grain_boundaries": null,
  "band_gap": 0.0,
  "cbm": null,
  "vbm": null,
  "efermi": 7.06947582,
  "is_gap_direct": null,
  "is_metal": null,
  "es_source_calc_id": null,
  "bandstructure": null,
  "dos": null,
  "dos_energy_up": null,
  "dos_energy_down": null,
  "is_magnetic": null,
  "ordering": null,
  "total_magnetization": 1e-7,
  "total_magnetization_normalized_vol": null,
  "total_magnetization_normalized_formula_units": null,
  "num_magnetic_sites": null,
  "num_unique_magnetic_sites": null,
  "types_of_magnetic_species": null,
  "bulk_modulus": null,
  "shear_modulus": null,
  "universal_anisotropy": null,
  "homogeneous_poisson": null,
  "e_total": null,
  "e_ionic": null,
  "e_electronic": null,
  "n": null,
  "e_ij_max": null,
  "weighted_surface_energy_EV_PER_ANG2": null,
  "weighted_surface_energy": null,
  "weighted_work_function": null,
  "surface_anisotropy": null,
  "shape_factor": null,
  "has_reconstructed": null,
  "possible_species": null,
  "has_props": null,
  "theoretical": null,
  "database_IDs": null,
  "fields_not_requested": [
    "builder_meta",
    "nsites",
    "elements",
    "nelements",
    "composition",
    "composition_reduced",
    "chemsys",
    "symmetry",
    "property_name",
    "deprecated",
    "deprecation_reasons",
    "last_updated",
    "origins",
    "warnings",
    "task_ids",
    "uncorrected_energy_per_atom",
    "equilibrium_reaction_energy_per_atom",
    "decomposes_to",
    "xas",
    "grain_boundaries",
    "cbm",
    "vbm",
    "is_gap_direct",
    "is_metal",
    "es_source_calc_id",
    "bandstructure",
    "dos",
    "dos_energy_up",
    "dos_energy_down",
    "is_magnetic",
    "ordering",
    "total_magnetization_normalized_vol",
    "total_magnetization_normalized_formula_units",
    "num_magnetic_sites",
    "num_unique_magnetic_sites",
    "types_of_magnetic_species",
    "bulk_modulus",
    "shear_modulus",
    "universal_anisotropy",
    "homogeneous_poisson",
    "e_total",
    "e_ionic",
    "e_electronic",
    "n",
    "e_ij_max",
    "weighted_surface_energy_EV_PER_ANG2",
    "weighted_surface_energy",
    "weighted_work_function",
    "surface_anisotropy",
    "shape_factor",
    "has_reconstructed",
    "possible_species",
    "has_props",
    "theoretical",
    "database_IDs"
  ]
}
