{
  "builder_meta": null,
  "nsites": null,
  "elements": null,
  "nelements": null,
  "composition": null,
  "composition_reduced": null,
  "formula_pretty": "ThP7",
  "formula_anonymous": "AB7",
  "chemsys": null,
  "volume": 604.3968851781348,
  "density": 4.932786880477674,
  "density_atomic": 18.88740266181671,
  "symmetry": null,
  "property_name": null,
  "material_id": "mp-28410",
  "deprecated": null,
  "deprecation_reasons": null,
  "last_updated": null,
  "origins": null,
  "warnings": null,
  "structure": {
    "@module": "pymatgen.core.structure",
    "@class": "Structure",
    "charge": 0,
    "lattice": {
      "matrix": [
        [5.63346, 0.0, 0.0],
        [0.0, 10.260692, 0.0],
        [0.0, 0.0, 10.456115]
      ],
      "pbc": [true, true, true],
      "a": 5.63346,
      "b": 10.260692,
      "c": 10.456115,
      "alpha": 90.0,
      "beta": 90.0,
      "gamma": 90.0,
      "volume": 604.3968851781348
    },
    "properties": {},
    "sites": [
      {
        "species": [{ "element": "Th", "occu": 1 }],
        "abc": [0.637166, 0.48929000000000006, 0.669214],
        "properties": { "magmom": 0.0 },
        "label": "Th",
        "xyz": [3.5894491743600003, 5.020453988680001, 6.99737854361]
      },
      {
        "species": [{ "element": "Th", "occu": 1 }],
        "abc": [0.137165999999999, 0.01071, 0.330785999999999],
        "properties": { "magmom": -0.0 },
        "label": "Th",
        "xyz": [0.7727191743599945, 0.10989201132000001, 3.45873645638999]
      },
      {
        "species": [{ "element": "Th", "occu": 1 }],
        "abc": [0.362834, 0.9892900000000001, 0.830785999999999],
        "properties": { "magmom": 0.0 },
        "label": "Th",
        "xyz": [2.04401082564, 10.150799988680001, 8.686793956389991]
      },
      {
        "species": [{ "element": "Th", "occu": 1 }],
        "abc": [0.862834, 0.51071, 0.169214],
        "properties": { "magmom": -0.001 },
        "label": "Th",
        "xyz": [4.860740825640001, 5.240238011320001, 1.7693210436100002]
      },
      {
        "species": [{ "element": "P", "occu": 1 }],
        "abc": [0.009921, 0.758921, 0.498716999999999],
        "properties": { "magmom": 0.0 },
        "label": "P",
        "xyz": [0.05588955666, 7.787054633332, 5.21464230445499]
      },
      {
        "species": [{ "element": "P", "occu": 1 }],
        "abc": [0.509921, 0.741078999999999, 0.501282999999999],
        "properties": { "magmom": -0.0 },
        "label": "P",
        "xyz": [2.87261955666, 7.603983366667991, 5.24147269554499]
      },
      {
        "species": [{ "element": "P", "occu": 1 }],
        "abc": [0.990078999999999, 0.258921, 0.001282999999999],
        "properties": { "magmom": -0.0 },
        "label": "P",
        "xyz": [5.577570443339995, 2.6567086333320002, 0.013415195544989544]
      },
      {
        "species": [{ "element": "P", "occu": 1 }],
        "abc": [0.490079, 0.241079, 0.998717],
        "properties": { "magmom": -0.0 },
        "label": "P",
        "xyz": [2.7608404433400002, 2.473637366668, 10.442699804455]
      },
      {
        "species": [{ "element": "P", "occu": 1 }],
        "abc": [0.677933, 0.754169, 0.795353],
        "properties": { "magmom": 0.0 },
        "label": "P",
        "xyz": [3.8191084381800002, 7.7382958249480005, 8.316302433595]
      },
      {
        "species": [{ "element": "P", "occu": 1 }],
        "abc": [0.177932999999999, 0.745831, 0.204647],
        "properties": { "magmom": -0.0 },
        "label": "P",
        "xyz": [1.0023784381799945, 7.652742175052, 2.139812566405]
      },
      {
        "species": [{ "element": "P", "occu": 1 }],
        "abc": [0.322067, 0.254169, 0.704647],
        "properties": { "magmom": 0.0 },
        "label": "P",
        "xyz": [1.8143515618200001, 2.6079498249479998, 7.3678700664050005]
      },
      {
        "species": [{ "element": "P", "occu": 1 }],
        "abc": [0.822067, 0.245831, 0.295353],
        "properties": { "magmom": -0.0 },
        "label": "P",
        "xyz": [4.63108156182, 2.522396175052, 3.088244933595]
      },
      {
        "species": [{ "element": "P", "occu": 1 }],
        "abc": [0.549431, 0.731781, 0.286203],
        "properties": { "magmom": -0.0 },
        "label": "P",
        "xyz": [3.09519756126, 7.508579452452, 2.992571481345]
      },
      {
        "species": [{ "element": "P", "occu": 1 }],
        "abc": [0.049430999999999004, 0.768219, 0.713797],
        "properties": { "magmom": 0.0 },
        "label": "P",
        "xyz": [0.2784675612599944, 7.8824585475480005, 7.463543518655]
      },
      {
        "species": [{ "element": "P", "occu": 1 }],
        "abc": [0.450569, 0.231781, 0.213797],
        "properties": { "magmom": -0.0 },
        "label": "P",
        "xyz": [2.5382624387400003, 2.378233452452, 2.235486018655]
      },
      {
        "species": [{ "element": "P", "occu": 1 }],
        "abc": [0.950569, 0.268219, 0.786203],
        "properties": { "magmom": 0.0 },
        "label": "P",
        "xyz": [5.35499243874, 2.752112547548, 8.220628981345]
      },
      {
        "species": [{ "element": "P", "occu": 1 }],
        "abc": [0.272047, 0.759054999999999, 0.000376],
        "properties": { "magmom": 0.0 },
        "label": "P",
        "xyz": [1.53256589262, 7.788429566059991, 0.00393149924]
      },
      {
        "species": [{ "element": "P", "occu": 1 }],
        "abc": [0.772046999999999, 0.740945, 0.999624],
        "properties": { "magmom": -0.0 },
        "label": "P",
        "xyz": [4.3492958926199945, 7.60260843394, 10.45218350076]
      },
      {
        "species": [{ "element": "P", "occu": 1 }],
        "abc": [0.727953, 0.259055, 0.499623999999999],
        "properties": { "magmom": 0.0 },
        "label": "P",
        "xyz": [4.10089410738, 2.6580835660599997, 5.22412600075999]
      },
      {
        "species": [{ "element": "P", "occu": 1 }],
        "abc": [0.227953, 0.240945, 0.500375999999999],
        "properties": { "magmom": 0.0 },
        "label": "P",
        "xyz": [1.28416410738, 2.47226243394, 5.231988999239991]
      },
      {
        "species": [{ "element": "P", "occu": 1 }],
        "abc": [0.63673, 0.941457, 0.260121],
        "properties": { "magmom": -0.0 },
        "label": "P",
        "xyz": [3.5869929858000003, 9.660000308244001, 2.7198550899150002]
      },
      {
        "species": [{ "element": "P", "occu": 1 }],
        "abc": [0.13673000000000002, 0.558543, 0.739879],
        "properties": { "magmom": 0.0 },
        "label": "P",
        "xyz": [0.7702629858000002, 5.731037691756001, 7.736259910085]
      },
      {
        "species": [{ "element": "P", "occu": 1 }],
        "abc": [0.36327000000000004, 0.441457, 0.239878999999999],
        "properties": { "magmom": -0.0 },
        "label": "P",
        "xyz": [2.0464670142000005, 4.529654308244, 2.50820241008499]
      },
      {
        "species": [{ "element": "P", "occu": 1 }],
        "abc": [0.8632700000000001, 0.058543, 0.760120999999999],
        "properties": { "magmom": 0.0 },
        "label": "P",
        "xyz": [4.863197014200001, 0.600691691756, 7.94791258991499]
      },
      {
        "species": [{ "element": "P", "occu": 1 }],
        "abc": [0.207929, 0.550762, 0.948303],
        "properties": { "magmom": -0.0 },
        "label": "P",
        "xyz": [1.1713597043400001, 5.6511992473040005, 9.915565222845]
      },
      {
        "species": [{ "element": "P", "occu": 1 }],
        "abc": [0.707928999999999, 0.949237999999999, 0.051697],
        "properties": { "magmom": -0.0 },
        "label": "P",
        "xyz": [3.9880897043399948, 9.73983875269599, 0.5405497771550001]
      },
      {
        "species": [{ "element": "P", "occu": 1 }],
        "abc": [0.792071, 0.050761999999999, 0.551697],
        "properties": { "magmom": 0.0 },
        "label": "P",
        "xyz": [4.46210029566, 0.5208532473039897, 5.7686072771550005]
      },
      {
        "species": [{ "element": "P", "occu": 1 }],
        "abc": [0.292070999999999, 0.449237999999999, 0.448303],
        "properties": { "magmom": -0.0 },
        "label": "P",
        "xyz": [1.6453702956599947, 4.60949275269599, 4.687507722845]
      },
      {
        "species": [{ "element": "P", "occu": 1 }],
        "abc": [0.558542, 0.448580999999999, 0.948554999999999],
        "properties": { "magmom": -0.0 },
        "label": "P",
        "xyz": [3.1465240153200003, 4.6027514780519905, 9.91820016382499]
      },
      {
        "species": [{ "element": "P", "occu": 1 }],
        "abc": [0.058542, 0.051419, 0.051445],
        "properties": { "magmom": 0.0 },
        "label": "P",
        "xyz": [0.32979401532, 0.527594521948, 0.537914836175]
      },
      {
        "species": [{ "element": "P", "occu": 1 }],
        "abc": [0.441457999999999, 0.948581, 0.551445],
        "properties": { "magmom": -0.0 },
        "label": "P",
        "xyz": [2.4869359846799948, 9.733097478052, 5.7659723361749995]
      },
      {
        "species": [{ "element": "P", "occu": 1 }],
        "abc": [0.941457999999999, 0.551419, 0.448555],
        "properties": { "magmom": 0.0 },
        "label": "P",
        "xyz": [5.303665984679995, 5.657940521948, 4.690142663825]
      }
    ]
  },
  "task_ids": null,
  "uncorrected_energy_per_atom": null,
  "energy_per_atom": -17.49268281962797,
  "formation_energy_per_atom": -0.43145827785713503,
  "energy_above_hull": 0.039142308055556005,
  "is_stable": false,
  "equilibrium_reaction_energy_per_atom": null,
  "decomposes_to": null,
  "xas": null,
  "grain_boundaries": null,
  "band_gap": 0.0,
  "cbm": null,
  "vbm": null,
  "efermi": 7.89022435,
  "is_gap_direct": null,
  "is_metal": null,
  "es_source_calc_id": null,
  "bandstructure": null,
  "dos": null,
  "dos_energy_up": null,
  "dos_energy_down": null,
  "is_magnetic": null,
  "ordering": null,
  "total_magnetization": 0.000113899999999,
  "total_magnetization_normalized_vol": null,
  "total_magnetization_normalized_formula_units": null,
  "num_magnetic_sites": null,
  "num_unique_magnetic_sites": null,
  "types_of_magnetic_species": null,
  "bulk_modulus": null,
  "shear_modulus": null,
  "universal_anisotropy": null,
  "homogeneous_poisson": null,
  "e_total": null,
  "e_ionic": null,
  "e_electronic": null,
  "n": null,
  "e_ij_max": null,
  "weighted_surface_energy_EV_PER_ANG2": null,
  "weighted_surface_energy": null,
  "weighted_work_function": null,
  "surface_anisotropy": null,
  "shape_factor": null,
  "has_reconstructed": null,
  "possible_species": null,
  "has_props": null,
  "theoretical": null,
  "database_IDs": null,
  "fields_not_requested": [
    "builder_meta",
    "nsites",
    "elements",
    "nelements",
    "composition",
    "composition_reduced",
    "chemsys",
    "symmetry",
    "property_name",
    "deprecated",
    "deprecation_reasons",
    "last_updated",
    "origins",
    "warnings",
    "task_ids",
    "uncorrected_energy_per_atom",
    "equilibrium_reaction_energy_per_atom",
    "decomposes_to",
    "xas",
    "grain_boundaries",
    "cbm",
    "vbm",
    "is_gap_direct",
    "is_metal",
    "es_source_calc_id",
    "bandstructure",
    "dos",
    "dos_energy_up",
    "dos_energy_down",
    "is_magnetic",
    "ordering",
    "total_magnetization_normalized_vol",
    "total_magnetization_normalized_formula_units",
    "num_magnetic_sites",
    "num_unique_magnetic_sites",
    "types_of_magnetic_species",
    "bulk_modulus",
    "shear_modulus",
    "universal_anisotropy",
    "homogeneous_poisson",
    "e_total",
    "e_ionic",
    "e_electronic",
    "n",
    "e_ij_max",
    "weighted_surface_energy_EV_PER_ANG2",
    "weighted_surface_energy",
    "weighted_work_function",
    "surface_anisotropy",
    "shape_factor",
    "has_reconstructed",
    "possible_species",
    "has_props",
    "theoretical",
    "database_IDs"
  ]
}
