{
  "builder_meta": null,
  "nsites": null,
  "elements": null,
  "nelements": null,
  "composition": null,
  "composition_reduced": null,
  "formula_pretty": "ThPd3",
  "formula_anonymous": "AB3",
  "chemsys": null,
  "volume": 297.1540979676625,
  "density": 12.32292567703931,
  "density_atomic": 18.572131122978906,
  "symmetry": null,
  "property_name": null,
  "material_id": "mp-570184",
  "deprecated": null,
  "deprecation_reasons": null,
  "last_updated": null,
  "origins": null,
  "warnings": null,
  "structure": {
    "@module": "pymatgen.core.structure",
    "@class": "Structure",
    "charge": 0,
    "lattice": {
      "matrix": [
        [5.88762779, 1e-8, 0.0],
        [-2.94381338, 5.09883528, -0.0],
        [0.0, -0.0, 9.89852296]
      ],
      "pbc": [true, true, true],
      "a": 5.88762779,
      "b": 5.88762757219236,
      "c": 9.89852296,
      "alpha": 90.0,
      "beta": 90.0,
      "gamma": 119.99999533936823,
      "volume": 297.1540979676625
    },
    "properties": {},
    "sites": [
      {
        "species": [{ "element": "Th", "occu": 1 }],
        "abc": [-0.0, -0.0, 0.5],
        "properties": { "magmom": 0.0 },
        "label": "Th",
        "xyz": [0.0, 0.0, 4.94926148]
      },
      {
        "species": [{ "element": "Th", "occu": 1 }],
        "abc": [0.666667, 0.333333, 0.75],
        "properties": { "magmom": 0.0 },
        "label": "Th",
        "xyz": [2.94381701048039, 1.6996100670549101, 7.423892219999999]
      },
      {
        "species": [{ "element": "Th", "occu": 1 }],
        "abc": [0.333333, 0.666667, 0.25],
        "properties": { "magmom": 0.0 },
        "label": "Th",
        "xyz": [-2.6004803901358287e-6, 3.3992252229450903, 2.47463074]
      },
      {
        "species": [{ "element": "Th", "occu": 1 }],
        "abc": [-0.0, -0.0, 0.0],
        "properties": { "magmom": 0.0 },
        "label": "Th",
        "xyz": [0.0, 0.0, 0.0]
      },
      {
        "species": [{ "element": "Pd", "occu": 1 }],
        "abc": [0.17430352000000002, 0.8256964800000001, 0.75],
        "properties": { "magmom": -0.0 },
        "label": "Pd",
        "xyz": [-1.4044620973960815, 4.21009034453885, 7.423892219999999]
      },
      {
        "species": [{ "element": "Pd", "occu": 1 }],
        "abc": [0.65139196, 0.8256964800000001, 0.75],
        "properties": { "magmom": -0.0 },
        "label": "Pd",
        "xyz": [1.4044570602356656, 4.210090349309734, 7.423892219999999]
      },
      {
        "species": [{ "element": "Pd", "occu": 1 }],
        "abc": [-0.0, 0.5, 0.0],
        "properties": { "magmom": -0.0 },
        "label": "Pd",
        "xyz": [-1.47190669, 2.54941764, 0.0]
      },
      {
        "species": [{ "element": "Pd", "occu": 1 }],
        "abc": [0.5, 0.5, 0.0],
        "properties": { "magmom": -0.0 },
        "label": "Pd",
        "xyz": [1.471907205, 2.549417645, 0.0]
      },
      {
        "species": [{ "element": "Pd", "occu": 1 }],
        "abc": [0.8256964800000001, 0.65139196, 0.25],
        "properties": { "magmom": -0.0 },
        "label": "Pd",
        "xyz": [2.9438171742807553, 3.321340315013314, 2.47463074]
      },
      {
        "species": [{ "element": "Pd", "occu": 1 }],
        "abc": [0.34860804, 0.17430352000000002, 0.25],
        "properties": { "magmom": -0.0 },
        "label": "Pd",
        "xyz": [1.539357349764334, 0.8887449406902662, 2.47463074]
      },
      {
        "species": [{ "element": "Pd", "occu": 1 }],
        "abc": [0.17430352000000002, 0.34860804, 0.75],
        "properties": { "magmom": -0.0 },
        "label": "Pd",
        "xyz": [-2.7642807542971326e-6, 1.7774949749866866, 7.423892219999999]
      },
      {
        "species": [{ "element": "Pd", "occu": 1 }],
        "abc": [0.5, 0.5, 0.5],
        "properties": { "magmom": -0.0 },
        "label": "Pd",
        "xyz": [1.471907205, 2.549417645, 4.94926148]
      },
      {
        "species": [{ "element": "Pd", "occu": 1 }],
        "abc": [0.5, -0.0, 0.5],
        "properties": { "magmom": -0.0 },
        "label": "Pd",
        "xyz": [2.943813895, 5e-9, 4.94926148]
      },
      {
        "species": [{ "element": "Pd", "occu": 1 }],
        "abc": [0.8256964800000001, 0.17430352000000002, 0.25],
        "properties": { "magmom": -0.0 },
        "label": "Pd",
        "xyz": [4.348276507396082, 0.8887449454611506, 2.47463074]
      },
      {
        "species": [{ "element": "Pd", "occu": 1 }],
        "abc": [0.5, -0.0, 0.0],
        "properties": { "magmom": -0.0 },
        "label": "Pd",
        "xyz": [2.943813895, 5e-9, 0.0]
      },
      {
        "species": [{ "element": "Pd", "occu": 1 }],
        "abc": [-0.0, 0.5, 0.5],
        "properties": { "magmom": -0.0 },
        "label": "Pd",
        "xyz": [-1.47190669, 2.54941764, 4.94926148]
      }
    ]
  },
  "task_ids": null,
  "uncorrected_energy_per_atom": null,
  "energy_per_atom": -36.537765935625,
  "formation_energy_per_atom": -0.9486101906250041,
  "energy_above_hull": 0.0,
  "is_stable": true,
  "equilibrium_reaction_energy_per_atom": null,
  "decomposes_to": null,
  "xas": null,
  "grain_boundaries": null,
  "band_gap": 0.0,
  "cbm": null,
  "vbm": null,
  "efermi": 6.9401310800000005,
  "is_gap_direct": null,
  "is_metal": null,
  "es_source_calc_id": null,
  "bandstructure": null,
  "dos": null,
  "dos_energy_up": null,
  "dos_energy_down": null,
  "is_magnetic": null,
  "ordering": null,
  "total_magnetization": 0.0,
  "total_magnetization_normalized_vol": null,
  "total_magnetization_normalized_formula_units": null,
  "num_magnetic_sites": null,
  "num_unique_magnetic_sites": null,
  "types_of_magnetic_species": null,
  "bulk_modulus": null,
  "shear_modulus": null,
  "universal_anisotropy": null,
  "homogeneous_poisson": null,
  "e_total": null,
  "e_ionic": null,
  "e_electronic": null,
  "n": null,
  "e_ij_max": null,
  "weighted_surface_energy_EV_PER_ANG2": null,
  "weighted_surface_energy": null,
  "weighted_work_function": null,
  "surface_anisotropy": null,
  "shape_factor": null,
  "has_reconstructed": null,
  "possible_species": null,
  "has_props": null,
  "theoretical": null,
  "database_IDs": null,
  "fields_not_requested": [
    "builder_meta",
    "nsites",
    "elements",
    "nelements",
    "composition",
    "composition_reduced",
    "chemsys",
    "symmetry",
    "property_name",
    "deprecated",
    "deprecation_reasons",
    "last_updated",
    "origins",
    "warnings",
    "task_ids",
    "uncorrected_energy_per_atom",
    "equilibrium_reaction_energy_per_atom",
    "decomposes_to",
    "xas",
    "grain_boundaries",
    "cbm",
    "vbm",
    "is_gap_direct",
    "is_metal",
    "es_source_calc_id",
    "bandstructure",
    "dos",
    "dos_energy_up",
    "dos_energy_down",
    "is_magnetic",
    "ordering",
    "total_magnetization_normalized_vol",
    "total_magnetization_normalized_formula_units",
    "num_magnetic_sites",
    "num_unique_magnetic_sites",
    "types_of_magnetic_species",
    "bulk_modulus",
    "shear_modulus",
    "universal_anisotropy",
    "homogeneous_poisson",
    "e_total",
    "e_ionic",
    "e_electronic",
    "n",
    "e_ij_max",
    "weighted_surface_energy_EV_PER_ANG2",
    "weighted_surface_energy",
    "weighted_work_function",
    "surface_anisotropy",
    "shape_factor",
    "has_reconstructed",
    "possible_species",
    "has_props",
    "theoretical",
    "database_IDs"
  ]
}
