{
  "builder_meta": null,
  "nsites": null,
  "elements": null,
  "nelements": null,
  "composition": null,
  "composition_reduced": null,
  "formula_pretty": "ThPd",
  "formula_anonymous": "AB",
  "chemsys": null,
  "volume": 195.47645036039103,
  "density": 11.500573700810932,
  "density_atomic": 24.43455629504888,
  "symmetry": null,
  "property_name": null,
  "material_id": "mp-30838",
  "deprecated": null,
  "deprecation_reasons": null,
  "last_updated": null,
  "origins": null,
  "warnings": null,
  "structure": {
    "@module": "pymatgen.core.structure",
    "@class": "Structure",
    "charge": 0,
    "lattice": {
      "matrix": [
        [4.57165089, 0.0, -4e-8],
        [0.0, 5.86521681, -4.3070000000000006e-5],
        [-6.000000000000001e-8, -1.4400000000000001e-5, 7.29016428]
      ],
      "pbc": [true, true, true],
      "a": 4.57165089,
      "b": 5.865216810158138,
      "c": 7.290164280014222,
      "alpha": 90.0005339139405,
      "beta": 90.00000097287327,
      "gamma": 89.99999999999633,
      "volume": 195.47645036039103
    },
    "properties": {},
    "sites": [
      {
        "species": [{ "element": "Th", "occu": 1 }],
        "abc": [0.25000001, 0.13970793, 0.17938495000000002],
        "properties": { "magmom": -0.0 },
        "label": "Th",
        "xyz": [1.1429127574534117, 0.8194147163830232, 1.3077397276390406]
      },
      {
        "species": [{ "element": "Th", "occu": 1 }],
        "abc": [0.7499999900000001, 0.86029207, 0.82061505],
        "properties": { "magmom": -0.0 },
        "label": "Th",
        "xyz": [3.4287380725465884, 5.045787693616976, 5.98238144236096]
      },
      {
        "species": [{ "element": "Th", "occu": 1 }],
        "abc": [0.7499999900000001, 0.63973163, 0.32053314],
        "properties": { "magmom": 0.0 },
        "label": "Th",
        "xyz": [3.428738102551503, 3.752160094487484, 2.336711664542935]
      },
      {
        "species": [{ "element": "Th", "occu": 1 }],
        "abc": [0.25000001, 0.36026837, 0.67946686],
        "properties": { "magmom": 0.0 },
        "label": "Th",
        "xyz": [1.1429127274484971, 2.1130423155125158, 4.953409505457064]
      },
      {
        "species": [{ "element": "Pd", "occu": 1 }],
        "abc": [0.25, 0.64893367, 0.04824651],
        "properties": { "magmom": -0.0 },
        "label": "Pd",
        "xyz": [1.1429127196052093, 3.8061359751092487, 0.35169702426349586]
      },
      {
        "species": [{ "element": "Pd", "occu": 1 }],
        "abc": [0.75, 0.35106633, 0.95175349],
        "properties": { "magmom": -0.0 },
        "label": "Pd",
        "xyz": [3.4287381103947903, 2.059066434890751, 6.938424145736504]
      },
      {
        "species": [{ "element": "Pd", "occu": 1 }],
        "abc": [0.7499999900000001, 0.14893042, 0.45172969],
        "properties": { "magmom": -0.0 },
        "label": "Pd",
        "xyz": [3.42873809467971, 0.8735026979968242, 3.2931772058202844]
      },
      {
        "species": [{ "element": "Pd", "occu": 1 }],
        "abc": [0.25000001, 0.85106958, 0.54827031],
        "properties": { "magmom": -0.0 },
        "label": "Pd",
        "xyz": [1.1429127353202901, 4.991699712003175, 3.996943964179716]
      }
    ]
  },
  "task_ids": null,
  "uncorrected_energy_per_atom": null,
  "energy_per_atom": -48.99660567375,
  "formation_energy_per_atom": -0.778747793749992,
  "energy_above_hull": 0.0,
  "is_stable": true,
  "equilibrium_reaction_energy_per_atom": null,
  "decomposes_to": null,
  "xas": null,
  "grain_boundaries": null,
  "band_gap": 0.0,
  "cbm": null,
  "vbm": null,
  "efermi": 6.90404129,
  "is_gap_direct": null,
  "is_metal": null,
  "es_source_calc_id": null,
  "bandstructure": null,
  "dos": null,
  "dos_energy_up": null,
  "dos_energy_down": null,
  "is_magnetic": null,
  "ordering": null,
  "total_magnetization": 0.0,
  "total_magnetization_normalized_vol": null,
  "total_magnetization_normalized_formula_units": null,
  "num_magnetic_sites": null,
  "num_unique_magnetic_sites": null,
  "types_of_magnetic_species": null,
  "bulk_modulus": null,
  "shear_modulus": null,
  "universal_anisotropy": null,
  "homogeneous_poisson": null,
  "e_total": null,
  "e_ionic": null,
  "e_electronic": null,
  "n": null,
  "e_ij_max": null,
  "weighted_surface_energy_EV_PER_ANG2": null,
  "weighted_surface_energy": null,
  "weighted_work_function": null,
  "surface_anisotropy": null,
  "shape_factor": null,
  "has_reconstructed": null,
  "possible_species": null,
  "has_props": null,
  "theoretical": null,
  "database_IDs": null,
  "fields_not_requested": [
    "builder_meta",
    "nsites",
    "elements",
    "nelements",
    "composition",
    "composition_reduced",
    "chemsys",
    "symmetry",
    "property_name",
    "deprecated",
    "deprecation_reasons",
    "last_updated",
    "origins",
    "warnings",
    "task_ids",
    "uncorrected_energy_per_atom",
    "equilibrium_reaction_energy_per_atom",
    "decomposes_to",
    "xas",
    "grain_boundaries",
    "cbm",
    "vbm",
    "is_gap_direct",
    "is_metal",
    "es_source_calc_id",
    "bandstructure",
    "dos",
    "dos_energy_up",
    "dos_energy_down",
    "is_magnetic",
    "ordering",
    "total_magnetization_normalized_vol",
    "total_magnetization_normalized_formula_units",
    "num_magnetic_sites",
    "num_unique_magnetic_sites",
    "types_of_magnetic_species",
    "bulk_modulus",
    "shear_modulus",
    "universal_anisotropy",
    "homogeneous_poisson",
    "e_total",
    "e_ionic",
    "e_electronic",
    "n",
    "e_ij_max",
    "weighted_surface_energy_EV_PER_ANG2",
    "weighted_surface_energy",
    "weighted_work_function",
    "surface_anisotropy",
    "shape_factor",
    "has_reconstructed",
    "possible_species",
    "has_props",
    "theoretical",
    "database_IDs"
  ]
}
