{
  "builder_meta": null,
  "nsites": null,
  "elements": null,
  "nelements": null,
  "composition": null,
  "composition_reduced": null,
  "formula_pretty": "ThPt3",
  "formula_anonymous": "AB3",
  "chemsys": null,
  "volume": 151.05597103587647,
  "density": 17.968731246665254,
  "density_atomic": 18.88199637948456,
  "symmetry": null,
  "property_name": null,
  "material_id": "mp-865400",
  "deprecated": null,
  "deprecation_reasons": null,
  "last_updated": null,
  "origins": null,
  "warnings": null,
  "structure": {
    "@module": "pymatgen.core.structure",
    "@class": "Structure",
    "charge": 0,
    "lattice": {
      "matrix": [
        [5.8963249, -1e-8, -0.0],
        [-2.94816347, 5.1063674, -0.0],
        [-0.0, -0.0, 5.01700383]
      ],
      "pbc": [true, true, true],
      "a": 5.8963249,
      "b": 5.896325624456742,
      "c": 5.01700383,
      "alpha": 90.0,
      "beta": 90.0,
      "gamma": 120.00000747767051,
      "volume": 151.05597103587647
    },
    "properties": {},
    "sites": [
      {
        "species": [{ "element": "Th", "occu": 1 }],
        "abc": [0.333333, 0.666666, 0.749997999999999],
        "properties": { "magmom": -0.0 },
        "label": "Th",
        "xyz": [-6.799993199635423e-7, 3.4042415257550696, 3.7627428384923354]
      },
      {
        "species": [{ "element": "Th", "occu": 1 }],
        "abc": [0.666667, 0.333333, 0.25],
        "properties": { "magmom": -0.0 },
        "label": "Th",
        "xyz": [2.94816505816279, 1.7021207578775297, 1.2542509575]
      },
      {
        "species": [{ "element": "Pt", "occu": 1 }],
        "abc": [0.15979657, 0.31959313, 0.25],
        "properties": { "magmom": -0.0 },
        "label": "Pt",
        "xyz": [-2.9650336808018096e-7, 1.6319599386979962, 1.2542509575]
      },
      {
        "species": [{ "element": "Pt", "occu": 1 }],
        "abc": [0.68040787, 0.84020443, 0.25],
        "properties": { "magmom": -0.0 },
        "label": "Pt",
        "xyz": [1.5348458581787905, 4.290392503883503, 1.2542509575]
      },
      {
        "species": [{ "element": "Pt", "occu": 1 }],
        "abc": [0.15979557, 0.84020443, 0.25],
        "properties": { "magmom": -0.0 },
        "label": "Pt",
        "xyz": [-1.534853409557479, 4.290392509089626, 1.2542509575]
      },
      {
        "species": [{ "element": "Pt", "occu": 1 }],
        "abc": [0.84020443, 0.68040687, 0.749997999999999],
        "properties": { "magmom": -0.0 },
        "label": "Pt",
        "xyz": [2.948167622828268, 3.4744074513019934, 3.7627428384923354]
      },
      {
        "species": [{ "element": "Pt", "occu": 1 }],
        "abc": [0.31959313, 0.15979657, 0.749997999999999],
        "properties": { "magmom": -0.0 },
        "label": "Pt",
        "xyz": [1.413318519982639, 0.8159799924838866, 3.7627428384923354]
      },
      {
        "species": [{ "element": "Pt", "occu": 1 }],
        "abc": [0.84020343, 0.15979657, 0.749997999999999],
        "properties": { "magmom": -0.0 },
        "label": "Pt",
        "xyz": [4.483005995069108, 0.8159799872777836, 3.7627428384923354]
      }
    ]
  },
  "task_ids": null,
  "uncorrected_energy_per_atom": null,
  "energy_per_atom": -58.14034886375,
  "formation_energy_per_atom": -1.155745651249994,
  "energy_above_hull": 0.0,
  "is_stable": true,
  "equilibrium_reaction_energy_per_atom": null,
  "decomposes_to": null,
  "xas": null,
  "grain_boundaries": null,
  "band_gap": 0.0,
  "cbm": null,
  "vbm": null,
  "efermi": 7.79330867,
  "is_gap_direct": null,
  "is_metal": null,
  "es_source_calc_id": null,
  "bandstructure": null,
  "dos": null,
  "dos_energy_up": null,
  "dos_energy_down": null,
  "is_magnetic": null,
  "ordering": null,
  "total_magnetization": 0.0,
  "total_magnetization_normalized_vol": null,
  "total_magnetization_normalized_formula_units": null,
  "num_magnetic_sites": null,
  "num_unique_magnetic_sites": null,
  "types_of_magnetic_species": null,
  "bulk_modulus": null,
  "shear_modulus": null,
  "universal_anisotropy": null,
  "homogeneous_poisson": null,
  "e_total": null,
  "e_ionic": null,
  "e_electronic": null,
  "n": null,
  "e_ij_max": null,
  "weighted_surface_energy_EV_PER_ANG2": null,
  "weighted_surface_energy": null,
  "weighted_work_function": null,
  "surface_anisotropy": null,
  "shape_factor": null,
  "has_reconstructed": null,
  "possible_species": null,
  "has_props": null,
  "theoretical": null,
  "database_IDs": null,
  "fields_not_requested": [
    "builder_meta",
    "nsites",
    "elements",
    "nelements",
    "composition",
    "composition_reduced",
    "chemsys",
    "symmetry",
    "property_name",
    "deprecated",
    "deprecation_reasons",
    "last_updated",
    "origins",
    "warnings",
    "task_ids",
    "uncorrected_energy_per_atom",
    "equilibrium_reaction_energy_per_atom",
    "decomposes_to",
    "xas",
    "grain_boundaries",
    "cbm",
    "vbm",
    "is_gap_direct",
    "is_metal",
    "es_source_calc_id",
    "bandstructure",
    "dos",
    "dos_energy_up",
    "dos_energy_down",
    "is_magnetic",
    "ordering",
    "total_magnetization_normalized_vol",
    "total_magnetization_normalized_formula_units",
    "num_magnetic_sites",
    "num_unique_magnetic_sites",
    "types_of_magnetic_species",
    "bulk_modulus",
    "shear_modulus",
    "universal_anisotropy",
    "homogeneous_poisson",
    "e_total",
    "e_ionic",
    "e_electronic",
    "n",
    "e_ij_max",
    "weighted_surface_energy_EV_PER_ANG2",
    "weighted_surface_energy",
    "weighted_work_function",
    "surface_anisotropy",
    "shape_factor",
    "has_reconstructed",
    "possible_species",
    "has_props",
    "theoretical",
    "database_IDs"
  ]
}
