{
  "builder_meta": null,
  "nsites": null,
  "elements": null,
  "nelements": null,
  "composition": null,
  "composition_reduced": null,
  "formula_pretty": "ThPt2",
  "formula_anonymous": "AB2",
  "chemsys": null,
  "volume": 126.51493143516495,
  "density": 16.333209975847723,
  "density_atomic": 21.085821905860826,
  "symmetry": null,
  "property_name": null,
  "material_id": "mp-1070844",
  "deprecated": null,
  "deprecation_reasons": null,
  "last_updated": null,
  "origins": null,
  "warnings": null,
  "structure": {
    "@module": "pymatgen.core.structure",
    "@class": "Structure",
    "charge": 0,
    "lattice": {
      "matrix": [
        [4.18813092, 0.00132272, -0.00076894],
        [0.00132272, 4.18813092, -0.00076894],
        [-2.09605115, -2.09605115, 7.2135269]
      ],
      "pbc": [true, true, true],
      "a": 4.1881311994631885,
      "b": 4.1881311994631885,
      "c": 7.798835245333514,
      "alpha": 105.60591935976905,
      "beta": 105.60591935976905,
      "gamma": 89.96380709472517,
      "volume": 126.51493143516495
    },
    "properties": {},
    "sites": [
      {
        "species": [{ "element": "Th", "occu": 1 }],
        "abc": [0.65636718, 0.65636718, 0.31278406000000003],
        "properties": { "magmom": -0.0 },
        "label": "Th",
        "xyz": [2.094208482762866, 2.094208482762866, 2.255266816742436]
      },
      {
        "species": [{ "element": "Th", "occu": 1 }],
        "abc": [0.34363282, 0.34363282, 0.68721594],
        "properties": { "magmom": -0.0 },
        "label": "Th",
        "xyz": [
          -0.0008059927628660812, -0.0008059927628660812, 4.956722203257564
        ]
      },
      {
        "species": [{ "element": "Pt", "occu": 1 }],
        "abc": [0.5, -0.0, -0.0],
        "properties": { "magmom": 0.0 },
        "label": "Pt",
        "xyz": [2.09406546, 0.00066136, -0.00038447]
      },
      {
        "species": [{ "element": "Pt", "occu": 1 }],
        "abc": [0.0, 0.5, -0.0],
        "properties": { "magmom": 0.0 },
        "label": "Pt",
        "xyz": [0.00066136, 2.09406546, -0.00038447]
      },
      {
        "species": [{ "element": "Pt", "occu": 1 }],
        "abc": [0.8645041, 0.8645041, 0.72875235],
        "properties": { "magmom": -0.0 },
        "label": "Pt",
        "xyz": [2.0942976472572212, 2.0942976472572212, 5.2555451765979075]
      },
      {
        "species": [{ "element": "Pt", "occu": 1 }],
        "abc": [0.1354959, 0.1354959, 0.27124765],
        "properties": { "magmom": -0.0 },
        "label": "Pt",
        "xyz": [
          -0.0008951572572215571, -0.0008951572572215571, 1.956443843402093
        ]
      }
    ]
  },
  "task_ids": null,
  "uncorrected_energy_per_atom": null,
  "energy_per_atom": -60.162289754999996,
  "formation_energy_per_atom": -1.3453911049999951,
  "energy_above_hull": 0.0,
  "is_stable": true,
  "equilibrium_reaction_energy_per_atom": null,
  "decomposes_to": null,
  "xas": null,
  "grain_boundaries": null,
  "band_gap": 0.0,
  "cbm": null,
  "vbm": null,
  "efermi": 8.2830478,
  "is_gap_direct": null,
  "is_metal": null,
  "es_source_calc_id": null,
  "bandstructure": null,
  "dos": null,
  "dos_energy_up": null,
  "dos_energy_down": null,
  "is_magnetic": null,
  "ordering": null,
  "total_magnetization": 0.0,
  "total_magnetization_normalized_vol": null,
  "total_magnetization_normalized_formula_units": null,
  "num_magnetic_sites": null,
  "num_unique_magnetic_sites": null,
  "types_of_magnetic_species": null,
  "bulk_modulus": null,
  "shear_modulus": null,
  "universal_anisotropy": null,
  "homogeneous_poisson": null,
  "e_total": null,
  "e_ionic": null,
  "e_electronic": null,
  "n": null,
  "e_ij_max": null,
  "weighted_surface_energy_EV_PER_ANG2": null,
  "weighted_surface_energy": null,
  "weighted_work_function": null,
  "surface_anisotropy": null,
  "shape_factor": null,
  "has_reconstructed": null,
  "possible_species": null,
  "has_props": null,
  "theoretical": null,
  "database_IDs": null,
  "fields_not_requested": [
    "builder_meta",
    "nsites",
    "elements",
    "nelements",
    "composition",
    "composition_reduced",
    "chemsys",
    "symmetry",
    "property_name",
    "deprecated",
    "deprecation_reasons",
    "last_updated",
    "origins",
    "warnings",
    "task_ids",
    "uncorrected_energy_per_atom",
    "equilibrium_reaction_energy_per_atom",
    "decomposes_to",
    "xas",
    "grain_boundaries",
    "cbm",
    "vbm",
    "is_gap_direct",
    "is_metal",
    "es_source_calc_id",
    "bandstructure",
    "dos",
    "dos_energy_up",
    "dos_energy_down",
    "is_magnetic",
    "ordering",
    "total_magnetization_normalized_vol",
    "total_magnetization_normalized_formula_units",
    "num_magnetic_sites",
    "num_unique_magnetic_sites",
    "types_of_magnetic_species",
    "bulk_modulus",
    "shear_modulus",
    "universal_anisotropy",
    "homogeneous_poisson",
    "e_total",
    "e_ionic",
    "e_electronic",
    "n",
    "e_ij_max",
    "weighted_surface_energy_EV_PER_ANG2",
    "weighted_surface_energy",
    "weighted_work_function",
    "surface_anisotropy",
    "shape_factor",
    "has_reconstructed",
    "possible_species",
    "has_props",
    "theoretical",
    "database_IDs"
  ]
}
