{"builder_meta": null, "nsites": null, "elements": null, "nelements": null, "composition": null, "composition_reduced": null, "formula_pretty": "ThRe2", "formula_anonymous": "AB2", "chemsys": null, "volume": 237.0440174166505, "density": 16.937213104224817, "density_atomic": 19.753668118054208, "symmetry": null, "property_name": null, "material_id": "mp-1659", "deprecated": null, "deprecation_reasons": null, "last_updated": null, "origins": null, "warnings": null, "structure": {"@module": "pymatgen.core.structure", "@class": "Structure", "charge": 0, "lattice": {"matrix": [[5.37276925, 0.0, -0.0], [-2.68638412, 4.65295482, 0.0], [-0.0, -0.0, 9.48204418]], "pbc": [true, true, true], "a": 5.37276925, "b": 5.372769136781274, "c": 9.48204418, "alpha": 90.0, "beta": 90.0, "gamma": 119.99999447858558, "volume": 237.0440174166505}, "properties": {}, "sites": [{"species": [{"element": "Th", "occu": 1}], "abc": [0.333333, 0.666667, 0.05991245], "properties": {"magmom": 0.0}, "label": "Th", "xyz": [-2.3497177901177224e-06, 3.10197143098494, 0.5680924978320411]}, {"species": [{"element": "Th", "occu": 1}], "abc": [0.666667, 0.333333, 0.55991245], "properties": {"magmom": 0.0}, "label": "Th", "xyz": [2.68638747971779, 1.55098338901506, 5.309114587832042]}, {"species": [{"element": "Th", "occu": 1}], "abc": [0.666667, 0.333333, 0.94008755], "properties": {"magmom": 0.0}, "label": "Th", "xyz": [2.68638747971779, 1.55098338901506, 8.91395168216796]}, {"species": [{"element": "Th", "occu": 1}], "abc": [0.333333, 0.666667, 0.44008755], "properties": {"magmom": 0.0}, "label": "Th", "xyz": [-2.3497177901177224e-06, 3.10197143098494, 4.172929592167959]}, {"species": [{"element": "Re", "occu": 1}], "abc": [0.0, 0.0, -0.0], "properties": {"magmom": 0.0}, "label": "Re", "xyz": [0.0, 0.0, 0.0]}, {"species": [{"element": "Re", "occu": 1}], "abc": [0.0, 0.0, 0.5], "properties": {"magmom": 0.0}, "label": "Re", "xyz": [0.0, 0.0, 4.74102209]}, {"species": [{"element": "Re", "occu": 1}], "abc": [0.8310344, 0.6620708, 0.25], "properties": {"magmom": 0.0}, "label": "Re", "xyz": [2.6863795865765034, 3.0805855200412555, 2.370511045]}, {"species": [{"element": "Re", "occu": 1}], "abc": [0.1689656, 0.8310344, 0.75], "properties": {"magmom": 0.0}, "label": "Re", "xyz": [-1.3246644353459278, 3.8667655170658075, 7.111533135]}, {"species": [{"element": "Re", "occu": 1}], "abc": [0.6620708, 0.8310344, 0.75], "properties": {"magmom": 0.0}, "label": "Re", "xyz": [1.3246760202291723, 3.8667655170658075, 7.111533135]}, {"species": [{"element": "Re", "occu": 1}], "abc": [0.3379292, 0.1689656, 0.25], "properties": {"magmom": 0.0}, "label": "Re", "xyz": [1.361709109770828, 0.7861893029341919, 2.370511045]}, {"species": [{"element": "Re", "occu": 1}], "abc": [0.8310344, 0.1689656, 0.25], "properties": {"magmom": 0.0}, "label": "Re", "xyz": [4.011049565345927, 0.7861893029341919, 2.370511045]}, {"species": [{"element": "Re", "occu": 1}], "abc": [0.1689656, 0.3379292, 0.75], "properties": {"magmom": 0.0}, "label": "Re", "xyz": [5.543423496012778e-06, 1.5723692999587437, 7.111533135]}]}, "task_ids": null, "uncorrected_energy_per_atom": null, "energy_per_atom": -59.53788404083334, "formation_energy_per_atom": -0.105720185833339, "energy_above_hull": 0.0, "is_stable": true, "equilibrium_reaction_energy_per_atom": null, "decomposes_to": null, "xas": null, "grain_boundaries": null, "band_gap": 0.0, "cbm": null, "vbm": null, "efermi": 7.82989882, "is_gap_direct": null, "is_metal": null, "es_source_calc_id": null, "bandstructure": null, "dos": null, "dos_energy_up": null, "dos_energy_down": null, "is_magnetic": null, "ordering": null, "total_magnetization": 0.000136, "total_magnetization_normalized_vol": null, "total_magnetization_normalized_formula_units": null, "num_magnetic_sites": null, "num_unique_magnetic_sites": null, "types_of_magnetic_species": null, "bulk_modulus": null, "shear_modulus": null, "universal_anisotropy": null, "homogeneous_poisson": null, "e_total": null, "e_ionic": null, "e_electronic": null, "n": null, "e_ij_max": null, "weighted_surface_energy_EV_PER_ANG2": null, "weighted_surface_energy": null, "weighted_work_function": null, "surface_anisotropy": null, "shape_factor": null, "has_reconstructed": null, "possible_species": null, "has_props": null, "theoretical": null, "database_IDs": null, "fields_not_requested": ["builder_meta", "nsites", "elements", "nelements", "composition", "composition_reduced", "chemsys", "symmetry", "property_name", "deprecated", "deprecation_reasons", "last_updated", "origins", "warnings", "task_ids", "uncorrected_energy_per_atom", "equilibrium_reaction_energy_per_atom", "decomposes_to", "xas", "grain_boundaries", "cbm", "vbm", "is_gap_direct", "is_metal", "es_source_calc_id", "bandstructure", "dos", "dos_energy_up", "dos_energy_down", "is_magnetic", "ordering", "total_magnetization_normalized_vol", "total_magnetization_normalized_formula_units", "num_magnetic_sites", "num_unique_magnetic_sites", "types_of_magnetic_species", "bulk_modulus", "shear_modulus", "universal_anisotropy", "homogeneous_poisson", "e_total", "e_ionic", "e_electronic", "n", "e_ij_max", "weighted_surface_energy_EV_PER_ANG2", "weighted_surface_energy", "weighted_work_function", "surface_anisotropy", "shape_factor", "has_reconstructed", "possible_species", "has_props", "theoretical", "database_IDs"]}