{
  "builder_meta": null,
  "nsites": null,
  "elements": null,
  "nelements": null,
  "composition": null,
  "composition_reduced": null,
  "formula_pretty": "ThRh",
  "formula_anonymous": "AB",
  "chemsys": null,
  "volume": 93.11642199983437,
  "density": 11.946053221140097,
  "density_atomic": 23.279105499958593,
  "symmetry": null,
  "property_name": null,
  "material_id": "mp-12755",
  "deprecated": null,
  "deprecation_reasons": null,
  "last_updated": null,
  "origins": null,
  "warnings": null,
  "structure": {
    "@module": "pymatgen.core.structure",
    "@class": "Structure",
    "charge": 0,
    "lattice": {
      "matrix": [
        [3.68593278, -0.0, -1.26777743],
        [-0.0, 4.09906356, -0.0],
        [0.05256381, 0.0, 6.14494974]
      ],
      "pbc": [true, true, true],
      "a": 3.8978660919400414,
      "b": 4.09906356,
      "c": 6.1451745509178,
      "alpha": 90.0,
      "beta": 108.49057188133526,
      "gamma": 90.0,
      "volume": 93.11642199983437
    },
    "properties": {},
    "sites": [
      {
        "species": [{ "element": "Th", "occu": 1 }],
        "abc": [0.13536323, 0.75, 0.27072846],
        "properties": { "magmom": -0.0 },
        "label": "Th",
        "xyz": [0.513170285996712, 3.07429767, 1.4920023320417017]
      },
      {
        "species": [{ "element": "Th", "occu": 1 }],
        "abc": [0.86463677, 0.25, 0.72927154],
        "properties": { "magmom": -0.0 },
        "label": "Th",
        "xyz": [3.2253263040032882, 1.02476589, 3.3851699779582987]
      },
      {
        "species": [{ "element": "Rh", "occu": 1 }],
        "abc": [0.40100596, 0.75, 0.80201192],
        "properties": { "magmom": 0.0 },
        "label": "Rh",
        "xyz": [1.5202378151199838, 3.07429767, 4.419936633897418]
      },
      {
        "species": [{ "element": "Rh", "occu": 1 }],
        "abc": [0.59899404, 0.25, 0.19798808],
        "properties": { "magmom": 0.0 },
        "label": "Rh",
        "xyz": [2.218258774880016, 1.02476589, 0.4572356761025821]
      }
    ]
  },
  "task_ids": null,
  "uncorrected_energy_per_atom": null,
  "energy_per_atom": -49.8139853975,
  "formation_energy_per_atom": -1.008240007499992,
  "energy_above_hull": 0.0,
  "is_stable": true,
  "equilibrium_reaction_energy_per_atom": null,
  "decomposes_to": null,
  "xas": null,
  "grain_boundaries": null,
  "band_gap": 0.0,
  "cbm": null,
  "vbm": null,
  "efermi": 7.4791079400000005,
  "is_gap_direct": null,
  "is_metal": null,
  "es_source_calc_id": null,
  "bandstructure": null,
  "dos": null,
  "dos_energy_up": null,
  "dos_energy_down": null,
  "is_magnetic": null,
  "ordering": null,
  "total_magnetization": 0.0,
  "total_magnetization_normalized_vol": null,
  "total_magnetization_normalized_formula_units": null,
  "num_magnetic_sites": null,
  "num_unique_magnetic_sites": null,
  "types_of_magnetic_species": null,
  "bulk_modulus": null,
  "shear_modulus": null,
  "universal_anisotropy": null,
  "homogeneous_poisson": null,
  "e_total": null,
  "e_ionic": null,
  "e_electronic": null,
  "n": null,
  "e_ij_max": null,
  "weighted_surface_energy_EV_PER_ANG2": null,
  "weighted_surface_energy": null,
  "weighted_work_function": null,
  "surface_anisotropy": null,
  "shape_factor": null,
  "has_reconstructed": null,
  "possible_species": null,
  "has_props": null,
  "theoretical": null,
  "database_IDs": null,
  "fields_not_requested": [
    "builder_meta",
    "nsites",
    "elements",
    "nelements",
    "composition",
    "composition_reduced",
    "chemsys",
    "symmetry",
    "property_name",
    "deprecated",
    "deprecation_reasons",
    "last_updated",
    "origins",
    "warnings",
    "task_ids",
    "uncorrected_energy_per_atom",
    "equilibrium_reaction_energy_per_atom",
    "decomposes_to",
    "xas",
    "grain_boundaries",
    "cbm",
    "vbm",
    "is_gap_direct",
    "is_metal",
    "es_source_calc_id",
    "bandstructure",
    "dos",
    "dos_energy_up",
    "dos_energy_down",
    "is_magnetic",
    "ordering",
    "total_magnetization_normalized_vol",
    "total_magnetization_normalized_formula_units",
    "num_magnetic_sites",
    "num_unique_magnetic_sites",
    "types_of_magnetic_species",
    "bulk_modulus",
    "shear_modulus",
    "universal_anisotropy",
    "homogeneous_poisson",
    "e_total",
    "e_ionic",
    "e_electronic",
    "n",
    "e_ij_max",
    "weighted_surface_energy_EV_PER_ANG2",
    "weighted_surface_energy",
    "weighted_work_function",
    "surface_anisotropy",
    "shape_factor",
    "has_reconstructed",
    "possible_species",
    "has_props",
    "theoretical",
    "database_IDs"
  ]
}
