{
  "builder_meta": null,
  "nsites": null,
  "elements": null,
  "nelements": null,
  "composition": null,
  "composition_reduced": null,
  "formula_pretty": "ThS2",
  "formula_anonymous": "AB2",
  "chemsys": null,
  "volume": 271.2432004290562,
  "density": 7.252511887947037,
  "density_atomic": 22.60360003575468,
  "symmetry": null,
  "property_name": null,
  "material_id": "mp-1146",
  "deprecated": null,
  "deprecation_reasons": null,
  "last_updated": null,
  "origins": null,
  "warnings": null,
  "structure": {
    "@module": "pymatgen.core.structure",
    "@class": "Structure",
    "charge": 0,
    "lattice": {
      "matrix": [
        [4.30612083, 1e-8, 4.8e-7],
        [3.0000000000000004e-8, 7.28851418, 6.1e-7],
        [1.87e-6, 1.129999999999999e-6, 8.64238571]
      ],
      "pbc": [true, true, true],
      "a": 4.306120830000027,
      "b": 7.288514180000026,
      "c": 8.642385710000276,
      "alpha": 89.99998771324887,
      "beta": 89.99998121588376,
      "gamma": 89.9999996311097,
      "volume": 271.24320042905623
    },
    "properties": {},
    "sites": [
      {
        "species": [{ "element": "Th", "occu": 1 }],
        "abc": [0.75000022, 0.7505893100000001, 0.88269252],
        "properties": { "magmom": 0.0 },
        "label": "Th",
        "xyz": [3.2295932429992744, 5.470681834233966, 7.628570039031473]
      },
      {
        "species": [{ "element": "Th", "occu": 1 }],
        "abc": [0.24999976000000002, 0.24941039, 0.11730774000000001],
        "properties": { "magmom": 0.0 },
        "label": "Th",
        "xyz": [1.0765294008787865, 1.817831299212074, 1.0138190079886182]
      },
      {
        "species": [{ "element": "Th", "occu": 1 }],
        "abc": [0.74999982, 0.25058931, 0.61730715],
        "properties": { "magmom": 0.0 },
        "label": "Th",
        "xyz": [3.2295910092803, 1.8264244443484934, 5.335007004700219]
      },
      {
        "species": [{ "element": "Th", "occu": 1 }],
        "abc": [0.25000023, 0.74940982, 0.38269292],
        "properties": { "magmom": 0.0 },
        "label": "Th",
        "xyz": [1.076531936025846, 5.462084534644249, 3.3073804002662732]
      },
      {
        "species": [{ "element": "S", "occu": 1 }],
        "abc": [0.74999995, 0.13952923, 0.9293535700000001],
        "properties": { "magmom": -0.0 },
        "label": "S",
        "xyz": [3.2295921492710113, 1.016961829049015, 8.031832458018291]
      },
      {
        "species": [{ "element": "S", "occu": 1 }],
        "abc": [0.25000001, 0.86046613, 0.07064958],
        "properties": { "magmom": -0.0 },
        "label": "S",
        "xyz": [1.0765304084899068, 6.27151967224875, 0.6105815654938459]
      },
      {
        "species": [{ "element": "S", "occu": 1 }],
        "abc": [0.75000001, 0.63952936, 0.57064625],
        "properties": { "magmom": 0.0 },
        "label": "S",
        "xyz": [3.229591751855577, 4.661219461216587, 4.9317457465780015]
      },
      {
        "species": [{ "element": "S", "occu": 1 }],
        "abc": [0.25, 0.36046561, 0.42935102],
        "properties": { "magmom": -0.0 },
        "label": "S",
        "xyz": [1.0765310212003758, 2.6272591975540025, 3.7106174597059463]
      },
      {
        "species": [{ "element": "S", "occu": 1 }],
        "abc": [0.7500000800000001, 0.027959099999999, 0.33522123],
        "properties": { "magmom": -0.0 },
        "label": "S",
        "xyz": [3.22959159469214, 0.2037806831100214, 2.8971115448957123]
      },
      {
        "species": [{ "element": "S", "occu": 1 }],
        "abc": [0.24999994, 0.9720460400000001, 0.6647795400000001],
        "properties": { "magmom": 0.0 },
        "label": "S",
        "xyz": [1.0765312214318714, 7.084772099853727, 5.7452819097444285]
      },
      {
        "species": [{ "element": "S", "occu": 1 }],
        "abc": [0.74999993, 0.52795995, 0.16477891],
        "properties": { "magmom": -0.0 },
        "label": "S",
        "xyz": [3.2295906450469025, 3.848043775747258, 1.4240835791489117]
      },
      {
        "species": [{ "element": "S", "occu": 1 }],
        "abc": [0.25000006, 0.47204575, 0.83522057],
        "properties": { "magmom": -0.0 },
        "label": "S",
        "xyz": [1.0765320418910882, 3.44051308878298, 7.21829872681399]
      }
    ]
  },
  "task_ids": null,
  "uncorrected_energy_per_atom": null,
  "energy_per_atom": -32.13258594333333,
  "formation_energy_per_atom": -2.284165838541663,
  "energy_above_hull": 0.0,
  "is_stable": true,
  "equilibrium_reaction_energy_per_atom": null,
  "decomposes_to": null,
  "xas": null,
  "grain_boundaries": null,
  "band_gap": 1.033599999999999,
  "cbm": null,
  "vbm": null,
  "efermi": 6.43817068,
  "is_gap_direct": null,
  "is_metal": null,
  "es_source_calc_id": null,
  "bandstructure": null,
  "dos": null,
  "dos_energy_up": null,
  "dos_energy_down": null,
  "is_magnetic": null,
  "ordering": null,
  "total_magnetization": 0.0,
  "total_magnetization_normalized_vol": null,
  "total_magnetization_normalized_formula_units": null,
  "num_magnetic_sites": null,
  "num_unique_magnetic_sites": null,
  "types_of_magnetic_species": null,
  "bulk_modulus": null,
  "shear_modulus": null,
  "universal_anisotropy": null,
  "homogeneous_poisson": null,
  "e_total": null,
  "e_ionic": null,
  "e_electronic": null,
  "n": null,
  "e_ij_max": null,
  "weighted_surface_energy_EV_PER_ANG2": null,
  "weighted_surface_energy": null,
  "weighted_work_function": null,
  "surface_anisotropy": null,
  "shape_factor": null,
  "has_reconstructed": null,
  "possible_species": null,
  "has_props": null,
  "theoretical": null,
  "database_IDs": null,
  "fields_not_requested": [
    "builder_meta",
    "nsites",
    "elements",
    "nelements",
    "composition",
    "composition_reduced",
    "chemsys",
    "symmetry",
    "property_name",
    "deprecated",
    "deprecation_reasons",
    "last_updated",
    "origins",
    "warnings",
    "task_ids",
    "uncorrected_energy_per_atom",
    "equilibrium_reaction_energy_per_atom",
    "decomposes_to",
    "xas",
    "grain_boundaries",
    "cbm",
    "vbm",
    "is_gap_direct",
    "is_metal",
    "es_source_calc_id",
    "bandstructure",
    "dos",
    "dos_energy_up",
    "dos_energy_down",
    "is_magnetic",
    "ordering",
    "total_magnetization_normalized_vol",
    "total_magnetization_normalized_formula_units",
    "num_magnetic_sites",
    "num_unique_magnetic_sites",
    "types_of_magnetic_species",
    "bulk_modulus",
    "shear_modulus",
    "universal_anisotropy",
    "homogeneous_poisson",
    "e_total",
    "e_ionic",
    "e_electronic",
    "n",
    "e_ij_max",
    "weighted_surface_energy_EV_PER_ANG2",
    "weighted_surface_energy",
    "weighted_work_function",
    "surface_anisotropy",
    "shape_factor",
    "has_reconstructed",
    "possible_species",
    "has_props",
    "theoretical",
    "database_IDs"
  ]
}
