{
  "builder_meta": null,
  "nsites": null,
  "elements": null,
  "nelements": null,
  "composition": null,
  "composition_reduced": null,
  "formula_pretty": "ThSe2",
  "formula_anonymous": "AB2",
  "chemsys": null,
  "volume": 309.63554989639835,
  "density": 8.365196996045302,
  "density_atomic": 25.80296249136653,
  "symmetry": null,
  "property_name": null,
  "material_id": "mp-7951",
  "deprecated": null,
  "deprecation_reasons": null,
  "last_updated": null,
  "origins": null,
  "warnings": null,
  "structure": {
    "@module": "pymatgen.core.structure",
    "@class": "Structure",
    "charge": 0,
    "lattice": {
      "matrix": [
        [4.45313753, 0.0, 0.0],
        [0.0, 7.63900106, 0.0],
        [0.0, 0.0, 9.10223699]
      ],
      "pbc": [true, true, true],
      "a": 4.45313753,
      "b": 7.63900106,
      "c": 9.10223699,
      "alpha": 90.0,
      "beta": 90.0,
      "gamma": 90.0,
      "volume": 309.63554989639835
    },
    "properties": {},
    "sites": [
      {
        "species": [{ "element": "Th", "occu": 1 }],
        "abc": [0.25, 0.25108818, 0.37988037],
        "properties": { "magmom": -0.0 },
        "label": "Th",
        "xyz": [1.1132843825, 1.9180628731734708, 3.4577611555888863]
      },
      {
        "species": [{ "element": "Th", "occu": 1 }],
        "abc": [0.75, 0.74891082, 0.62011963],
        "properties": { "magmom": -0.0 },
        "label": "Th",
        "xyz": [3.3398531475000004, 5.720930547825469, 5.6444758344111134]
      },
      {
        "species": [{ "element": "Th", "occu": 1 }],
        "abc": [0.25, 0.75108918, 0.12011963],
        "properties": { "magmom": -0.0 },
        "label": "Th",
        "xyz": [1.1132843825, 5.737571042174531, 1.0933573394111138]
      },
      {
        "species": [{ "element": "Th", "occu": 1 }],
        "abc": [0.75, 0.24891182, 0.87988037],
        "properties": { "magmom": -0.0 },
        "label": "Th",
        "xyz": [3.3398531475000004, 1.9014376568265292, 8.008879650588886]
      },
      {
        "species": [{ "element": "Se", "occu": 1 }],
        "abc": [0.25, 0.027776020000000002, 0.66309311],
        "properties": { "magmom": -0.0 },
        "label": "Se",
        "xyz": [1.1132843825, 0.21218104622258122, 6.035630633656139]
      },
      {
        "species": [{ "element": "Se", "occu": 1 }],
        "abc": [0.75, 0.97222398, 0.33690689],
        "properties": { "magmom": -0.0 },
        "label": "Se",
        "xyz": [3.3398531475000004, 7.4268200137774185, 3.0666063563438613]
      },
      {
        "species": [{ "element": "Se", "occu": 1 }],
        "abc": [0.25, 0.52777602, 0.8369068900000001],
        "properties": { "magmom": -0.0 },
        "label": "Se",
        "xyz": [1.1132843825, 4.0316815762225815, 7.617724851343861]
      },
      {
        "species": [{ "element": "Se", "occu": 1 }],
        "abc": [0.75, 0.47222398, 0.16309311],
        "properties": { "magmom": -0.0 },
        "label": "Se",
        "xyz": [3.3398531475000004, 3.6073194837774185, 1.484512138656139]
      },
      {
        "species": [{ "element": "Se", "occu": 1 }],
        "abc": [0.75, 0.36013427000000003, 0.57077146],
        "properties": { "magmom": 0.0 },
        "label": "Se",
        "xyz": [3.3398531475000004, 2.7510660702723264, 5.195297096048305]
      },
      {
        "species": [{ "element": "Se", "occu": 1 }],
        "abc": [0.25, 0.63986573, 0.42922854],
        "properties": { "magmom": 0.0 },
        "label": "Se",
        "xyz": [1.1132843825, 4.887934989727674, 3.9069398939516944]
      },
      {
        "species": [{ "element": "Se", "occu": 1 }],
        "abc": [0.75, 0.86013427, 0.92922854],
        "properties": { "magmom": 0.0 },
        "label": "Se",
        "xyz": [3.3398531475000004, 6.570566600272326, 8.458058388951695]
      },
      {
        "species": [{ "element": "Se", "occu": 1 }],
        "abc": [0.25, 0.13986573, 0.07077146000000001],
        "properties": { "magmom": 0.0 },
        "label": "Se",
        "xyz": [1.1132843825, 1.0684344597276738, 0.6441786010483055]
      }
    ]
  },
  "task_ids": null,
  "uncorrected_energy_per_atom": null,
  "energy_per_atom": -36.05605207083333,
  "formation_energy_per_atom": -2.023257866874994,
  "energy_above_hull": 0.0,
  "is_stable": true,
  "equilibrium_reaction_energy_per_atom": null,
  "decomposes_to": null,
  "xas": null,
  "grain_boundaries": null,
  "band_gap": 0.6304999999999991,
  "cbm": null,
  "vbm": null,
  "efermi": 5.64646138,
  "is_gap_direct": null,
  "is_metal": null,
  "es_source_calc_id": null,
  "bandstructure": null,
  "dos": null,
  "dos_energy_up": null,
  "dos_energy_down": null,
  "is_magnetic": null,
  "ordering": null,
  "total_magnetization": 0.0,
  "total_magnetization_normalized_vol": null,
  "total_magnetization_normalized_formula_units": null,
  "num_magnetic_sites": null,
  "num_unique_magnetic_sites": null,
  "types_of_magnetic_species": null,
  "bulk_modulus": null,
  "shear_modulus": null,
  "universal_anisotropy": null,
  "homogeneous_poisson": null,
  "e_total": null,
  "e_ionic": null,
  "e_electronic": null,
  "n": null,
  "e_ij_max": null,
  "weighted_surface_energy_EV_PER_ANG2": null,
  "weighted_surface_energy": null,
  "weighted_work_function": null,
  "surface_anisotropy": null,
  "shape_factor": null,
  "has_reconstructed": null,
  "possible_species": null,
  "has_props": null,
  "theoretical": null,
  "database_IDs": null,
  "fields_not_requested": [
    "builder_meta",
    "nsites",
    "elements",
    "nelements",
    "composition",
    "composition_reduced",
    "chemsys",
    "symmetry",
    "property_name",
    "deprecated",
    "deprecation_reasons",
    "last_updated",
    "origins",
    "warnings",
    "task_ids",
    "uncorrected_energy_per_atom",
    "equilibrium_reaction_energy_per_atom",
    "decomposes_to",
    "xas",
    "grain_boundaries",
    "cbm",
    "vbm",
    "is_gap_direct",
    "is_metal",
    "es_source_calc_id",
    "bandstructure",
    "dos",
    "dos_energy_up",
    "dos_energy_down",
    "is_magnetic",
    "ordering",
    "total_magnetization_normalized_vol",
    "total_magnetization_normalized_formula_units",
    "num_magnetic_sites",
    "num_unique_magnetic_sites",
    "types_of_magnetic_species",
    "bulk_modulus",
    "shear_modulus",
    "universal_anisotropy",
    "homogeneous_poisson",
    "e_total",
    "e_ionic",
    "e_electronic",
    "n",
    "e_ij_max",
    "weighted_surface_energy_EV_PER_ANG2",
    "weighted_surface_energy",
    "weighted_work_function",
    "surface_anisotropy",
    "shape_factor",
    "has_reconstructed",
    "possible_species",
    "has_props",
    "theoretical",
    "database_IDs"
  ]
}
