{"builder_meta": null, "nsites": null, "elements": null, "nelements": null, "composition": null, "composition_reduced": null, "formula_pretty": "ThSe3", "formula_anonymous": "AB3", "chemsys": null, "volume": 241.2540453852632, "density": 6.455077314213163, "density_atomic": 30.1567556731579, "symmetry": null, "property_name": null, "material_id": "mp-1079673", "deprecated": null, "deprecation_reasons": null, "last_updated": null, "origins": null, "warnings": null, "structure": {"@module": "pymatgen.core.structure", "@class": "Structure", "charge": 0, "lattice": {"matrix": [[0.0, -4.25151142, 0.0], [-5.80060542, 0.0, 0.011529590000000001], [-1.210781949999999, 0.0, -9.78027525]], "pbc": [true, true, true], "a": 4.25151142, "b": 5.800616878399999, "c": 9.854936676417985, "alpha": 83.05666780171099, "beta": 90.0, "gamma": 90.0, "volume": 241.2540453852632}, "properties": {}, "sites": [{"species": [{"element": "Th", "occu": 1}], "abc": [0.75, 0.28099991, 0.34477598], "properties": {"magmom": -0.0}, "label": "Th", "xyz": [-2.047418134343073, -3.188633565, -3.368764170236158]}, {"species": [{"element": "Th", "occu": 1}], "abc": [0.25, 0.71900009, 0.65522402], "properties": {"magmom": -0.0}, "label": "Th", "xyz": [-4.9639692356569265, -1.062877855, -6.399981489763842]}, {"species": [{"element": "Se", "occu": 1}], "abc": [0.75, 0.76195912, 0.440296099999999], "properties": {"magmom": 0.0}, "label": "Se", "xyz": [-4.952926771825824, -3.188633565, -4.297431973251155]}, {"species": [{"element": "Se", "occu": 1}], "abc": [0.25, 0.23804088, 0.559703899999999], "properties": {"magmom": 0.0}, "label": "Se", "xyz": [-2.0584605981741726, -1.062877855, -5.471313686748827]}, {"species": [{"element": "Se", "occu": 1}], "abc": [0.75, 0.47663226000000003, 0.82934153], "properties": {"magmom": 0.0}, "label": "Se", "xyz": [-3.768907425612232, -3.188633565, -8.105693065117558]}, {"species": [{"element": "Se", "occu": 1}], "abc": [0.25, 0.52336774, 0.17065847], "properties": {"magmom": 0.0}, "label": "Se", "xyz": [-3.242479944387767, -1.062877855, -1.663052594882441]}, {"species": [{"element": "Se", "occu": 1}], "abc": [0.75, 0.88401882, 0.83290518], "properties": {"magmom": 0.0}, "label": "Se", "xyz": [-6.136310916679505, -3.188633565, -8.135849543003912]}, {"species": [{"element": "Se", "occu": 1}], "abc": [0.25, 0.11598118, 0.16709482], "properties": {"magmom": 0.0}, "label": "Se", "xyz": [-0.8750764533204944, -1.062877855, -1.632896116996089]}]}, "task_ids": null, "uncorrected_energy_per_atom": null, "energy_per_atom": -30.68774996375, "formation_energy_per_atom": -1.585264253046872, "energy_above_hull": 0.0, "is_stable": true, "equilibrium_reaction_energy_per_atom": null, "decomposes_to": null, "xas": null, "grain_boundaries": null, "band_gap": 1.2728, "cbm": null, "vbm": null, "efermi": 2.74695723, "is_gap_direct": null, "is_metal": null, "es_source_calc_id": null, "bandstructure": null, "dos": null, "dos_energy_up": null, "dos_energy_down": null, "is_magnetic": null, "ordering": null, "total_magnetization": 0.0, "total_magnetization_normalized_vol": null, "total_magnetization_normalized_formula_units": null, "num_magnetic_sites": null, "num_unique_magnetic_sites": null, "types_of_magnetic_species": null, "bulk_modulus": null, "shear_modulus": null, "universal_anisotropy": null, "homogeneous_poisson": null, "e_total": null, "e_ionic": null, "e_electronic": null, "n": null, "e_ij_max": null, "weighted_surface_energy_EV_PER_ANG2": null, "weighted_surface_energy": null, "weighted_work_function": null, "surface_anisotropy": null, "shape_factor": null, "has_reconstructed": null, "possible_species": null, "has_props": null, "theoretical": null, "database_IDs": null, "fields_not_requested": ["builder_meta", "nsites", "elements", "nelements", "composition", "composition_reduced", "chemsys", "symmetry", "property_name", "deprecated", "deprecation_reasons", "last_updated", "origins", "warnings", "task_ids", "uncorrected_energy_per_atom", "equilibrium_reaction_energy_per_atom", "decomposes_to", "xas", "grain_boundaries", "cbm", "vbm", "is_gap_direct", "is_metal", "es_source_calc_id", "bandstructure", "dos", "dos_energy_up", "dos_energy_down", "is_magnetic", "ordering", "total_magnetization_normalized_vol", "total_magnetization_normalized_formula_units", "num_magnetic_sites", "num_unique_magnetic_sites", "types_of_magnetic_species", "bulk_modulus", "shear_modulus", "universal_anisotropy", "homogeneous_poisson", "e_total", "e_ionic", "e_electronic", "n", "e_ij_max", "weighted_surface_energy_EV_PER_ANG2", "weighted_surface_energy", "weighted_work_function", "surface_anisotropy", "shape_factor", "has_reconstructed", "possible_species", "has_props", "theoretical", "database_IDs"]}