{
  "builder_meta": null,
  "nsites": null,
  "elements": null,
  "nelements": null,
  "composition": null,
  "composition_reduced": null,
  "formula_pretty": "ThSi",
  "formula_anonymous": "AB",
  "chemsys": null,
  "volume": 195.36879460754568,
  "density": 8.843691427605012,
  "density_atomic": 24.42109932594321,
  "symmetry": null,
  "property_name": null,
  "material_id": "mp-21238",
  "deprecated": null,
  "deprecation_reasons": null,
  "last_updated": null,
  "origins": null,
  "warnings": null,
  "structure": {
    "@module": "pymatgen.core.structure",
    "@class": "Structure",
    "charge": 0,
    "lattice": {
      "matrix": [
        [4.14291393, -0.0, 0.0],
        [-0.0, 5.92058138, 0.0],
        [0.0, 0.0, 7.96498443]
      ],
      "pbc": [true, true, true],
      "a": 4.14291393,
      "b": 5.92058138,
      "c": 7.96498443,
      "alpha": 90.0,
      "beta": 90.0,
      "gamma": 90.0,
      "volume": 195.36879460754568
    },
    "properties": {},
    "sites": [
      {
        "species": [{ "element": "Th", "occu": 1 }],
        "abc": [0.25, 0.12381104, 0.17986721],
        "properties": { "magmom": -0.0 },
        "label": "Th",
        "xyz": [1.0357284825, 0.7330333380624352, 1.4326395271175403]
      },
      {
        "species": [{ "element": "Th", "occu": 1 }],
        "abc": [0.75, 0.87618896, 0.8201327900000001],
        "properties": { "magmom": -0.0 },
        "label": "Th",
        "xyz": [3.1071854475, 5.187548041937565, 6.5323449028824605]
      },
      {
        "species": [{ "element": "Th", "occu": 1 }],
        "abc": [0.75, 0.62381104, 0.32013279],
        "properties": { "magmom": -0.0 },
        "label": "Th",
        "xyz": [3.1071854475, 3.693324028062435, 2.54985268788246]
      },
      {
        "species": [{ "element": "Th", "occu": 1 }],
        "abc": [0.25, 0.37618896, 0.67986721],
        "properties": { "magmom": -0.0 },
        "label": "Th",
        "xyz": [1.0357284825, 2.2272573519375647, 5.415131742117541]
      },
      {
        "species": [{ "element": "Si", "occu": 1 }],
        "abc": [0.25, 0.62865403, 0.03860205],
        "properties": { "magmom": 0.0 },
        "label": "Si",
        "xyz": [1.0357284825, 3.721997344479961, 0.3074647272160815]
      },
      {
        "species": [{ "element": "Si", "occu": 1 }],
        "abc": [0.75, 0.37134597, 0.9613979500000001],
        "properties": { "magmom": 0.0 },
        "label": "Si",
        "xyz": [3.1071854475, 2.198584035520039, 7.65751970278392]
      },
      {
        "species": [{ "element": "Si", "occu": 1 }],
        "abc": [0.75, 0.12865403, 0.46139795],
        "properties": { "magmom": 0.0 },
        "label": "Si",
        "xyz": [3.1071854475, 0.7617066544799614, 3.6750274877839186]
      },
      {
        "species": [{ "element": "Si", "occu": 1 }],
        "abc": [0.25, 0.87134597, 0.53860205],
        "properties": { "magmom": 0.0 },
        "label": "Si",
        "xyz": [1.0357284825, 5.158874725520039, 4.289956942216082]
      }
    ]
  },
  "task_ids": null,
  "uncorrected_energy_per_atom": null,
  "energy_per_atom": -41.84428147875,
  "formation_energy_per_atom": -0.7197681062499931,
  "energy_above_hull": 0.0,
  "is_stable": true,
  "equilibrium_reaction_energy_per_atom": null,
  "decomposes_to": null,
  "xas": null,
  "grain_boundaries": null,
  "band_gap": 0.0,
  "cbm": null,
  "vbm": null,
  "efermi": 7.87304084,
  "is_gap_direct": null,
  "is_metal": null,
  "es_source_calc_id": null,
  "bandstructure": null,
  "dos": null,
  "dos_energy_up": null,
  "dos_energy_down": null,
  "is_magnetic": null,
  "ordering": null,
  "total_magnetization": 0.0,
  "total_magnetization_normalized_vol": null,
  "total_magnetization_normalized_formula_units": null,
  "num_magnetic_sites": null,
  "num_unique_magnetic_sites": null,
  "types_of_magnetic_species": null,
  "bulk_modulus": null,
  "shear_modulus": null,
  "universal_anisotropy": null,
  "homogeneous_poisson": null,
  "e_total": null,
  "e_ionic": null,
  "e_electronic": null,
  "n": null,
  "e_ij_max": null,
  "weighted_surface_energy_EV_PER_ANG2": null,
  "weighted_surface_energy": null,
  "weighted_work_function": null,
  "surface_anisotropy": null,
  "shape_factor": null,
  "has_reconstructed": null,
  "possible_species": null,
  "has_props": null,
  "theoretical": null,
  "database_IDs": null,
  "fields_not_requested": [
    "builder_meta",
    "nsites",
    "elements",
    "nelements",
    "composition",
    "composition_reduced",
    "chemsys",
    "symmetry",
    "property_name",
    "deprecated",
    "deprecation_reasons",
    "last_updated",
    "origins",
    "warnings",
    "task_ids",
    "uncorrected_energy_per_atom",
    "equilibrium_reaction_energy_per_atom",
    "decomposes_to",
    "xas",
    "grain_boundaries",
    "cbm",
    "vbm",
    "is_gap_direct",
    "is_metal",
    "es_source_calc_id",
    "bandstructure",
    "dos",
    "dos_energy_up",
    "dos_energy_down",
    "is_magnetic",
    "ordering",
    "total_magnetization_normalized_vol",
    "total_magnetization_normalized_formula_units",
    "num_magnetic_sites",
    "num_unique_magnetic_sites",
    "types_of_magnetic_species",
    "bulk_modulus",
    "shear_modulus",
    "universal_anisotropy",
    "homogeneous_poisson",
    "e_total",
    "e_ionic",
    "e_electronic",
    "n",
    "e_ij_max",
    "weighted_surface_energy_EV_PER_ANG2",
    "weighted_surface_energy",
    "weighted_work_function",
    "surface_anisotropy",
    "shape_factor",
    "has_reconstructed",
    "possible_species",
    "has_props",
    "theoretical",
    "database_IDs"
  ]
}
