{"builder_meta": null, "nsites": null, "elements": null, "nelements": null, "composition": null, "composition_reduced": null, "formula_pretty": "ThSn2", "formula_anonymous": "AB2", "chemsys": null, "volume": 171.61065691223882, "density": 9.085140314554101, "density_atomic": 28.601776152039804, "symmetry": null, "property_name": null, "material_id": "mp-30872", "deprecated": null, "deprecation_reasons": null, "last_updated": null, "origins": null, "warnings": null, "structure": {"@module": "pymatgen.core.structure", "@class": "Structure", "charge": 0, "lattice": {"matrix": [[4.38434138, 0.0, 0.0], [0.0, 4.34050779, -1.13536933], [-0.0, 0.03751563, 9.00796093]], "pbc": [true, true, true], "a": 4.38434138, "b": 4.486543367733709, "c": 9.008039050698034, "alpha": 104.42010351308407, "beta": 90.0, "gamma": 90.0, "volume": 171.61065691223882}, "properties": {}, "sites": [{"species": [{"element": "Th", "occu": 1}], "abc": [0.75, 0.10487914, 0.20975828], "properties": {"magmom": 0.0}, "label": "Th", "xyz": [3.2882560350000003, 0.463097938200417, 1.770417832071224]}, {"species": [{"element": "Th", "occu": 1}], "abc": [0.25, 0.89512086, 0.79024172], "properties": {"magmom": 0.0}, "label": "Th", "xyz": [1.096085345, 3.914925481799583, 6.102173767928775]}, {"species": [{"element": "Sn", "occu": 1}], "abc": [0.75, 0.74955178, 0.49910555], "properties": {"magmom": -0.0}, "label": "Sn", "xyz": [3.2882560350000003, 3.2721595992431127, 3.6449051920872537]}, {"species": [{"element": "Sn", "occu": 1}], "abc": [0.25, 0.25044822, 0.50089445], "properties": {"magmom": -0.0}, "label": "Sn", "xyz": [1.096085345, 1.1058638207568872, 4.227686407912746]}, {"species": [{"element": "Sn", "occu": 1}], "abc": [0.75, 0.44157205, 0.88314711], "properties": {"magmom": -0.0}, "label": "Sn", "xyz": [3.2882560350000003, 1.9497787430855988, 7.454007299767185]}, {"species": [{"element": "Sn", "occu": 1}], "abc": [0.25, 0.55842795, 0.11685289], "properties": {"magmom": -0.0}, "label": "Sn", "xyz": [1.096085345, 2.4282446769144013, 0.418584300232814]}]}, "task_ids": null, "uncorrected_energy_per_atom": null, "energy_per_atom": -41.577039765, "formation_energy_per_atom": -0.5878298616666621, "energy_above_hull": 0.0, "is_stable": true, "equilibrium_reaction_energy_per_atom": null, "decomposes_to": null, "xas": null, "grain_boundaries": null, "band_gap": 0.0, "cbm": null, "vbm": null, "efermi": 8.01127294, "is_gap_direct": null, "is_metal": null, "es_source_calc_id": null, "bandstructure": null, "dos": null, "dos_energy_up": null, "dos_energy_down": null, "is_magnetic": null, "ordering": null, "total_magnetization": 0.0, "total_magnetization_normalized_vol": null, "total_magnetization_normalized_formula_units": null, "num_magnetic_sites": null, "num_unique_magnetic_sites": null, "types_of_magnetic_species": null, "bulk_modulus": null, "shear_modulus": null, "universal_anisotropy": null, "homogeneous_poisson": null, "e_total": null, "e_ionic": null, "e_electronic": null, "n": null, "e_ij_max": null, "weighted_surface_energy_EV_PER_ANG2": null, "weighted_surface_energy": null, "weighted_work_function": null, "surface_anisotropy": null, "shape_factor": null, "has_reconstructed": null, "possible_species": null, "has_props": null, "theoretical": null, "database_IDs": null, "fields_not_requested": ["builder_meta", "nsites", "elements", "nelements", "composition", "composition_reduced", "chemsys", "symmetry", "property_name", "deprecated", "deprecation_reasons", "last_updated", "origins", "warnings", "task_ids", "uncorrected_energy_per_atom", "equilibrium_reaction_energy_per_atom", "decomposes_to", "xas", "grain_boundaries", "cbm", "vbm", "is_gap_direct", "is_metal", "es_source_calc_id", "bandstructure", "dos", "dos_energy_up", "dos_energy_down", "is_magnetic", "ordering", "total_magnetization_normalized_vol", "total_magnetization_normalized_formula_units", "num_magnetic_sites", "num_unique_magnetic_sites", "types_of_magnetic_species", "bulk_modulus", "shear_modulus", "universal_anisotropy", "homogeneous_poisson", "e_total", "e_ionic", "e_electronic", "n", "e_ij_max", "weighted_surface_energy_EV_PER_ANG2", "weighted_surface_energy", "weighted_work_function", "surface_anisotropy", "shape_factor", "has_reconstructed", "possible_species", "has_props", "theoretical", "database_IDs"]}