{
  "builder_meta": null,
  "nsites": null,
  "elements": null,
  "nelements": null,
  "composition": null,
  "composition_reduced": null,
  "formula_pretty": "ThTe3",
  "formula_anonymous": "AB3",
  "chemsys": null,
  "volume": 297.546980654905,
  "density": 6.86253052217436,
  "density_atomic": 37.19337258186312,
  "symmetry": null,
  "property_name": null,
  "material_id": "mp-1025522",
  "deprecated": null,
  "deprecation_reasons": null,
  "last_updated": null,
  "origins": null,
  "warnings": null,
  "structure": {
    "@module": "pymatgen.core.structure",
    "@class": "Structure",
    "charge": 0,
    "lattice": {
      "matrix": [
        [0.0, -4.44290231, 0.0],
        [-6.23684025, 0.0, 0.88318489],
        [-0.06299106, 0.0, -10.72909886]
      ],
      "pbc": [true, true, true],
      "a": 4.44290231,
      "b": 6.299062775837718,
      "c": 10.729283770191431,
      "alpha": 97.72355421626412,
      "beta": 90.0,
      "gamma": 90.0,
      "volume": 297.546980654905
    },
    "properties": {},
    "sites": [
      {
        "species": [{ "element": "Th", "occu": 1 }],
        "abc": [0.75, 0.71466281, 0.84439478],
        "properties": { "magmom": 0.0 },
        "label": "Th",
        "xyz": [-4.510427100836769, -3.3321767325, -8.42841567625101]
      },
      {
        "species": [{ "element": "Th", "occu": 1 }],
        "abc": [0.25, 0.28533719, 0.15560522000000002],
        "properties": { "magmom": 0.0 },
        "label": "Th",
        "xyz": [-1.7894042091632307, -1.1107255775, -1.4174982937489902]
      },
      {
        "species": [{ "element": "Te", "occu": 1 }],
        "abc": [0.75, 0.5484815200000001, 0.32730977],
        "properties": { "magmom": -0.0 },
        "label": "Te",
        "xyz": [-3.441409209677837, -3.3321767325, -3.0273282892656295]
      },
      {
        "species": [{ "element": "Te", "occu": 1 }],
        "abc": [0.25, 0.45151848, 0.6726902300000001],
        "properties": { "magmom": -0.0 },
        "label": "Te",
        "xyz": [-2.858422100322164, -1.1107255775, -6.818585680734372]
      },
      {
        "species": [{ "element": "Te", "occu": 1 }],
        "abc": [0.75, 0.23456054, 0.93797831],
        "properties": { "magmom": -0.0 },
        "label": "Te",
        "xyz": [-1.5220008649376437, -3.3321767325, -9.856501691807487]
      },
      {
        "species": [{ "element": "Te", "occu": 1 }],
        "abc": [0.25, 0.7654394600000001, 0.062021690000000004],
        "properties": { "magmom": -0.0 },
        "label": "Te",
        "xyz": [-4.777830445062357, -1.1107255775, 0.010587721807486017]
      },
      {
        "species": [{ "element": "Te", "occu": 1 }],
        "abc": [0.75, 0.11284834, 0.33449226],
        "properties": { "magmom": -0.0 },
        "label": "Te",
        "xyz": [-0.7248870910768807, -3.3321767325, -3.489134576695241]
      },
      {
        "species": [{ "element": "Te", "occu": 1 }],
        "abc": [0.25, 0.88715166, 0.66550774],
        "properties": { "magmom": -0.0 },
        "label": "Te",
        "xyz": [-5.57494421892312, -1.1107255775, -6.35677939330476]
      }
    ]
  },
  "task_ids": null,
  "uncorrected_energy_per_atom": null,
  "energy_per_atom": -38.59385376625,
  "formation_energy_per_atom": -1.162119996249998,
  "energy_above_hull": 0.0,
  "is_stable": true,
  "equilibrium_reaction_energy_per_atom": null,
  "decomposes_to": null,
  "xas": null,
  "grain_boundaries": null,
  "band_gap": 0.6758999999999991,
  "cbm": null,
  "vbm": null,
  "efermi": 4.51083805,
  "is_gap_direct": null,
  "is_metal": null,
  "es_source_calc_id": null,
  "bandstructure": null,
  "dos": null,
  "dos_energy_up": null,
  "dos_energy_down": null,
  "is_magnetic": null,
  "ordering": null,
  "total_magnetization": 0.0,
  "total_magnetization_normalized_vol": null,
  "total_magnetization_normalized_formula_units": null,
  "num_magnetic_sites": null,
  "num_unique_magnetic_sites": null,
  "types_of_magnetic_species": null,
  "bulk_modulus": null,
  "shear_modulus": null,
  "universal_anisotropy": null,
  "homogeneous_poisson": null,
  "e_total": null,
  "e_ionic": null,
  "e_electronic": null,
  "n": null,
  "e_ij_max": null,
  "weighted_surface_energy_EV_PER_ANG2": null,
  "weighted_surface_energy": null,
  "weighted_work_function": null,
  "surface_anisotropy": null,
  "shape_factor": null,
  "has_reconstructed": null,
  "possible_species": null,
  "has_props": null,
  "theoretical": null,
  "database_IDs": null,
  "fields_not_requested": [
    "builder_meta",
    "nsites",
    "elements",
    "nelements",
    "composition",
    "composition_reduced",
    "chemsys",
    "symmetry",
    "property_name",
    "deprecated",
    "deprecation_reasons",
    "last_updated",
    "origins",
    "warnings",
    "task_ids",
    "uncorrected_energy_per_atom",
    "equilibrium_reaction_energy_per_atom",
    "decomposes_to",
    "xas",
    "grain_boundaries",
    "cbm",
    "vbm",
    "is_gap_direct",
    "is_metal",
    "es_source_calc_id",
    "bandstructure",
    "dos",
    "dos_energy_up",
    "dos_energy_down",
    "is_magnetic",
    "ordering",
    "total_magnetization_normalized_vol",
    "total_magnetization_normalized_formula_units",
    "num_magnetic_sites",
    "num_unique_magnetic_sites",
    "types_of_magnetic_species",
    "bulk_modulus",
    "shear_modulus",
    "universal_anisotropy",
    "homogeneous_poisson",
    "e_total",
    "e_ionic",
    "e_electronic",
    "n",
    "e_ij_max",
    "weighted_surface_energy_EV_PER_ANG2",
    "weighted_surface_energy",
    "weighted_work_function",
    "surface_anisotropy",
    "shape_factor",
    "has_reconstructed",
    "possible_species",
    "has_props",
    "theoretical",
    "database_IDs"
  ]
}
