{"builder_meta": null, "nsites": null, "elements": null, "nelements": null, "composition": null, "composition_reduced": null, "formula_pretty": "ThTl", "formula_anonymous": "AB", "chemsys": null, "volume": 717.3904550824931, "density": 12.122180538831442, "density_atomic": 29.891268961770546, "symmetry": null, "property_name": null, "material_id": "mp-542382", "deprecated": null, "deprecation_reasons": null, "last_updated": null, "origins": null, "warnings": null, "structure": {"@module": "pymatgen.core.structure", "@class": "Structure", "charge": 0, "lattice": {"matrix": [[6.58624009, -0.0, 0.0], [-0.0, 9.99606008, 0.0], [0.0, 0.0, 10.89655407]], "pbc": [true, true, true], "a": 6.58624009, "b": 9.99606008, "c": 10.89655407, "alpha": 90.0, "beta": 90.0, "gamma": 90.0, "volume": 717.3904550824931}, "properties": {}, "sites": [{"species": [{"element": "Th", "occu": 1}], "abc": [0.0, 0.75, 0.39035643000000003], "properties": {"magmom": -0.0}, "label": "Th", "xyz": [0.0, 7.49704506, 4.25353994606717]}, {"species": [{"element": "Th", "occu": 1}], "abc": [0.5, 0.25, 0.60964357], "properties": {"magmom": -0.0}, "label": "Th", "xyz": [3.293120045, 2.49901502, 6.64301412393283]}, {"species": [{"element": "Th", "occu": 1}], "abc": [-0.0, 0.25, 0.60964357], "properties": {"magmom": -0.0}, "label": "Th", "xyz": [0.0, 2.49901502, 6.64301412393283]}, {"species": [{"element": "Th", "occu": 1}], "abc": [0.5, 0.75, 0.39035643000000003], "properties": {"magmom": -0.0}, "label": "Th", "xyz": [3.293120045, 7.49704506, 4.25353994606717]}, {"species": [{"element": "Th", "occu": 1}], "abc": [0.75, 0.62822239, 0.68932885], "properties": {"magmom": -0.0}, "label": "Th", "xyz": [4.9396800675, 6.279748754041191, 7.5113090860359195]}, {"species": [{"element": "Th", "occu": 1}], "abc": [0.25, 0.37177761, 0.31067115], "properties": {"magmom": -0.0}, "label": "Th", "xyz": [1.6465600225, 3.7163113259588085, 3.3852449839640806]}, {"species": [{"element": "Th", "occu": 1}], "abc": [0.75, 0.12822239, 0.31067115], "properties": {"magmom": -0.0}, "label": "Th", "xyz": [4.9396800675, 1.281718714041191, 3.3852449839640806]}, {"species": [{"element": "Th", "occu": 1}], "abc": [0.25, 0.87177761, 0.68932885], "properties": {"magmom": -0.0}, "label": "Th", "xyz": [1.6465600225, 8.714341365958807, 7.5113090860359195]}, {"species": [{"element": "Th", "occu": 1}], "abc": [0.75, 0.53397102, 0.11318238], "properties": {"magmom": -0.0}, "label": "Th", "xyz": [4.9396800675, 5.337606396898881, 1.2332979234412866]}, {"species": [{"element": "Th", "occu": 1}], "abc": [0.25, 0.46602898000000004, 0.88681762], "properties": {"magmom": -0.0}, "label": "Th", "xyz": [1.6465600225, 4.6584536831011185, 9.663256146558714]}, {"species": [{"element": "Th", "occu": 1}], "abc": [0.75, 0.03397102, 0.88681762], "properties": {"magmom": -0.0}, "label": "Th", "xyz": [4.9396800675, 0.33957635689888155, 9.663256146558714]}, {"species": [{"element": "Th", "occu": 1}], "abc": [0.25, 0.96602898, 0.11318238], "properties": {"magmom": -0.0}, "label": "Th", "xyz": [1.6465600225, 9.656483723101118, 1.2332979234412866]}, {"species": [{"element": "Tl", "occu": 1}], "abc": [-0.0, 0.75, 0.9248351100000001], "properties": {"magmom": -0.0}, "label": "Tl", "xyz": [0.0, 7.49704506, 10.0775157819494]}, {"species": [{"element": "Tl", "occu": 1}], "abc": [0.5, 0.25, 0.07516489], "properties": {"magmom": -0.0}, "label": "Tl", "xyz": [3.293120045, 2.49901502, 0.8190382880506023]}, {"species": [{"element": "Tl", "occu": 1}], "abc": [0.0, 0.25, 0.07516489], "properties": {"magmom": -0.0}, "label": "Tl", "xyz": [0.0, 2.49901502, 0.8190382880506023]}, {"species": [{"element": "Tl", "occu": 1}], "abc": [0.5, 0.75, 0.9248351100000001], "properties": {"magmom": -0.0}, "label": "Tl", "xyz": [3.293120045, 7.49704506, 10.0775157819494]}, {"species": [{"element": "Tl", "occu": 1}], "abc": [0.75, 0.9462664900000001, 0.59593963], "properties": {"magmom": 0.0}, "label": "Tl", "xyz": [4.9396800675, 9.45893668573072, 6.493688400750795]}, {"species": [{"element": "Tl", "occu": 1}], "abc": [0.25, 0.05373351, 0.40406037], "properties": {"magmom": 0.0}, "label": "Tl", "xyz": [1.6465600225, 0.5371233942692808, 4.4028656692492065]}, {"species": [{"element": "Tl", "occu": 1}], "abc": [0.75, 0.44626649, 0.40406037], "properties": {"magmom": 0.0}, "label": "Tl", "xyz": [4.9396800675, 4.460906645730719, 4.4028656692492065]}, {"species": [{"element": "Tl", "occu": 1}], "abc": [0.25, 0.55373351, 0.59593963], "properties": {"magmom": 0.0}, "label": "Tl", "xyz": [1.6465600225, 5.535153434269281, 6.493688400750795]}, {"species": [{"element": "Tl", "occu": 1}], "abc": [0.75, 0.86938302, 0.14778585], "properties": {"magmom": 0.0}, "label": "Tl", "xyz": [4.9396800675, 8.690404900451842, 1.6103565053059095]}, {"species": [{"element": "Tl", "occu": 1}], "abc": [0.25, 0.13061698, 0.85221415], "properties": {"magmom": 0.0}, "label": "Tl", "xyz": [1.6465600225, 1.3056551795481584, 9.28619756469409]}, {"species": [{"element": "Tl", "occu": 1}], "abc": [0.75, 0.36938302, 0.85221415], "properties": {"magmom": 0.0}, "label": "Tl", "xyz": [4.9396800675, 3.6923748604518414, 9.28619756469409]}, {"species": [{"element": "Tl", "occu": 1}], "abc": [0.25, 0.63061698, 0.14778585], "properties": {"magmom": 0.0}, "label": "Tl", "xyz": [1.6465600225, 6.303685219548158, 1.6103565053059095]}]}, "task_ids": null, "uncorrected_energy_per_atom": null, "energy_per_atom": -63.58608025416667, "formation_energy_per_atom": -0.25879688916666, "energy_above_hull": 0.0, "is_stable": true, "equilibrium_reaction_energy_per_atom": null, "decomposes_to": null, "xas": null, "grain_boundaries": null, "band_gap": 0.0, "cbm": null, "vbm": null, "efermi": 7.31111435, "is_gap_direct": null, "is_metal": null, "es_source_calc_id": null, "bandstructure": null, "dos": null, "dos_energy_up": null, "dos_energy_down": null, "is_magnetic": null, "ordering": null, "total_magnetization": 8e-07, "total_magnetization_normalized_vol": null, "total_magnetization_normalized_formula_units": null, "num_magnetic_sites": null, "num_unique_magnetic_sites": null, "types_of_magnetic_species": null, "bulk_modulus": null, "shear_modulus": null, "universal_anisotropy": null, "homogeneous_poisson": null, "e_total": null, "e_ionic": null, "e_electronic": null, "n": null, "e_ij_max": null, "weighted_surface_energy_EV_PER_ANG2": null, "weighted_surface_energy": null, "weighted_work_function": null, "surface_anisotropy": null, "shape_factor": null, "has_reconstructed": null, "possible_species": null, "has_props": null, "theoretical": null, "database_IDs": null, "fields_not_requested": ["builder_meta", "nsites", "elements", "nelements", "composition", "composition_reduced", "chemsys", "symmetry", "property_name", "deprecated", "deprecation_reasons", "last_updated", "origins", "warnings", "task_ids", "uncorrected_energy_per_atom", "equilibrium_reaction_energy_per_atom", "decomposes_to", "xas", "grain_boundaries", "cbm", "vbm", "is_gap_direct", "is_metal", "es_source_calc_id", "bandstructure", "dos", "dos_energy_up", "dos_energy_down", "is_magnetic", "ordering", "total_magnetization_normalized_vol", "total_magnetization_normalized_formula_units", "num_magnetic_sites", "num_unique_magnetic_sites", "types_of_magnetic_species", "bulk_modulus", "shear_modulus", "universal_anisotropy", "homogeneous_poisson", "e_total", "e_ionic", "e_electronic", "n", "e_ij_max", "weighted_surface_energy_EV_PER_ANG2", "weighted_surface_energy", "weighted_work_function", "surface_anisotropy", "shape_factor", "has_reconstructed", "possible_species", "has_props", "theoretical", "database_IDs"]}