{"builder_meta": null, "nsites": null, "elements": null, "nelements": null, "composition": null, "composition_reduced": null, "formula_pretty": "ThZn4", "formula_anonymous": "AB4", "chemsys": null, "volume": 92.55321684414398, "density": 8.857229286557214, "density_atomic": 18.510643368828795, "symmetry": null, "property_name": null, "material_id": "mp-536", "deprecated": null, "deprecation_reasons": null, "last_updated": null, "origins": null, "warnings": null, "structure": {"@module": "pymatgen.core.structure", "@class": "Structure", "charge": 0, "lattice": {"matrix": [[3.97650845, 0.0, -1.51633904], [-0.57821639, 3.93424455, -1.5163390300000001], [-0.01600306, -0.018525510000000002, 5.93028194]], "pbc": [true, true, true], "a": 4.255808211979192, "b": 4.255807611578638, "c": 5.930332467943116, "alpha": 111.02755716696443, "beta": 111.02756794102362, "gamma": 89.99999459590403, "volume": 92.55321684414398}, "properties": {}, "sites": [{"species": [{"element": "Th", "occu": 1}], "abc": [0.0, -0.0, -0.0], "properties": {"magmom": 0.0}, "label": "Th", "xyz": [0.0, 0.0, 0.0]}, {"species": [{"element": "Zn", "occu": 1}], "abc": [0.61850527, 0.61850527, 0.23701054], "properties": {"magmom": 0.0}, "label": "Zn", "xyz": [2.098068654216904, 2.4289602465149027, -0.47018804355678134]}, {"species": [{"element": "Zn", "occu": 1}], "abc": [0.25, 0.75, 0.5], "properties": {"magmom": -0.0}, "label": "Zn", "xyz": [0.5524632899999999, 2.9414206575, 1.4488019375]}, {"species": [{"element": "Zn", "occu": 1}], "abc": [0.75, 0.25, 0.5], "properties": {"magmom": -0.0}, "label": "Zn", "xyz": [2.8298257099999997, 0.9742983825, 1.4488019325000001]}, {"species": [{"element": "Zn", "occu": 1}], "abc": [0.38149473, 0.38149473, 0.76298946], "properties": {"magmom": 0.0}, "label": "Zn", "xyz": [1.284220345783096, 1.4867587934850968, 3.3677919135567813]}]}, "task_ids": null, "uncorrected_energy_per_atom": null, "energy_per_atom": -22.148500328, "formation_energy_per_atom": -0.324965814, "energy_above_hull": 0.0, "is_stable": true, "equilibrium_reaction_energy_per_atom": null, "decomposes_to": null, "xas": null, "grain_boundaries": null, "band_gap": 0.0, "cbm": null, "vbm": null, "efermi": 4.10674631, "is_gap_direct": null, "is_metal": null, "es_source_calc_id": null, "bandstructure": null, "dos": null, "dos_energy_up": null, "dos_energy_down": null, "is_magnetic": null, "ordering": null, "total_magnetization": 0.0, "total_magnetization_normalized_vol": null, "total_magnetization_normalized_formula_units": null, "num_magnetic_sites": null, "num_unique_magnetic_sites": null, "types_of_magnetic_species": null, "bulk_modulus": null, "shear_modulus": null, "universal_anisotropy": null, "homogeneous_poisson": null, "e_total": null, "e_ionic": null, "e_electronic": null, "n": null, "e_ij_max": null, "weighted_surface_energy_EV_PER_ANG2": null, "weighted_surface_energy": null, "weighted_work_function": null, "surface_anisotropy": null, "shape_factor": null, "has_reconstructed": null, "possible_species": null, "has_props": null, "theoretical": null, "database_IDs": null, "fields_not_requested": ["builder_meta", "nsites", "elements", "nelements", "composition", "composition_reduced", "chemsys", "symmetry", "property_name", "deprecated", "deprecation_reasons", "last_updated", "origins", "warnings", "task_ids", "uncorrected_energy_per_atom", "equilibrium_reaction_energy_per_atom", "decomposes_to", "xas", "grain_boundaries", "cbm", "vbm", "is_gap_direct", "is_metal", "es_source_calc_id", "bandstructure", "dos", "dos_energy_up", "dos_energy_down", "is_magnetic", "ordering", "total_magnetization_normalized_vol", "total_magnetization_normalized_formula_units", "num_magnetic_sites", "num_unique_magnetic_sites", "types_of_magnetic_species", "bulk_modulus", "shear_modulus", "universal_anisotropy", "homogeneous_poisson", "e_total", "e_ionic", "e_electronic", "n", "e_ij_max", "weighted_surface_energy_EV_PER_ANG2", "weighted_surface_energy", "weighted_work_function", "surface_anisotropy", "shape_factor", "has_reconstructed", "possible_species", "has_props", "theoretical", "database_IDs"]}