{"builder_meta": null, "nsites": null, "elements": null, "nelements": null, "composition": null, "composition_reduced": null, "formula_pretty": "Ti2Al", "formula_anonymous": "AB2", "chemsys": null, "volume": 62.80989774999998, "density": 3.244296730671883, "density_atomic": 20.936632583333328, "symmetry": null, "property_name": null, "material_id": "mp-1008753", "deprecated": null, "deprecation_reasons": null, "last_updated": null, "origins": null, "warnings": null, "structure": {"@module": "pymatgen.core.structure", "@class": "Structure", "charge": 0, "lattice": {"matrix": [[0.0, 3.155, 3.155], [3.155, 0.0, 3.155], [3.155, 3.155, 0.0]], "pbc": [true, true, true], "a": 4.461843789287115, "b": 4.461843789287115, "c": 4.461843789287115, "alpha": 60.00000000000001, "beta": 60.00000000000001, "gamma": 60.00000000000001, "volume": 62.80989774999998}, "properties": {}, "sites": [{"species": [{"element": "Ti", "occu": 1}], "abc": [0.0, 0.0, 0.0], "properties": {"magmom": 1.228}, "label": "Ti", "xyz": [0.0, 0.0, 0.0]}, {"species": [{"element": "Ti", "occu": 1}], "abc": [0.25, 0.25, 0.25], "properties": {"magmom": 1.351}, "label": "Ti", "xyz": [1.5775, 1.5775, 1.5775]}, {"species": [{"element": "Al", "occu": 1}], "abc": [0.75, 0.75, 0.75], "properties": {"magmom": -0.053}, "label": "Al", "xyz": [4.7325, 4.7325, 4.7325]}]}, "task_ids": null, "uncorrected_energy_per_atom": null, "energy_per_atom": -10.3220935875, "formation_energy_per_atom": 0.5471105313888901, "energy_above_hull": 0.8942426866666661, "is_stable": false, "equilibrium_reaction_energy_per_atom": null, "decomposes_to": null, "xas": null, "grain_boundaries": null, "band_gap": 0.0, "cbm": null, "vbm": null, "efermi": 4.37093904, "is_gap_direct": null, "is_metal": null, "es_source_calc_id": null, "bandstructure": null, "dos": null, "dos_energy_up": null, "dos_energy_down": null, "is_magnetic": null, "ordering": null, "total_magnetization": 2.995354899999999, "total_magnetization_normalized_vol": null, "total_magnetization_normalized_formula_units": null, "num_magnetic_sites": null, "num_unique_magnetic_sites": null, "types_of_magnetic_species": null, "bulk_modulus": null, "shear_modulus": null, "universal_anisotropy": null, "homogeneous_poisson": null, "e_total": null, "e_ionic": null, "e_electronic": null, "n": null, "e_ij_max": null, "weighted_surface_energy_EV_PER_ANG2": null, "weighted_surface_energy": null, "weighted_work_function": null, "surface_anisotropy": null, "shape_factor": null, "has_reconstructed": null, "possible_species": null, "has_props": null, "theoretical": null, "database_IDs": null, "fields_not_requested": ["builder_meta", "nsites", "elements", "nelements", "composition", "composition_reduced", "chemsys", "symmetry", "property_name", "deprecated", "deprecation_reasons", "last_updated", "origins", "warnings", "task_ids", "uncorrected_energy_per_atom", "equilibrium_reaction_energy_per_atom", "decomposes_to", "xas", "grain_boundaries", "cbm", "vbm", "is_gap_direct", "is_metal", "es_source_calc_id", "bandstructure", "dos", "dos_energy_up", "dos_energy_down", "is_magnetic", "ordering", "total_magnetization_normalized_vol", "total_magnetization_normalized_formula_units", "num_magnetic_sites", "num_unique_magnetic_sites", "types_of_magnetic_species", "bulk_modulus", "shear_modulus", "universal_anisotropy", "homogeneous_poisson", "e_total", "e_ionic", "e_electronic", "n", "e_ij_max", "weighted_surface_energy_EV_PER_ANG2", "weighted_surface_energy", "weighted_work_function", "surface_anisotropy", "shape_factor", "has_reconstructed", "possible_species", "has_props", "theoretical", "database_IDs"]}