{"builder_meta": null, "nsites": null, "elements": null, "nelements": null, "composition": null, "composition_reduced": null, "formula_pretty": "Ti2Al3", "formula_anonymous": "A2B3", "chemsys": null, "volume": 349.80914601176966, "density": 3.354763557369547, "density_atomic": 17.49045730058848, "symmetry": null, "property_name": null, "material_id": "mp-1208324", "deprecated": null, "deprecation_reasons": null, "last_updated": null, "origins": null, "warnings": null, "structure": {"@module": "pymatgen.core.structure", "@class": "Structure", "charge": 0, "lattice": {"matrix": [[6.118791, 0.0, 0.0], [0.0, 6.118791, 0.0], [-3.059396, -3.059396, 9.343292]], "pbc": [true, true, true], "a": 6.118791, "b": 6.118791, "c": 10.296451484219988, "alpha": 107.28537180871741, "beta": 107.28537180871741, "gamma": 90.0, "volume": 349.80914601176966}, "properties": {}, "sites": [{"species": [{"element": "Ti", "occu": 1}], "abc": [0.29235, 0.524088, 0.584701], "properties": {"magmom": 0.155}, "label": "Ti", "xyz": [-3.351746000079814e-06, 1.417953037012, 5.463032175692001]}, {"species": [{"element": "Ti", "occu": 1}], "abc": [0.29235, 0.060612, 0.584701], "properties": {"magmom": 0.161}, "label": "Ti", "xyz": [-3.351746000079814e-06, -1.417959740504, 5.463032175692001]}, {"species": [{"element": "Ti", "occu": 1}], "abc": [0.310612, 0.042350000000000006, 0.084701], "properties": {"magmom": 0.161}, "label": "Ti", "xyz": [1.6414360094959999, -3.101745999989358e-06, 0.791386175692]}, {"species": [{"element": "Ti", "occu": 1}], "abc": [0.9576500000000001, 0.689388, 0.915299], "properties": {"magmom": 0.16}, "label": "Ti", "xyz": [3.059398101746001, 1.4179589905040002, 8.551905824308]}, {"species": [{"element": "Ti", "occu": 1}], "abc": [0.9576500000000001, 0.225912, 0.915299], "properties": {"magmom": 0.154}, "label": "Ti", "xyz": [3.059398101746001, -1.4179537870119998, 8.551905824308]}, {"species": [{"element": "Ti", "occu": 1}], "abc": [0.774088, 0.042350000000000006, 0.084701], "properties": {"magmom": 0.154}, "label": "Ti", "xyz": [4.477348787012, -3.101745999989358e-06, 0.791386175692]}, {"species": [{"element": "Ti", "occu": 1}], "abc": [0.939388, 0.7076500000000001, 0.415299], "properties": {"magmom": 0.161}, "label": "Ti", "xyz": [4.4773547405039995, 3.059398351746001, 3.8802598243079998]}, {"species": [{"element": "Ti", "occu": 1}], "abc": [0.475912, 0.7076500000000001, 0.415299], "properties": {"magmom": 0.154}, "label": "Ti", "xyz": [1.641441962988, 3.059398351746001, 3.8802598243079998]}, {"species": [{"element": "Al", "occu": 1}], "abc": [0.801044, 0.077212, 0.602089], "properties": {"magmom": -0.004}, "label": "Al", "xyz": [3.05939213956, -1.3695845875519999, 5.625493336988]}, {"species": [{"element": "Al", "occu": 1}], "abc": [0.801044, 0.524876999999999, 0.602089], "properties": {"magmom": -0.004}, "label": "Al", "xyz": [3.05939213956, 1.369583985462994, 5.625493336988]}, {"species": [{"element": "Al", "occu": 1}], "abc": [0.774876999999999, 0.551044, 0.102089], "properties": {"magmom": -0.004}, "label": "Al", "xyz": [4.4289797354629945, 3.05939238956, 0.953847336988]}, {"species": [{"element": "Al", "occu": 1}], "abc": [0.448955999999999, 0.225123, 0.897911], "properties": {"magmom": -0.004}, "label": "Al", "xyz": [2.610439993944169e-06, -1.3695847354630002, 8.389444663012]}, {"species": [{"element": "Al", "occu": 1}], "abc": [0.448955999999999, 0.672787999999999, 0.897911], "properties": {"magmom": -0.004}, "label": "Al", "xyz": [2.610439993944169e-06, 1.369583837551994, 8.389444663012]}, {"species": [{"element": "Al", "occu": 1}], "abc": [0.327212, 0.551044, 0.102089], "properties": {"magmom": -0.004}, "label": "Al", "xyz": [1.689811162448, 3.05939238956, 0.953847336988]}, {"species": [{"element": "Al", "occu": 1}], "abc": [0.475122999999999, 0.198956, 0.397910999999999], "properties": {"magmom": -0.004}, "label": "Al", "xyz": [1.689811014536997, 2.860440002860898e-06, 3.717798663011991]}, {"species": [{"element": "Al", "occu": 1}], "abc": [0.922787999999999, 0.198956, 0.397910999999999], "properties": {"magmom": -0.004}, "label": "Al", "xyz": [4.428979587551996, 2.860440002860898e-06, 3.717798663011991]}, {"species": [{"element": "Al", "occu": 1}], "abc": [0.125, 0.375, 0.25], "properties": {"magmom": -0.003}, "label": "Al", "xyz": [-1.2500000001747225e-07, 1.5296976249999998, 2.335823]}, {"species": [{"element": "Al", "occu": 1}], "abc": [0.125, 0.875, 0.25], "properties": {"magmom": -0.003}, "label": "Al", "xyz": [-1.2500000001747225e-07, 4.589093125, 2.335823]}, {"species": [{"element": "Al", "occu": 1}], "abc": [0.125, 0.875, 0.75], "properties": {"magmom": -0.003}, "label": "Al", "xyz": [-1.5296981250000001, 3.0593951249999995, 7.007469]}, {"species": [{"element": "Al", "occu": 1}], "abc": [0.625, 0.875, 0.75], "properties": {"magmom": -0.003}, "label": "Al", "xyz": [1.529697375, 3.0593951249999995, 7.007469]}]}, "task_ids": null, "uncorrected_energy_per_atom": null, "energy_per_atom": -9.3525915115, "formation_energy_per_atom": -0.13822970816666602, "energy_above_hull": 0.32419611000000004, "is_stable": false, "equilibrium_reaction_energy_per_atom": null, "decomposes_to": null, "xas": null, "grain_boundaries": null, "band_gap": 0.0, "cbm": null, "vbm": null, "efermi": 6.47124543, "is_gap_direct": null, "is_metal": null, "es_source_calc_id": null, "bandstructure": null, "dos": null, "dos_energy_up": null, "dos_energy_down": null, "is_magnetic": null, "ordering": null, "total_magnetization": 1.493051299999999, "total_magnetization_normalized_vol": null, "total_magnetization_normalized_formula_units": null, "num_magnetic_sites": null, "num_unique_magnetic_sites": null, "types_of_magnetic_species": null, "bulk_modulus": null, "shear_modulus": null, "universal_anisotropy": null, "homogeneous_poisson": null, "e_total": null, "e_ionic": null, "e_electronic": null, "n": null, "e_ij_max": null, "weighted_surface_energy_EV_PER_ANG2": null, "weighted_surface_energy": null, "weighted_work_function": null, "surface_anisotropy": null, "shape_factor": null, "has_reconstructed": null, "possible_species": null, "has_props": null, "theoretical": null, "database_IDs": null, "fields_not_requested": ["builder_meta", "nsites", "elements", "nelements", "composition", "composition_reduced", "chemsys", "symmetry", "property_name", "deprecated", "deprecation_reasons", "last_updated", "origins", "warnings", "task_ids", "uncorrected_energy_per_atom", "equilibrium_reaction_energy_per_atom", "decomposes_to", "xas", "grain_boundaries", "cbm", "vbm", "is_gap_direct", "is_metal", "es_source_calc_id", "bandstructure", "dos", "dos_energy_up", "dos_energy_down", "is_magnetic", "ordering", "total_magnetization_normalized_vol", "total_magnetization_normalized_formula_units", "num_magnetic_sites", "num_unique_magnetic_sites", "types_of_magnetic_species", "bulk_modulus", "shear_modulus", "universal_anisotropy", "homogeneous_poisson", "e_total", "e_ionic", "e_electronic", "n", "e_ij_max", "weighted_surface_energy_EV_PER_ANG2", "weighted_surface_energy", "weighted_work_function", "surface_anisotropy", "shape_factor", "has_reconstructed", "possible_species", "has_props", "theoretical", "database_IDs"]}