{"builder_meta": null, "nsites": null, "elements": null, "nelements": null, "composition": null, "composition_reduced": null, "formula_pretty": "Ti2B", "formula_anonymous": "AB2", "chemsys": null, "volume": 75.81888053413137, "density": 4.6669677421906, "density_atomic": 12.636480089021894, "symmetry": null, "property_name": null, "material_id": "mp-1025149", "deprecated": null, "deprecation_reasons": null, "last_updated": null, "origins": null, "warnings": null, "structure": {"@module": "pymatgen.core.structure", "@class": "Structure", "charge": 0, "lattice": {"matrix": [[-2.829069, 2.829069, 2.368265], [2.829069, -2.829069, 2.368265], [2.829069, 2.829069, -2.368265]], "pbc": [true, true, true], "a": 4.649294777033072, "b": 4.649294777033072, "c": 4.649294777033072, "alpha": 105.03859051585981, "beta": 105.03859051585981, "gamma": 118.7547116744327, "volume": 75.81888053413137}, "properties": {}, "sites": [{"species": [{"element": "Ti", "occu": 1}], "abc": [0.6644, 0.16440000000000002, 0.8288000000000001], "properties": {"magmom": 0.001}, "label": "Ti", "xyz": [0.9301978872000003, 3.7592668872, -4.440892098500626e-16]}, {"species": [{"element": "Ti", "occu": 1}], "abc": [0.3356, 0.8356, 0.17120000000000002], "properties": {"magmom": 0.001}, "label": "Ti", "xyz": [1.8988711127999998, -0.9301978871999997, 2.368265]}, {"species": [{"element": "Ti", "occu": 1}], "abc": [0.8356, 0.6644, 0.5], "properties": {"magmom": -0.003}, "label": "Ti", "xyz": [0.9301978872000001, 1.8988711128, 2.368265]}, {"species": [{"element": "Ti", "occu": 1}], "abc": [0.16440000000000002, 0.3356, 0.5], "properties": {"magmom": -0.003}, "label": "Ti", "xyz": [1.8988711128, 0.9301978872000001, 0.0]}, {"species": [{"element": "B", "occu": 1}], "abc": [0.75, 0.75, 0.0], "properties": {"magmom": -0.0}, "label": "B", "xyz": [0.0, 0.0, 3.5523975]}, {"species": [{"element": "B", "occu": 1}], "abc": [0.25, 0.25, 0.0], "properties": {"magmom": -0.0}, "label": "B", "xyz": [0.0, 0.0, 1.1841325]}]}, "task_ids": null, "uncorrected_energy_per_atom": null, "energy_per_atom": -11.498664155555558, "formation_energy_per_atom": -0.42470808083333306, "energy_above_hull": 0.16030097638888702, "is_stable": false, "equilibrium_reaction_energy_per_atom": null, "decomposes_to": null, "xas": null, "grain_boundaries": null, "band_gap": 0.0, "cbm": null, "vbm": null, "efermi": 6.33038114, "is_gap_direct": null, "is_metal": null, "es_source_calc_id": null, "bandstructure": null, "dos": null, "dos_energy_up": null, "dos_energy_down": null, "is_magnetic": null, "ordering": null, "total_magnetization": 0.0057288, "total_magnetization_normalized_vol": null, "total_magnetization_normalized_formula_units": null, "num_magnetic_sites": null, "num_unique_magnetic_sites": null, "types_of_magnetic_species": null, "bulk_modulus": null, "shear_modulus": null, "universal_anisotropy": null, "homogeneous_poisson": null, "e_total": null, "e_ionic": null, "e_electronic": null, "n": null, "e_ij_max": null, "weighted_surface_energy_EV_PER_ANG2": null, "weighted_surface_energy": null, "weighted_work_function": null, "surface_anisotropy": null, "shape_factor": null, "has_reconstructed": null, "possible_species": null, "has_props": null, "theoretical": null, "database_IDs": null, "fields_not_requested": ["builder_meta", "nsites", "elements", "nelements", "composition", "composition_reduced", "chemsys", "symmetry", "property_name", "deprecated", "deprecation_reasons", "last_updated", "origins", "warnings", "task_ids", "uncorrected_energy_per_atom", "equilibrium_reaction_energy_per_atom", "decomposes_to", "xas", "grain_boundaries", "cbm", "vbm", "is_gap_direct", "is_metal", "es_source_calc_id", "bandstructure", "dos", "dos_energy_up", "dos_energy_down", "is_magnetic", "ordering", "total_magnetization_normalized_vol", "total_magnetization_normalized_formula_units", "num_magnetic_sites", "num_unique_magnetic_sites", "types_of_magnetic_species", "bulk_modulus", "shear_modulus", "universal_anisotropy", "homogeneous_poisson", "e_total", "e_ionic", "e_electronic", "n", "e_ij_max", "weighted_surface_energy_EV_PER_ANG2", "weighted_surface_energy", "weighted_work_function", "surface_anisotropy", "shape_factor", "has_reconstructed", "possible_species", "has_props", "theoretical", "database_IDs"]}