{
  "builder_meta": null,
  "nsites": null,
  "elements": null,
  "nelements": null,
  "composition": null,
  "composition_reduced": null,
  "formula_pretty": "Ti2Bi",
  "formula_anonymous": "AB2",
  "chemsys": null,
  "volume": 123.28784627095861,
  "density": 8.20827325093388,
  "density_atomic": 20.5479743784931,
  "symmetry": null,
  "property_name": null,
  "material_id": "mp-568069",
  "deprecated": null,
  "deprecation_reasons": null,
  "last_updated": null,
  "origins": null,
  "warnings": null,
  "structure": {
    "@module": "pymatgen.core.structure",
    "@class": "Structure",
    "charge": 0,
    "lattice": {
      "matrix": [
        [4.01951733, -0.0002836, -1.07914454],
        [-0.28976238, 4.00777405, -1.07886382],
        [-0.08750392, -0.09348096, 7.70371383]
      ],
      "pbc": [true, true, true],
      "a": 4.161859270183352,
      "b": 4.16054830699292,
      "c": 7.704777894295925,
      "alpha": 105.6743026082824,
      "beta": 105.6777089539053,
      "gamma": 90.0052661664136,
      "volume": 123.2878462709586
    },
    "properties": {},
    "sites": [
      {
        "species": [{ "element": "Ti", "occu": 1 }],
        "abc": [0.85346648, 0.85345625, 0.70729916],
        "properties": { "magmom": -0.015 },
        "label": "Ti",
        "xyz": [3.1213323435955163, 3.354098763982591, 3.6070535587964887]
      },
      {
        "species": [{ "element": "Ti", "occu": 1 }],
        "abc": [0.49996457, -3.074e-5, -5.597e-5],
        "properties": { "magmom": 0.002 },
        "label": "Ti",
        "xyz": [2.009630058390962, -0.00025975679701779994, -0.5399320484981861]
      },
      {
        "species": [{ "element": "Ti", "occu": 1 }],
        "abc": [-3.1e-5, 0.49996873000000003, -5.613e-5],
        "properties": { "magmom": 0.002 },
        "label": "Ti",
        "xyz": [-0.14499182257257778, 2.0037669577833417, -0.5397971299048865]
      },
      {
        "species": [{ "element": "Ti", "occu": 1 }],
        "abc": [0.14661593, 0.14662799, 0.292858],
        "properties": { "magmom": -0.015 },
        "label": "Ti",
        "xyz": [0.5212117731286907, 0.5602336260642315, 1.939682811079296]
      },
      {
        "species": [{ "element": "Bi", "occu": 1 }],
        "abc": [0.64839131, 0.64842131, 0.29642433],
        "properties": { "magmom": 0.001 },
        "label": "Bi",
        "xyz": [2.3923937142797116, 2.5708321849737326, 0.8843019771235321]
      },
      {
        "species": [{ "element": "Bi", "occu": 1 }],
        "abc": [0.35159271000000003, 0.35155646, 0.7035306],
        "properties": { "magmom": 0.001 },
        "label": "Bi",
        "xyz": [1.2498034690527375, 1.343092429927931, 4.661097514366617]
      }
    ]
  },
  "task_ids": null,
  "uncorrected_energy_per_atom": null,
  "energy_per_atom": -28.299665880000003,
  "formation_energy_per_atom": -0.173736622777781,
  "energy_above_hull": 0.0,
  "is_stable": true,
  "equilibrium_reaction_energy_per_atom": null,
  "decomposes_to": null,
  "xas": null,
  "grain_boundaries": null,
  "band_gap": 0.0,
  "cbm": null,
  "vbm": null,
  "efermi": 6.71532521,
  "is_gap_direct": null,
  "is_metal": null,
  "es_source_calc_id": null,
  "bandstructure": null,
  "dos": null,
  "dos_energy_up": null,
  "dos_energy_down": null,
  "is_magnetic": null,
  "ordering": null,
  "total_magnetization": 0.0323238,
  "total_magnetization_normalized_vol": null,
  "total_magnetization_normalized_formula_units": null,
  "num_magnetic_sites": null,
  "num_unique_magnetic_sites": null,
  "types_of_magnetic_species": null,
  "bulk_modulus": null,
  "shear_modulus": null,
  "universal_anisotropy": null,
  "homogeneous_poisson": null,
  "e_total": null,
  "e_ionic": null,
  "e_electronic": null,
  "n": null,
  "e_ij_max": null,
  "weighted_surface_energy_EV_PER_ANG2": null,
  "weighted_surface_energy": null,
  "weighted_work_function": null,
  "surface_anisotropy": null,
  "shape_factor": null,
  "has_reconstructed": null,
  "possible_species": null,
  "has_props": null,
  "theoretical": null,
  "database_IDs": null,
  "fields_not_requested": [
    "builder_meta",
    "nsites",
    "elements",
    "nelements",
    "composition",
    "composition_reduced",
    "chemsys",
    "symmetry",
    "property_name",
    "deprecated",
    "deprecation_reasons",
    "last_updated",
    "origins",
    "warnings",
    "task_ids",
    "uncorrected_energy_per_atom",
    "equilibrium_reaction_energy_per_atom",
    "decomposes_to",
    "xas",
    "grain_boundaries",
    "cbm",
    "vbm",
    "is_gap_direct",
    "is_metal",
    "es_source_calc_id",
    "bandstructure",
    "dos",
    "dos_energy_up",
    "dos_energy_down",
    "is_magnetic",
    "ordering",
    "total_magnetization_normalized_vol",
    "total_magnetization_normalized_formula_units",
    "num_magnetic_sites",
    "num_unique_magnetic_sites",
    "types_of_magnetic_species",
    "bulk_modulus",
    "shear_modulus",
    "universal_anisotropy",
    "homogeneous_poisson",
    "e_total",
    "e_ionic",
    "e_electronic",
    "n",
    "e_ij_max",
    "weighted_surface_energy_EV_PER_ANG2",
    "weighted_surface_energy",
    "weighted_work_function",
    "surface_anisotropy",
    "shape_factor",
    "has_reconstructed",
    "possible_species",
    "has_props",
    "theoretical",
    "database_IDs"
  ]
}
