{"builder_meta": null, "nsites": null, "elements": null, "nelements": null, "composition": null, "composition_reduced": null, "formula_pretty": "Ti2Cd", "formula_anonymous": "AB2", "chemsys": null, "volume": 54.63961265242577, "density": 6.325683643039373, "density_atomic": 18.213204217475255, "symmetry": null, "property_name": null, "material_id": "mp-30501", "deprecated": null, "deprecation_reasons": null, "last_updated": null, "origins": null, "warnings": null, "structure": {"@module": "pymatgen.core.structure", "@class": "Structure", "charge": 0, "lattice": {"matrix": [[2.78765308, -0.0, -0.58201296], [-0.12151466, 2.7850031, -0.58201297], [0.01357134, 0.0141756, 7.03197679]], "pbc": [true, true, true], "a": 2.847762065208652, "b": 2.8477617837264315, "c": 7.03200417406044, "alpha": 101.68235334922223, "beta": 101.68234550253543, "gamma": 90.00001147919569, "volume": 54.63961265242577}, "properties": {}, "sites": [{"species": [{"element": "Ti", "occu": 1}], "abc": [0.67738814, 0.67738814, 0.35477627], "properties": {"magmom": -0.0}, "label": "Ti", "xyz": [1.8108253346904406, 1.891557236296246, 1.706281136648303]}, {"species": [{"element": "Ti", "occu": 1}], "abc": [0.32261186000000003, 0.32261186000000003, 0.64522373], "properties": {"magmom": -0.0}, "label": "Ti", "xyz": [0.8688844253095596, 0.9076214637037541, 4.161669723351697]}, {"species": [{"element": "Cd", "occu": 1}], "abc": [-0.0, -0.0, 0.0], "properties": {"magmom": 0.0}, "label": "Cd", "xyz": [0.0, 0.0, 0.0]}]}, "task_ids": null, "uncorrected_energy_per_atom": null, "energy_per_atom": -15.404961929999999, "formation_energy_per_atom": -0.078128024444443, "energy_above_hull": 0.0, "is_stable": true, "equilibrium_reaction_energy_per_atom": null, "decomposes_to": null, "xas": null, "grain_boundaries": null, "band_gap": 0.0, "cbm": null, "vbm": null, "efermi": 4.7477069499999995, "is_gap_direct": null, "is_metal": null, "es_source_calc_id": null, "bandstructure": null, "dos": null, "dos_energy_up": null, "dos_energy_down": null, "is_magnetic": null, "ordering": null, "total_magnetization": 2e-07, "total_magnetization_normalized_vol": null, "total_magnetization_normalized_formula_units": null, "num_magnetic_sites": null, "num_unique_magnetic_sites": null, "types_of_magnetic_species": null, "bulk_modulus": null, "shear_modulus": null, "universal_anisotropy": null, "homogeneous_poisson": null, "e_total": null, "e_ionic": null, "e_electronic": null, "n": null, "e_ij_max": null, "weighted_surface_energy_EV_PER_ANG2": null, "weighted_surface_energy": null, "weighted_work_function": null, "surface_anisotropy": null, "shape_factor": null, "has_reconstructed": null, "possible_species": null, "has_props": null, "theoretical": null, "database_IDs": null, "fields_not_requested": ["builder_meta", "nsites", "elements", "nelements", "composition", "composition_reduced", "chemsys", "symmetry", "property_name", "deprecated", "deprecation_reasons", "last_updated", "origins", "warnings", "task_ids", "uncorrected_energy_per_atom", "equilibrium_reaction_energy_per_atom", "decomposes_to", "xas", "grain_boundaries", "cbm", "vbm", "is_gap_direct", "is_metal", "es_source_calc_id", "bandstructure", "dos", "dos_energy_up", "dos_energy_down", "is_magnetic", "ordering", "total_magnetization_normalized_vol", "total_magnetization_normalized_formula_units", "num_magnetic_sites", "num_unique_magnetic_sites", "types_of_magnetic_species", "bulk_modulus", "shear_modulus", "universal_anisotropy", "homogeneous_poisson", "e_total", "e_ionic", "e_electronic", "n", "e_ij_max", "weighted_surface_energy_EV_PER_ANG2", "weighted_surface_energy", "weighted_work_function", "surface_anisotropy", "shape_factor", "has_reconstructed", "possible_species", "has_props", "theoretical", "database_IDs"]}