{
  "builder_meta": null,
  "nsites": null,
  "elements": null,
  "nelements": null,
  "composition": null,
  "composition_reduced": null,
  "formula_pretty": "Ti2Cu3",
  "formula_anonymous": "A2B3",
  "chemsys": null,
  "volume": 135.54038375402078,
  "density": 7.01682967702633,
  "density_atomic": 13.554038375402078,
  "symmetry": null,
  "property_name": null,
  "material_id": "mp-622570",
  "deprecated": null,
  "deprecation_reasons": null,
  "last_updated": null,
  "origins": null,
  "warnings": null,
  "structure": {
    "@module": "pymatgen.core.structure",
    "@class": "Structure",
    "charge": 0,
    "lattice": {
      "matrix": [
        [3.11958153, 3.609999999999999e-6, 2.09e-6],
        [8.63e-6, 3.119597, -3.969999999999997e-6],
        [2.8730000000000004e-5, -2.818e-5, 13.92752275]
      ],
      "pbc": [true, true, true],
      "a": 3.119581530002789,
      "b": 3.1195970000144633,
      "c": 13.927522750058142,
      "alpha": 90.00018884267183,
      "beta": 89.99984342316586,
      "gamma": 89.99977519493237,
      "volume": 135.54038375402078
    },
    "properties": {},
    "sites": [
      {
        "species": [{ "element": "Ti", "occu": 1 }],
        "abc": [0.250008299999999, 0.24999996, 0.43923634],
        "properties": { "magmom": -0.021 },
        "label": "Ti",
        "xyz": [0.779936051786399, 0.7798876500660218, 6.117473647994241]
      },
      {
        "species": [{ "element": "Ti", "occu": 1 }],
        "abc": [0.249992699999999, 0.25000186, 0.85442809],
        "properties": { "magmom": 0.373 },
        "label": "Ti",
        "xyz": [0.7798993147899055, 0.779881877140491, 11.900066191691405]
      },
      {
        "species": [{ "element": "Ti", "occu": 1 }],
        "abc": [0.75000792, 0.7499982900000001, 0.5610038900000001],
        "properties": { "magmom": -0.022 },
        "label": "Ti",
        "xyz": [2.3397334447127207, 2.3396793139281016, 7.81339303083684]
      },
      {
        "species": [{ "element": "Ti", "occu": 1 }],
        "abc": [0.7499961900000001, 0.75000005, 0.1454416],
        "properties": { "magmom": 0.375 },
        "label": "Ti",
        "xyz": [2.3396849129319706, 2.3396965149218083, 2.0256397827882386]
      },
      {
        "species": [{ "element": "Cu", "occu": 1 }],
        "abc": [0.25000113, 0.24999523, 0.0439908],
        "properties": { "magmom": 0.012 },
        "label": "Cu",
        "xyz": [0.7799023289416479, 0.7798840323656454, 0.6126823978119985]
      },
      {
        "species": [{ "element": "Cu", "occu": 1 }],
        "abc": [0.24999915, 0.24999966, 0.24452782],
        "properties": { "magmom": 0.031 },
        "label": "Cu",
        "xyz": [0.7799019136370339, 0.7798922010399839, 3.4056663060574786]
      },
      {
        "species": [{ "element": "Cu", "occu": 1 }],
        "abc": [0.2500051, 0.24999902000000002, 0.66454977],
        "properties": { "magmom": -0.006 },
        "label": "Cu",
        "xyz": [0.7799325423722376, 0.7798783683008325, 9.255531570196817]
      },
      {
        "species": [{ "element": "Cu", "occu": 1 }],
        "abc": [0.74999688, 0.75000254, 0.75552257],
        "properties": { "magmom": 0.031 },
        "label": "Cu",
        "xyz": [2.3397045930909828, 2.339687090639094, 10.522556371796863]
      },
      {
        "species": [{ "element": "Cu", "occu": 1 }],
        "abc": [0.74998887, 0.7500042, 0.95579241],
        "properties": { "magmom": 0.012 },
        "label": "Cu",
        "xyz": [2.339685359009757, 2.339686625537107, 13.311819124512391]
      },
      {
        "species": [{ "element": "Cu", "occu": 1 }],
        "abc": [0.75000176, 0.75000118, 0.33550672],
        "properties": { "magmom": -0.006 },
        "label": "Cu",
        "xyz": [2.3397077495817418, 2.3396946840514445, 4.672776065576873]
      }
    ]
  },
  "task_ids": null,
  "uncorrected_energy_per_atom": null,
  "energy_per_atom": -11.810748683,
  "formation_energy_per_atom": -0.127568277666665,
  "energy_above_hull": 0.0024576344999980002,
  "is_stable": false,
  "equilibrium_reaction_energy_per_atom": null,
  "decomposes_to": null,
  "xas": null,
  "grain_boundaries": null,
  "band_gap": 0.0,
  "cbm": null,
  "vbm": null,
  "efermi": 6.68951006,
  "is_gap_direct": null,
  "is_metal": null,
  "es_source_calc_id": null,
  "bandstructure": null,
  "dos": null,
  "dos_energy_up": null,
  "dos_energy_down": null,
  "is_magnetic": null,
  "ordering": null,
  "total_magnetization": 0.8636111,
  "total_magnetization_normalized_vol": null,
  "total_magnetization_normalized_formula_units": null,
  "num_magnetic_sites": null,
  "num_unique_magnetic_sites": null,
  "types_of_magnetic_species": null,
  "bulk_modulus": null,
  "shear_modulus": null,
  "universal_anisotropy": null,
  "homogeneous_poisson": null,
  "e_total": null,
  "e_ionic": null,
  "e_electronic": null,
  "n": null,
  "e_ij_max": null,
  "weighted_surface_energy_EV_PER_ANG2": null,
  "weighted_surface_energy": null,
  "weighted_work_function": null,
  "surface_anisotropy": null,
  "shape_factor": null,
  "has_reconstructed": null,
  "possible_species": null,
  "has_props": null,
  "theoretical": null,
  "database_IDs": null,
  "fields_not_requested": [
    "builder_meta",
    "nsites",
    "elements",
    "nelements",
    "composition",
    "composition_reduced",
    "chemsys",
    "symmetry",
    "property_name",
    "deprecated",
    "deprecation_reasons",
    "last_updated",
    "origins",
    "warnings",
    "task_ids",
    "uncorrected_energy_per_atom",
    "equilibrium_reaction_energy_per_atom",
    "decomposes_to",
    "xas",
    "grain_boundaries",
    "cbm",
    "vbm",
    "is_gap_direct",
    "is_metal",
    "es_source_calc_id",
    "bandstructure",
    "dos",
    "dos_energy_up",
    "dos_energy_down",
    "is_magnetic",
    "ordering",
    "total_magnetization_normalized_vol",
    "total_magnetization_normalized_formula_units",
    "num_magnetic_sites",
    "num_unique_magnetic_sites",
    "types_of_magnetic_species",
    "bulk_modulus",
    "shear_modulus",
    "universal_anisotropy",
    "homogeneous_poisson",
    "e_total",
    "e_ionic",
    "e_electronic",
    "n",
    "e_ij_max",
    "weighted_surface_energy_EV_PER_ANG2",
    "weighted_surface_energy",
    "weighted_work_function",
    "surface_anisotropy",
    "shape_factor",
    "has_reconstructed",
    "possible_species",
    "has_props",
    "theoretical",
    "database_IDs"
  ]
}
