{
  "builder_meta": null,
  "nsites": null,
  "elements": null,
  "nelements": null,
  "composition": null,
  "composition_reduced": null,
  "formula_pretty": "Ti2C",
  "formula_anonymous": "AB2",
  "chemsys": null,
  "volume": 160.40451985832723,
  "density": 4.4615771108474505,
  "density_atomic": 13.36704332152727,
  "symmetry": null,
  "property_name": null,
  "material_id": "mp-10721",
  "deprecated": null,
  "deprecation_reasons": null,
  "last_updated": null,
  "origins": null,
  "warnings": null,
  "structure": {
    "@module": "pymatgen.core.structure",
    "@class": "Structure",
    "charge": 0,
    "lattice": {
      "matrix": [
        [5.28171021, 0.0, 3.04939736],
        [1.76056974, 4.9796433, 3.04939736],
        [1e-8, 1e-8, 6.09879167]
      ],
      "pbc": [true, true, true],
      "a": 6.098793897287661,
      "b": 6.0987931153477835,
      "c": 6.09879167,
      "alpha": 59.99999117650899,
      "beta": 59.99999544367883,
      "gamma": 59.999995884077194,
      "volume": 160.40451985832723
    },
    "properties": {},
    "sites": [
      {
        "species": [{ "element": "Ti", "occu": 1 }],
        "abc": [0.76818914, 0.24393629, 0.24393629],
        "properties": { "magmom": -0.0 },
        "label": "Ti",
        "xyz": [4.486819277050346, 1.21471571456472, 4.57408922769357]
      },
      {
        "species": [{ "element": "Ti", "occu": 1 }],
        "abc": [0.24393629, 0.76818914, 0.24393629],
        "properties": { "magmom": -0.0 },
        "label": "Ti",
        "xyz": [2.6408513504025075, 3.8253079065731255, 4.57408922769357]
      },
      {
        "species": [{ "element": "Ti", "occu": 1 }],
        "abc": [0.24393629, 0.24393629, 0.76818914],
        "properties": { "magmom": -0.0 },
        "label": "Ti",
        "xyz": [1.7178676518262768, 1.2147157198072485, 6.172742885484853]
      },
      {
        "species": [{ "element": "Ti", "occu": 1 }],
        "abc": [0.75606371, 0.75606371, 0.75606371],
        "properties": { "magmom": -0.0 },
        "label": "Ti",
        "xyz": [5.324412313416253, 3.7649275954352803, 9.222152419068909]
      },
      {
        "species": [{ "element": "Ti", "occu": 1 }],
        "abc": [0.75606371, 0.23181086, 0.75606371],
        "properties": { "magmom": -0.0 },
        "label": "Ti",
        "xyz": [4.401428609597493, 1.1543354034268751, 7.623497162306432]
      },
      {
        "species": [{ "element": "Ti", "occu": 1 }],
        "abc": [0.23181086, 0.75606371, 0.75606371],
        "properties": { "magmom": -0.0 },
        "label": "Ti",
        "xyz": [2.555460682949653, 3.7649275954352803, 7.623497162306432]
      },
      {
        "species": [{ "element": "Ti", "occu": 1 }],
        "abc": [0.75606371, 0.75606371, 0.23181086],
        "properties": { "magmom": -0.0 },
        "label": "Ti",
        "xyz": [5.324412308173724, 3.764927590192752, 6.024843504515148]
      },
      {
        "species": [{ "element": "Ti", "occu": 1 }],
        "abc": [0.24393629, 0.24393629, 0.24393629],
        "properties": { "magmom": -0.0 },
        "label": "Ti",
        "xyz": [1.7178676465837484, 1.21471571456472, 2.975433970931093]
      },
      {
        "species": [{ "element": "C", "occu": 1 }],
        "abc": [0.0, 0.5, -0.0],
        "properties": { "magmom": 0.0 },
        "label": "C",
        "xyz": [0.88028487, 2.48982165, 1.52469868]
      },
      {
        "species": [{ "element": "C", "occu": 1 }],
        "abc": [0.5, 0.0, -0.0],
        "properties": { "magmom": 0.0 },
        "label": "C",
        "xyz": [2.640855105, 0.0, 1.52469868]
      },
      {
        "species": [{ "element": "C", "occu": 1 }],
        "abc": [0.0, 0.0, 0.5],
        "properties": { "magmom": 0.0 },
        "label": "C",
        "xyz": [5e-9, 5e-9, 3.049395835]
      },
      {
        "species": [{ "element": "C", "occu": 1 }],
        "abc": [0.0, 0.0, -0.0],
        "properties": { "magmom": 0.0 },
        "label": "C",
        "xyz": [0.0, 0.0, 0.0]
      }
    ]
  },
  "task_ids": null,
  "uncorrected_energy_per_atom": null,
  "energy_per_atom": -8.983064144166667,
  "formation_energy_per_atom": -0.6431809688888891,
  "energy_above_hull": 0.0,
  "is_stable": true,
  "equilibrium_reaction_energy_per_atom": null,
  "decomposes_to": null,
  "xas": null,
  "grain_boundaries": null,
  "band_gap": 0.0,
  "cbm": null,
  "vbm": null,
  "efermi": 6.03744955,
  "is_gap_direct": null,
  "is_metal": null,
  "es_source_calc_id": null,
  "bandstructure": null,
  "dos": null,
  "dos_energy_up": null,
  "dos_energy_down": null,
  "is_magnetic": null,
  "ordering": null,
  "total_magnetization": 4e-7,
  "total_magnetization_normalized_vol": null,
  "total_magnetization_normalized_formula_units": null,
  "num_magnetic_sites": null,
  "num_unique_magnetic_sites": null,
  "types_of_magnetic_species": null,
  "bulk_modulus": null,
  "shear_modulus": null,
  "universal_anisotropy": null,
  "homogeneous_poisson": null,
  "e_total": null,
  "e_ionic": null,
  "e_electronic": null,
  "n": null,
  "e_ij_max": null,
  "weighted_surface_energy_EV_PER_ANG2": null,
  "weighted_surface_energy": null,
  "weighted_work_function": null,
  "surface_anisotropy": null,
  "shape_factor": null,
  "has_reconstructed": null,
  "possible_species": null,
  "has_props": null,
  "theoretical": null,
  "database_IDs": null,
  "fields_not_requested": [
    "builder_meta",
    "nsites",
    "elements",
    "nelements",
    "composition",
    "composition_reduced",
    "chemsys",
    "symmetry",
    "property_name",
    "deprecated",
    "deprecation_reasons",
    "last_updated",
    "origins",
    "warnings",
    "task_ids",
    "uncorrected_energy_per_atom",
    "equilibrium_reaction_energy_per_atom",
    "decomposes_to",
    "xas",
    "grain_boundaries",
    "cbm",
    "vbm",
    "is_gap_direct",
    "is_metal",
    "es_source_calc_id",
    "bandstructure",
    "dos",
    "dos_energy_up",
    "dos_energy_down",
    "is_magnetic",
    "ordering",
    "total_magnetization_normalized_vol",
    "total_magnetization_normalized_formula_units",
    "num_magnetic_sites",
    "num_unique_magnetic_sites",
    "types_of_magnetic_species",
    "bulk_modulus",
    "shear_modulus",
    "universal_anisotropy",
    "homogeneous_poisson",
    "e_total",
    "e_ionic",
    "e_electronic",
    "n",
    "e_ij_max",
    "weighted_surface_energy_EV_PER_ANG2",
    "weighted_surface_energy",
    "weighted_work_function",
    "surface_anisotropy",
    "shape_factor",
    "has_reconstructed",
    "possible_species",
    "has_props",
    "theoretical",
    "database_IDs"
  ]
}
