{"builder_meta": null, "nsites": null, "elements": null, "nelements": null, "composition": null, "composition_reduced": null, "formula_pretty": "Ti2Co", "formula_anonymous": "AB2", "chemsys": null, "volume": 348.0591112407525, "density": 5.903156362225845, "density_atomic": 14.502462968364688, "symmetry": null, "property_name": null, "material_id": "mp-1191331", "deprecated": null, "deprecation_reasons": null, "last_updated": null, "origins": null, "warnings": null, "structure": {"@module": "pymatgen.core.structure", "@class": "Structure", "charge": 0, "lattice": {"matrix": [[-5.58308625, -5.58308625, -0.0], [-5.58308625, 0.0, -5.58308625], [-0.0, -5.58308625, -5.58308625]], "pbc": [true, true, true], "a": 7.895676294648744, "b": 7.895676294648744, "c": 7.895676294648744, "alpha": 59.99999999999999, "beta": 59.99999999999999, "gamma": 59.99999999999999, "volume": 348.0591112407525}, "properties": {}, "sites": [{"species": [{"element": "Ti", "occu": 1}], "abc": [0.5, 0.5, 0.0], "properties": {"magmom": -0.0}, "label": "Ti", "xyz": [-5.58308625, -2.791543125, -2.791543125]}, {"species": [{"element": "Ti", "occu": 1}], "abc": [0.5, -0.0, 0.5], "properties": {"magmom": -0.0}, "label": "Ti", "xyz": [-2.791543125, -5.58308625, -2.791543125]}, {"species": [{"element": "Ti", "occu": 1}], "abc": [-0.0, 0.5, 0.5], "properties": {"magmom": -0.0}, "label": "Ti", "xyz": [-2.791543125, -2.791543125, -5.58308625]}, {"species": [{"element": "Ti", "occu": 1}], "abc": [0.5, 0.5, 0.5], "properties": {"magmom": -0.0}, "label": "Ti", "xyz": [-5.58308625, -5.58308625, -5.58308625]}, {"species": [{"element": "Ti", "occu": 1}], "abc": [0.93829921, 0.31170079, 0.31170079], "properties": {"magmom": -0.0}, "label": "Ti", "xyz": [-6.9788578125, -6.9788578125, -3.4805047895262753]}, {"species": [{"element": "Ti", "occu": 1}], "abc": [0.31170079, 0.93829921, 0.93829921], "properties": {"magmom": -0.0}, "label": "Ti", "xyz": [-6.9788578125, -6.9788578125, -10.477210835473725]}, {"species": [{"element": "Ti", "occu": 1}], "abc": [0.31170079, 0.93829921, 0.31170079], "properties": {"magmom": -0.0}, "label": "Ti", "xyz": [-6.9788578125, -3.4805047895262753, -6.9788578125]}, {"species": [{"element": "Ti", "occu": 1}], "abc": [0.93829921, 0.31170079, 0.93829921], "properties": {"magmom": -0.0}, "label": "Ti", "xyz": [-6.9788578125, -10.477210835473725, -6.9788578125]}, {"species": [{"element": "Ti", "occu": 1}], "abc": [0.31170079, 0.31170079, 0.93829921], "properties": {"magmom": -0.0}, "label": "Ti", "xyz": [-3.4805047895262753, -6.9788578125, -6.9788578125]}, {"species": [{"element": "Ti", "occu": 1}], "abc": [0.93829921, 0.93829921, 0.31170079], "properties": {"magmom": -0.0}, "label": "Ti", "xyz": [-10.477210835473725, -6.9788578125, -6.9788578125]}, {"species": [{"element": "Ti", "occu": 1}], "abc": [0.06170079, 0.68829921, 0.68829921], "properties": {"magmom": -0.0}, "label": "Ti", "xyz": [-4.187314687500001, -4.187314687500001, -7.685667710473726]}, {"species": [{"element": "Ti", "occu": 1}], "abc": [0.68829921, 0.06170079, 0.06170079], "properties": {"magmom": -0.0}, "label": "Ti", "xyz": [-4.187314687500001, -4.187314687500001, -0.6889616645262749]}, {"species": [{"element": "Ti", "occu": 1}], "abc": [0.68829921, 0.06170079, 0.68829921], "properties": {"magmom": -0.0}, "label": "Ti", "xyz": [-4.187314687500001, -7.685667710473726, -4.187314687500001]}, {"species": [{"element": "Ti", "occu": 1}], "abc": [0.06170079, 0.68829921, 0.06170079], "properties": {"magmom": -0.0}, "label": "Ti", "xyz": [-4.187314687500001, -0.6889616645262749, -4.187314687500001]}, {"species": [{"element": "Ti", "occu": 1}], "abc": [0.68829921, 0.68829921, 0.06170079], "properties": {"magmom": -0.0}, "label": "Ti", "xyz": [-7.685667710473726, -4.187314687500001, -4.187314687500001]}, {"species": [{"element": "Ti", "occu": 1}], "abc": [0.06170079, 0.06170079, 0.68829921], "properties": {"magmom": -0.0}, "label": "Ti", "xyz": [-0.6889616645262749, -4.187314687500001, -4.187314687500001]}, {"species": [{"element": "Co", "occu": 1}], "abc": [0.28243594, 0.28243594, 0.65269318], "properties": {"magmom": 0.0}, "label": "Co", "xyz": [-3.15372842623965, -5.2209065318466, -5.2209065318466]}, {"species": [{"element": "Co", "occu": 1}], "abc": [0.28243594, 0.65269318, 0.28243594], "properties": {"magmom": 0.0}, "label": "Co", "xyz": [-5.2209065318466, -3.15372842623965, -5.2209065318466]}, {"species": [{"element": "Co", "occu": 1}], "abc": [0.65269318, 0.28243594, 0.28243594], "properties": {"magmom": 0.0}, "label": "Co", "xyz": [-5.2209065318466, -5.2209065318466, -3.15372842623965]}, {"species": [{"element": "Co", "occu": 1}], "abc": [0.28243594, 0.28243594, 0.28243594], "properties": {"magmom": 0.0}, "label": "Co", "xyz": [-3.15372842623965, -3.15372842623965, -3.15372842623965]}, {"species": [{"element": "Co", "occu": 1}], "abc": [0.7175640600000001, 0.7175640600000001, 0.34730682], "properties": {"magmom": 0.0}, "label": "Co", "xyz": [-8.012444073760351, -5.9452659681534, -5.9452659681534]}, {"species": [{"element": "Co", "occu": 1}], "abc": [0.7175640600000001, 0.34730682, 0.7175640600000001], "properties": {"magmom": 0.0}, "label": "Co", "xyz": [-5.9452659681534, -8.012444073760351, -5.9452659681534]}, {"species": [{"element": "Co", "occu": 1}], "abc": [0.34730682, 0.7175640600000001, 0.7175640600000001], "properties": {"magmom": 0.0}, "label": "Co", "xyz": [-5.9452659681534, -5.9452659681534, -8.012444073760351]}, {"species": [{"element": "Co", "occu": 1}], "abc": [0.7175640600000001, 0.7175640600000001, 0.7175640600000001], "properties": {"magmom": 0.0}, "label": "Co", "xyz": [-8.012444073760351, -8.012444073760351, -8.012444073760351]}]}, "task_ids": null, "uncorrected_energy_per_atom": null, "energy_per_atom": -13.241182691250001, "formation_energy_per_atom": -0.20460097236111102, "energy_above_hull": 0.066803023194443, "is_stable": false, "equilibrium_reaction_energy_per_atom": null, "decomposes_to": null, "xas": null, "grain_boundaries": null, "band_gap": 0.0, "cbm": null, "vbm": null, "efermi": 5.99508557, "is_gap_direct": null, "is_metal": null, "es_source_calc_id": null, "bandstructure": null, "dos": null, "dos_energy_up": null, "dos_energy_down": null, "is_magnetic": null, "ordering": null, "total_magnetization": 2.4e-06, "total_magnetization_normalized_vol": null, "total_magnetization_normalized_formula_units": null, "num_magnetic_sites": null, "num_unique_magnetic_sites": null, "types_of_magnetic_species": null, "bulk_modulus": null, "shear_modulus": null, "universal_anisotropy": null, "homogeneous_poisson": null, "e_total": null, "e_ionic": null, "e_electronic": null, "n": null, "e_ij_max": null, "weighted_surface_energy_EV_PER_ANG2": null, "weighted_surface_energy": null, "weighted_work_function": null, "surface_anisotropy": null, "shape_factor": null, "has_reconstructed": null, "possible_species": null, "has_props": null, "theoretical": null, "database_IDs": null, "fields_not_requested": ["builder_meta", "nsites", "elements", "nelements", "composition", "composition_reduced", "chemsys", "symmetry", "property_name", "deprecated", "deprecation_reasons", "last_updated", "origins", "warnings", "task_ids", "uncorrected_energy_per_atom", "equilibrium_reaction_energy_per_atom", "decomposes_to", "xas", "grain_boundaries", "cbm", "vbm", "is_gap_direct", "is_metal", "es_source_calc_id", "bandstructure", "dos", "dos_energy_up", "dos_energy_down", "is_magnetic", "ordering", "total_magnetization_normalized_vol", "total_magnetization_normalized_formula_units", "num_magnetic_sites", "num_unique_magnetic_sites", "types_of_magnetic_species", "bulk_modulus", "shear_modulus", "universal_anisotropy", "homogeneous_poisson", "e_total", "e_ionic", "e_electronic", "n", "e_ij_max", "weighted_surface_energy_EV_PER_ANG2", "weighted_surface_energy", "weighted_work_function", "surface_anisotropy", "shape_factor", "has_reconstructed", "possible_species", "has_props", "theoretical", "database_IDs"]}