{
  "builder_meta": null,
  "nsites": null,
  "elements": null,
  "nelements": null,
  "composition": null,
  "composition_reduced": null,
  "formula_pretty": "Ti2Fe",
  "formula_anonymous": "AB2",
  "chemsys": null,
  "volume": 353.1662496015885,
  "density": 5.701628656987709,
  "density_atomic": 14.715260400066187,
  "symmetry": null,
  "property_name": null,
  "material_id": "mp-1192216",
  "deprecated": null,
  "deprecation_reasons": null,
  "last_updated": null,
  "origins": null,
  "warnings": null,
  "structure": {
    "@module": "pymatgen.core.structure",
    "@class": "Structure",
    "charge": 0,
    "lattice": {
      "matrix": [
        [0.0, 5.6102609999999995, 5.6102609999999995],
        [5.6102609999999995, 0.0, 5.6102609999999995],
        [5.6102609999999995, 5.6102609999999995, 0.0]
      ],
      "pbc": [true, true, true],
      "a": 7.934107194652842,
      "b": 7.934107194652842,
      "c": 7.934107194652842,
      "alpha": 60.00000000000001,
      "beta": 60.00000000000001,
      "gamma": 60.00000000000001,
      "volume": 353.16624960158833
    },
    "properties": {},
    "sites": [
      {
        "species": [{ "element": "Ti", "occu": 1 }],
        "abc": [0.125, 0.625, 0.625],
        "properties": { "magmom": -0.009000000000000001 },
        "label": "Ti",
        "xyz": [7.01282625, 4.20769575, 4.20769575]
      },
      {
        "species": [{ "element": "Ti", "occu": 1 }],
        "abc": [0.625, 0.125, 0.625],
        "properties": { "magmom": -0.009000000000000001 },
        "label": "Ti",
        "xyz": [4.20769575, 7.01282625, 4.20769575]
      },
      {
        "species": [{ "element": "Ti", "occu": 1 }],
        "abc": [0.625, 0.625, 0.125],
        "properties": { "magmom": -0.009000000000000001 },
        "label": "Ti",
        "xyz": [4.20769575, 4.20769575, 7.01282625]
      },
      {
        "species": [{ "element": "Ti", "occu": 1 }],
        "abc": [0.625, 0.625, 0.625],
        "properties": { "magmom": -0.009000000000000001 },
        "label": "Ti",
        "xyz": [7.01282625, 7.01282625, 7.01282625]
      },
      {
        "species": [{ "element": "Ti", "occu": 1 }],
        "abc": [0.810252, 0.810252, 0.189748],
        "properties": { "magmom": -0.007 },
        "label": "Ti",
        "xyz": [5.6102609999999995, 5.6102609999999995, 9.091450391543999]
      },
      {
        "species": [{ "element": "Ti", "occu": 1 }],
        "abc": [0.189748, 0.189748, 0.810252],
        "properties": { "magmom": -0.007 },
        "label": "Ti",
        "xyz": [5.6102609999999995, 5.6102609999999995, 2.129071608456]
      },
      {
        "species": [{ "element": "Ti", "occu": 1 }],
        "abc": [0.810252, 0.189748, 0.810252],
        "properties": { "magmom": -0.008 },
        "label": "Ti",
        "xyz": [5.6102609999999995, 9.091450391543999, 5.6102609999999995]
      },
      {
        "species": [{ "element": "Ti", "occu": 1 }],
        "abc": [0.189748, 0.810252, 0.189748],
        "properties": { "magmom": -0.008 },
        "label": "Ti",
        "xyz": [5.6102609999999995, 2.129071608456, 5.6102609999999995]
      },
      {
        "species": [{ "element": "Ti", "occu": 1 }],
        "abc": [0.189748, 0.810252, 0.810252],
        "properties": { "magmom": -0.007 },
        "label": "Ti",
        "xyz": [9.091450391543999, 5.6102609999999995, 5.6102609999999995]
      },
      {
        "species": [{ "element": "Ti", "occu": 1 }],
        "abc": [0.810252, 0.189748, 0.189748],
        "properties": { "magmom": -0.007 },
        "label": "Ti",
        "xyz": [2.129071608456, 5.6102609999999995, 5.6102609999999995]
      },
      {
        "species": [{ "element": "Ti", "occu": 1 }],
        "abc": [0.43974799999999903, 0.43974799999999903, 0.060252],
        "properties": { "magmom": -0.007 },
        "label": "Ti",
        "xyz": [2.8051304999999944, 2.8051304999999944, 4.934202108455989]
      },
      {
        "species": [{ "element": "Ti", "occu": 1 }],
        "abc": [0.060252, 0.060252, 0.43974799999999903],
        "properties": { "magmom": -0.007 },
        "label": "Ti",
        "xyz": [2.8051304999999944, 2.8051304999999944, 0.6760588915439999]
      },
      {
        "species": [{ "element": "Ti", "occu": 1 }],
        "abc": [0.43974799999999903, 0.060252, 0.43974799999999903],
        "properties": { "magmom": -0.008 },
        "label": "Ti",
        "xyz": [2.8051304999999944, 4.934202108455989, 2.8051304999999944]
      },
      {
        "species": [{ "element": "Ti", "occu": 1 }],
        "abc": [0.060252, 0.43974799999999903, 0.060252],
        "properties": { "magmom": -0.007 },
        "label": "Ti",
        "xyz": [2.8051304999999944, 0.6760588915439999, 2.8051304999999944]
      },
      {
        "species": [{ "element": "Ti", "occu": 1 }],
        "abc": [0.060252, 0.43974799999999903, 0.43974799999999903],
        "properties": { "magmom": -0.007 },
        "label": "Ti",
        "xyz": [4.934202108455989, 2.8051304999999944, 2.8051304999999944]
      },
      {
        "species": [{ "element": "Ti", "occu": 1 }],
        "abc": [0.43974799999999903, 0.060252, 0.060252],
        "properties": { "magmom": -0.007 },
        "label": "Ti",
        "xyz": [0.6760588915439999, 2.8051304999999944, 2.8051304999999944]
      },
      {
        "species": [{ "element": "Fe", "occu": 1 }],
        "abc": [0.763942, 0.412018999999999, 0.412018999999999],
        "properties": { "magmom": 0.024 },
        "label": "Fe",
        "xyz": [4.623068253917989, 6.597448135820994, 6.597448135820994]
      },
      {
        "species": [{ "element": "Fe", "occu": 1 }],
        "abc": [0.412018999999999, 0.763942, 0.412018999999999],
        "properties": { "magmom": 0.023 },
        "label": "Fe",
        "xyz": [6.597448135820994, 4.623068253917989, 6.597448135820994]
      },
      {
        "species": [{ "element": "Fe", "occu": 1 }],
        "abc": [0.412018999999999, 0.412018999999999, 0.763942],
        "properties": { "magmom": 0.024 },
        "label": "Fe",
        "xyz": [6.597448135820994, 6.597448135820994, 4.623068253917989]
      },
      {
        "species": [{ "element": "Fe", "occu": 1 }],
        "abc": [0.412018999999999, 0.412018999999999, 0.412018999999999],
        "properties": { "magmom": 0.025 },
        "label": "Fe",
        "xyz": [4.623068253917989, 4.623068253917989, 4.623068253917989]
      },
      {
        "species": [{ "element": "Fe", "occu": 1 }],
        "abc": [0.486058, 0.837981, 0.837981],
        "properties": { "magmom": 0.026000000000000002 },
        "label": "Fe",
        "xyz": [9.402584246081998, 7.428204364178999, 7.428204364178999]
      },
      {
        "species": [{ "element": "Fe", "occu": 1 }],
        "abc": [0.837981, 0.486058, 0.837981],
        "properties": { "magmom": 0.024 },
        "label": "Fe",
        "xyz": [7.428204364178999, 9.402584246081998, 7.428204364178999]
      },
      {
        "species": [{ "element": "Fe", "occu": 1 }],
        "abc": [0.837981, 0.837981, 0.486058],
        "properties": { "magmom": 0.026000000000000002 },
        "label": "Fe",
        "xyz": [7.428204364178999, 7.428204364178999, 9.402584246081998]
      },
      {
        "species": [{ "element": "Fe", "occu": 1 }],
        "abc": [0.837981, 0.837981, 0.837981],
        "properties": { "magmom": 0.026000000000000002 },
        "label": "Fe",
        "xyz": [9.402584246081998, 9.402584246081998, 9.402584246081998]
      }
    ]
  },
  "task_ids": null,
  "uncorrected_energy_per_atom": null,
  "energy_per_atom": -8.301872007083334,
  "formation_energy_per_atom": -0.214870259305556,
  "energy_above_hull": 0.06568317513888601,
  "is_stable": false,
  "equilibrium_reaction_energy_per_atom": null,
  "decomposes_to": null,
  "xas": null,
  "grain_boundaries": null,
  "band_gap": 0.0,
  "cbm": null,
  "vbm": null,
  "efermi": 6.02600552,
  "is_gap_direct": null,
  "is_metal": null,
  "es_source_calc_id": null,
  "bandstructure": null,
  "dos": null,
  "dos_energy_up": null,
  "dos_energy_down": null,
  "is_magnetic": null,
  "ordering": null,
  "total_magnetization": 0.0480912,
  "total_magnetization_normalized_vol": null,
  "total_magnetization_normalized_formula_units": null,
  "num_magnetic_sites": null,
  "num_unique_magnetic_sites": null,
  "types_of_magnetic_species": null,
  "bulk_modulus": null,
  "shear_modulus": null,
  "universal_anisotropy": null,
  "homogeneous_poisson": null,
  "e_total": null,
  "e_ionic": null,
  "e_electronic": null,
  "n": null,
  "e_ij_max": null,
  "weighted_surface_energy_EV_PER_ANG2": null,
  "weighted_surface_energy": null,
  "weighted_work_function": null,
  "surface_anisotropy": null,
  "shape_factor": null,
  "has_reconstructed": null,
  "possible_species": null,
  "has_props": null,
  "theoretical": null,
  "database_IDs": null,
  "fields_not_requested": [
    "builder_meta",
    "nsites",
    "elements",
    "nelements",
    "composition",
    "composition_reduced",
    "chemsys",
    "symmetry",
    "property_name",
    "deprecated",
    "deprecation_reasons",
    "last_updated",
    "origins",
    "warnings",
    "task_ids",
    "uncorrected_energy_per_atom",
    "equilibrium_reaction_energy_per_atom",
    "decomposes_to",
    "xas",
    "grain_boundaries",
    "cbm",
    "vbm",
    "is_gap_direct",
    "is_metal",
    "es_source_calc_id",
    "bandstructure",
    "dos",
    "dos_energy_up",
    "dos_energy_down",
    "is_magnetic",
    "ordering",
    "total_magnetization_normalized_vol",
    "total_magnetization_normalized_formula_units",
    "num_magnetic_sites",
    "num_unique_magnetic_sites",
    "types_of_magnetic_species",
    "bulk_modulus",
    "shear_modulus",
    "universal_anisotropy",
    "homogeneous_poisson",
    "e_total",
    "e_ionic",
    "e_electronic",
    "n",
    "e_ij_max",
    "weighted_surface_energy_EV_PER_ANG2",
    "weighted_surface_energy",
    "weighted_work_function",
    "surface_anisotropy",
    "shape_factor",
    "has_reconstructed",
    "possible_species",
    "has_props",
    "theoretical",
    "database_IDs"
  ]
}
