{"builder_meta": null, "nsites": null, "elements": null, "nelements": null, "composition": null, "composition_reduced": null, "formula_pretty": "Ti2Ga3", "formula_anonymous": "A2B3", "chemsys": null, "volume": 154.97157838937983, "density": 6.534144496501257, "density_atomic": 15.497157838937984, "symmetry": null, "property_name": null, "material_id": "mp-30673", "deprecated": null, "deprecation_reasons": null, "last_updated": null, "origins": null, "warnings": null, "structure": {"@module": "pymatgen.core.structure", "@class": "Structure", "charge": 0, "lattice": {"matrix": [[3.97643212, 0.0, 0.0], [-0.0, 6.24279718, 0.0016978], [0.0, -0.0016978, 6.24279718]], "pbc": [true, true, true], "a": 3.97643212, "b": 6.2427974108680475, "c": 6.2427974108680475, "alpha": 90.0, "beta": 90.0, "gamma": 90.0, "volume": 154.97157838937983}, "properties": {}, "sites": [{"species": [{"element": "Ti", "occu": 1}], "abc": [0.5, 0.69645063, 0.87276787], "properties": {"magmom": 0.0}, "label": "Ti", "xyz": [1.98821606, 4.3463182436835375, 5.449695231510221]}, {"species": [{"element": "Ti", "occu": 1}], "abc": [0.5, 0.12723213, 0.69645063], "properties": {"magmom": 0.0}, "label": "Ti", "xyz": [1.98821606, 0.7931019484897793, 4.348016043683537]}, {"species": [{"element": "Ti", "occu": 1}], "abc": [0.5, 0.87276787, 0.30354937], "properties": {"magmom": 0.0}, "label": "Ti", "xyz": [1.98821606, 5.447997431510221, 1.8964789363164625]}, {"species": [{"element": "Ti", "occu": 1}], "abc": [0.5, 0.30354937, 0.12723213], "properties": {"magmom": 0.0}, "label": "Ti", "xyz": [1.98821606, 1.8947811363164624, 0.7947997484897794]}, {"species": [{"element": "Ga", "occu": 1}], "abc": [0.0, 0.39580039, 0.81765508], "properties": {"magmom": -0.0}, "label": "Ga", "xyz": [0.0, 2.469513343740076, 5.1051268175388165]}, {"species": [{"element": "Ga", "occu": 1}], "abc": [-0.0, 0.81765508, 0.60419961], "properties": {"magmom": -0.0}, "label": "Ga", "xyz": [0.0, 5.103429017538816, 3.773283836259924]}, {"species": [{"element": "Ga", "occu": 1}], "abc": [-0.0, 0.60419961, 0.18234492], "properties": {"magmom": -0.0}, "label": "Ga", "xyz": [0.0, 3.771586036259924, 1.1393681624611836]}, {"species": [{"element": "Ga", "occu": 1}], "abc": [0.0, 0.18234492, 0.39580039], "properties": {"magmom": -0.0}, "label": "Ga", "xyz": [0.0, 1.1376703624611837, 2.471211143740076]}, {"species": [{"element": "Ga", "occu": 1}], "abc": [0.5, 0.5, 0.5], "properties": {"magmom": -0.0}, "label": "Ga", "xyz": [1.98821606, 3.1205496900000003, 3.12224749]}, {"species": [{"element": "Ga", "occu": 1}], "abc": [0.0, 0.0, 0.0], "properties": {"magmom": 0.0}, "label": "Ga", "xyz": [0.0, 0.0, 0.0]}]}, "task_ids": null, "uncorrected_energy_per_atom": null, "energy_per_atom": -5.434448011000001, "formation_energy_per_atom": -0.45939359083333403, "energy_above_hull": 0.0, "is_stable": true, "equilibrium_reaction_energy_per_atom": null, "decomposes_to": null, "xas": null, "grain_boundaries": null, "band_gap": 0.0, "cbm": null, "vbm": null, "efermi": 5.25642987, "is_gap_direct": null, "is_metal": null, "es_source_calc_id": null, "bandstructure": null, "dos": null, "dos_energy_up": null, "dos_energy_down": null, "is_magnetic": null, "ordering": null, "total_magnetization": 3e-07, "total_magnetization_normalized_vol": null, "total_magnetization_normalized_formula_units": null, "num_magnetic_sites": null, "num_unique_magnetic_sites": null, "types_of_magnetic_species": null, "bulk_modulus": null, "shear_modulus": null, "universal_anisotropy": null, "homogeneous_poisson": null, "e_total": null, "e_ionic": null, "e_electronic": null, "n": null, "e_ij_max": null, "weighted_surface_energy_EV_PER_ANG2": null, "weighted_surface_energy": null, "weighted_work_function": null, "surface_anisotropy": null, "shape_factor": null, "has_reconstructed": null, "possible_species": null, "has_props": null, "theoretical": null, "database_IDs": null, "fields_not_requested": ["builder_meta", "nsites", "elements", "nelements", "composition", "composition_reduced", "chemsys", "symmetry", "property_name", "deprecated", "deprecation_reasons", "last_updated", "origins", "warnings", "task_ids", "uncorrected_energy_per_atom", "equilibrium_reaction_energy_per_atom", "decomposes_to", "xas", "grain_boundaries", "cbm", "vbm", "is_gap_direct", "is_metal", "es_source_calc_id", "bandstructure", "dos", "dos_energy_up", "dos_energy_down", "is_magnetic", "ordering", "total_magnetization_normalized_vol", "total_magnetization_normalized_formula_units", "num_magnetic_sites", "num_unique_magnetic_sites", "types_of_magnetic_species", "bulk_modulus", "shear_modulus", "universal_anisotropy", "homogeneous_poisson", "e_total", "e_ionic", "e_electronic", "n", "e_ij_max", "weighted_surface_energy_EV_PER_ANG2", "weighted_surface_energy", "weighted_work_function", "surface_anisotropy", "shape_factor", "has_reconstructed", "possible_species", "has_props", "theoretical", "database_IDs"]}