{"builder_meta": null, "nsites": null, "elements": null, "nelements": null, "composition": null, "composition_reduced": null, "formula_pretty": "Ti2Ga", "formula_anonymous": "AB2", "chemsys": null, "volume": 95.81587520527634, "density": 5.734912127114955, "density_atomic": 15.969312534212724, "symmetry": null, "property_name": null, "material_id": "mp-30671", "deprecated": null, "deprecation_reasons": null, "last_updated": null, "origins": null, "warnings": null, "structure": {"@module": "pymatgen.core.structure", "@class": "Structure", "charge": 0, "lattice": {"matrix": [[4.50529807, 0.0, 0.0], [-2.25264853, 3.9017027, -0.0], [0.0, 0.0, 5.45079398]], "pbc": [true, true, true], "a": 4.50529807, "b": 4.505297921214362, "c": 5.45079398, "alpha": 90.0, "beta": 90.0, "gamma": 119.99999367661333, "volume": 95.81587520527634}, "properties": {}, "sites": [{"species": [{"element": "Ti", "occu": 1}], "abc": [0.666667, 0.333333, 0.24999451], "properties": {"magmom": 0.0}, "label": "Ti", "xyz": [2.2526514559822006, 1.3005662660991, 1.36266857014105]}, {"species": [{"element": "Ti", "occu": 1}], "abc": [0.333333, 0.666667, 0.75000548], "properties": {"magmom": -0.0}, "label": "Ti", "xyz": [-1.9159822000069937e-06, 2.6011364339009, 4.088125355351011]}, {"species": [{"element": "Ti", "occu": 1}], "abc": [-0.0, 0.0, -6.599999999999999e-06], "properties": {"magmom": -0.0}, "label": "Ti", "xyz": [0.0, 0.0, -3.5975240267999995e-05]}, {"species": [{"element": "Ti", "occu": 1}], "abc": [-0.0, 0.0, 0.5000066], "properties": {"magmom": -0.0}, "label": "Ti", "xyz": [0.0, 0.0, 2.725432965240268]}, {"species": [{"element": "Ga", "occu": 1}], "abc": [0.666667, 0.333333, 0.74999437], "properties": {"magmom": 0.0}, "label": "Ga", "xyz": [2.2526514559822006, 1.3005662660991, 4.088064797029893]}, {"species": [{"element": "Ga", "occu": 1}], "abc": [0.333333, 0.666667, 0.25000564000000003], "properties": {"magmom": -0.0}, "label": "Ga", "xyz": [-1.9159822000069937e-06, 2.6011364339009, 1.3627292374780475]}]}, "task_ids": null, "uncorrected_energy_per_atom": null, "energy_per_atom": -6.675810366666667, "formation_energy_per_atom": -0.40278368138888904, "energy_above_hull": 0.0, "is_stable": true, "equilibrium_reaction_energy_per_atom": null, "decomposes_to": null, "xas": null, "grain_boundaries": null, "band_gap": 0.0, "cbm": null, "vbm": null, "efermi": 5.46488784, "is_gap_direct": null, "is_metal": null, "es_source_calc_id": null, "bandstructure": null, "dos": null, "dos_energy_up": null, "dos_energy_down": null, "is_magnetic": null, "ordering": null, "total_magnetization": 1e-07, "total_magnetization_normalized_vol": null, "total_magnetization_normalized_formula_units": null, "num_magnetic_sites": null, "num_unique_magnetic_sites": null, "types_of_magnetic_species": null, "bulk_modulus": null, "shear_modulus": null, "universal_anisotropy": null, "homogeneous_poisson": null, "e_total": null, "e_ionic": null, "e_electronic": null, "n": null, "e_ij_max": null, "weighted_surface_energy_EV_PER_ANG2": null, "weighted_surface_energy": null, "weighted_work_function": null, "surface_anisotropy": null, "shape_factor": null, "has_reconstructed": null, "possible_species": null, "has_props": null, "theoretical": null, "database_IDs": null, "fields_not_requested": ["builder_meta", "nsites", "elements", "nelements", "composition", "composition_reduced", "chemsys", "symmetry", "property_name", "deprecated", "deprecation_reasons", "last_updated", "origins", "warnings", "task_ids", "uncorrected_energy_per_atom", "equilibrium_reaction_energy_per_atom", "decomposes_to", "xas", "grain_boundaries", "cbm", "vbm", "is_gap_direct", "is_metal", "es_source_calc_id", "bandstructure", "dos", "dos_energy_up", "dos_energy_down", "is_magnetic", "ordering", "total_magnetization_normalized_vol", "total_magnetization_normalized_formula_units", "num_magnetic_sites", "num_unique_magnetic_sites", "types_of_magnetic_species", "bulk_modulus", "shear_modulus", "universal_anisotropy", "homogeneous_poisson", "e_total", "e_ionic", "e_electronic", "n", "e_ij_max", "weighted_surface_energy_EV_PER_ANG2", "weighted_surface_energy", "weighted_work_function", "surface_anisotropy", "shape_factor", "has_reconstructed", "possible_species", "has_props", "theoretical", "database_IDs"]}