{"builder_meta": null, "nsites": null, "elements": null, "nelements": null, "composition": null, "composition_reduced": null, "formula_pretty": "Ti2H3", "formula_anonymous": "A2B3", "chemsys": null, "volume": 82.71938043568267, "density": 3.965001124972398, "density_atomic": 8.271938043568266, "symmetry": null, "property_name": null, "material_id": "mp-1079127", "deprecated": null, "deprecation_reasons": null, "last_updated": null, "origins": null, "warnings": null, "structure": {"@module": "pymatgen.core.structure", "@class": "Structure", "charge": 0, "lattice": {"matrix": [[4.34284846, -0.0, 0.0], [-0.0, 4.34284846, 0.0], [0.0, 0.0, 4.38589189]], "pbc": [true, true, true], "a": 4.34284846, "b": 4.34284846, "c": 4.38589189, "alpha": 90.0, "beta": 90.0, "gamma": 90.0, "volume": 82.71938043568267}, "properties": {}, "sites": [{"species": [{"element": "Ti", "occu": 1}], "abc": [0.73810116, 0.26189884, -0.0], "properties": {"magmom": 0.0}, "label": "Ti", "xyz": [3.2054614860302135, 1.1373869739697864, 0.0]}, {"species": [{"element": "Ti", "occu": 1}], "abc": [0.26189884, 0.73810116, 0.0], "properties": {"magmom": 0.0}, "label": "Ti", "xyz": [1.1373869739697864, 3.2054614860302135, 0.0]}, {"species": [{"element": "Ti", "occu": 1}], "abc": [0.26189884, 0.26189884, 0.5], "properties": {"magmom": 0.0}, "label": "Ti", "xyz": [1.1373869739697864, 1.1373869739697864, 2.192945945]}, {"species": [{"element": "Ti", "occu": 1}], "abc": [0.73810116, 0.73810116, 0.5], "properties": {"magmom": 0.0}, "label": "Ti", "xyz": [3.2054614860302135, 3.2054614860302135, 2.192945945]}, {"species": [{"element": "H", "occu": 1}], "abc": [0.5, -0.0, 0.75], "properties": {"magmom": -0.0}, "label": "H", "xyz": [2.17142423, 0.0, 3.2894189175]}, {"species": [{"element": "H", "occu": 1}], "abc": [0.5, -0.0, 0.25], "properties": {"magmom": -0.0}, "label": "H", "xyz": [2.17142423, 0.0, 1.0964729725]}, {"species": [{"element": "H", "occu": 1}], "abc": [-0.0, 0.5, 0.75], "properties": {"magmom": -0.0}, "label": "H", "xyz": [0.0, 2.17142423, 3.2894189175]}, {"species": [{"element": "H", "occu": 1}], "abc": [-0.0, 0.5, 0.25], "properties": {"magmom": -0.0}, "label": "H", "xyz": [0.0, 2.17142423, 1.0964729725]}, {"species": [{"element": "H", "occu": 1}], "abc": [-0.0, -0.0, 0.75], "properties": {"magmom": 0.0}, "label": "H", "xyz": [0.0, 0.0, 3.2894189175]}, {"species": [{"element": "H", "occu": 1}], "abc": [-0.0, -0.0, 0.25], "properties": {"magmom": 0.0}, "label": "H", "xyz": [0.0, 0.0, 1.0964729725]}]}, "task_ids": null, "uncorrected_energy_per_atom": null, "energy_per_atom": -7.729216888000001, "formation_energy_per_atom": -0.481046641916667, "energy_above_hull": 0.003354948499999, "is_stable": false, "equilibrium_reaction_energy_per_atom": null, "decomposes_to": null, "xas": null, "grain_boundaries": null, "band_gap": 0.0, "cbm": null, "vbm": null, "efermi": 5.44252879, "is_gap_direct": null, "is_metal": null, "es_source_calc_id": null, "bandstructure": null, "dos": null, "dos_energy_up": null, "dos_energy_down": null, "is_magnetic": null, "ordering": null, "total_magnetization": 0.0, "total_magnetization_normalized_vol": null, "total_magnetization_normalized_formula_units": null, "num_magnetic_sites": null, "num_unique_magnetic_sites": null, "types_of_magnetic_species": null, "bulk_modulus": null, "shear_modulus": null, "universal_anisotropy": null, "homogeneous_poisson": null, "e_total": null, "e_ionic": null, "e_electronic": null, "n": null, "e_ij_max": null, "weighted_surface_energy_EV_PER_ANG2": null, "weighted_surface_energy": null, "weighted_work_function": null, "surface_anisotropy": null, "shape_factor": null, "has_reconstructed": null, "possible_species": null, "has_props": null, "theoretical": null, "database_IDs": null, "fields_not_requested": ["builder_meta", "nsites", "elements", "nelements", "composition", "composition_reduced", "chemsys", "symmetry", "property_name", "deprecated", "deprecation_reasons", "last_updated", "origins", "warnings", "task_ids", "uncorrected_energy_per_atom", "equilibrium_reaction_energy_per_atom", "decomposes_to", "xas", "grain_boundaries", "cbm", "vbm", "is_gap_direct", "is_metal", "es_source_calc_id", "bandstructure", "dos", "dos_energy_up", "dos_energy_down", "is_magnetic", "ordering", "total_magnetization_normalized_vol", "total_magnetization_normalized_formula_units", "num_magnetic_sites", "num_unique_magnetic_sites", "types_of_magnetic_species", "bulk_modulus", "shear_modulus", "universal_anisotropy", "homogeneous_poisson", "e_total", "e_ionic", "e_electronic", "n", "e_ij_max", "weighted_surface_energy_EV_PER_ANG2", "weighted_surface_energy", "weighted_work_function", "surface_anisotropy", "shape_factor", "has_reconstructed", "possible_species", "has_props", "theoretical", "database_IDs"]}