{
  "builder_meta": null,
  "nsites": null,
  "elements": null,
  "nelements": null,
  "composition": null,
  "composition_reduced": null,
  "formula_pretty": "Ti2In5",
  "formula_anonymous": "A2B5",
  "chemsys": null,
  "volume": 375.0097652493379,
  "density": 5.9319464334842,
  "density_atomic": 26.786411803524135,
  "symmetry": null,
  "property_name": null,
  "material_id": "mp-637377",
  "deprecated": null,
  "deprecation_reasons": null,
  "last_updated": null,
  "origins": null,
  "warnings": null,
  "structure": {
    "@module": "pymatgen.core.structure",
    "@class": "Structure",
    "charge": 0,
    "lattice": {
      "matrix": [
        [10.931576, 0.0, 0.0],
        [0.0, 10.931576, 0.0],
        [0.0, 0.0, 3.138174]
      ],
      "pbc": [true, true, true],
      "a": 10.931576,
      "b": 10.931576,
      "c": 3.138174,
      "alpha": 90.0,
      "beta": 90.0,
      "gamma": 90.0,
      "volume": 375.0097652493379
    },
    "properties": {},
    "sites": [
      {
        "species": [{ "element": "Ti", "occu": 1 }],
        "abc": [0.180389, 0.319611, 0.5],
        "properties": { "magmom": 0.481 },
        "label": "Ti",
        "xyz": [1.971936063064, 3.4938519369359997, 1.569087]
      },
      {
        "species": [{ "element": "Ti", "occu": 1 }],
        "abc": [0.819611, 0.680389, 0.5],
        "properties": { "magmom": 0.481 },
        "label": "Ti",
        "xyz": [8.959639936936, 7.4377240630640005, 1.569087]
      },
      {
        "species": [{ "element": "Ti", "occu": 1 }],
        "abc": [0.319611, 0.819611, 0.5],
        "properties": { "magmom": 0.481 },
        "label": "Ti",
        "xyz": [3.4938519369359997, 8.959639936936, 1.569087]
      },
      {
        "species": [{ "element": "Ti", "occu": 1 }],
        "abc": [0.680389, 0.180389, 0.5],
        "properties": { "magmom": 0.481 },
        "label": "Ti",
        "xyz": [7.4377240630640005, 1.971936063064, 1.569087]
      },
      {
        "species": [{ "element": "In", "occu": 1 }],
        "abc": [0.207397, 0.063941, 0.0],
        "properties": { "magmom": -0.017 },
        "label": "In",
        "xyz": [2.267176067672, 0.6989759010159999, 0.0]
      },
      {
        "species": [{ "element": "In", "occu": 1 }],
        "abc": [0.063941, 0.792603, 0.0],
        "properties": { "magmom": -0.017 },
        "label": "In",
        "xyz": [0.6989759010159999, 8.664399932328, 0.0]
      },
      {
        "species": [{ "element": "In", "occu": 1 }],
        "abc": [0.707396999999999, 0.436059, 0.0],
        "properties": { "magmom": -0.017 },
        "label": "In",
        "xyz": [7.73296406767199, 4.7668120989839995, 0.0]
      },
      {
        "species": [{ "element": "In", "occu": 1 }],
        "abc": [0.563941, 0.707396999999999, 0.0],
        "properties": { "magmom": -0.017 },
        "label": "In",
        "xyz": [6.164763901016, 7.73296406767199, 0.0]
      },
      {
        "species": [{ "element": "In", "occu": 1 }],
        "abc": [0.0, 0.5, 0.0],
        "properties": { "magmom": -0.015 },
        "label": "In",
        "xyz": [0.0, 5.465788, 0.0]
      },
      {
        "species": [{ "element": "In", "occu": 1 }],
        "abc": [0.292603, 0.563941, 0.0],
        "properties": { "magmom": -0.017 },
        "label": "In",
        "xyz": [3.198611932328, 6.164763901016, 0.0]
      },
      {
        "species": [{ "element": "In", "occu": 1 }],
        "abc": [0.792603, 0.936059, 0.0],
        "properties": { "magmom": -0.017 },
        "label": "In",
        "xyz": [8.664399932328, 10.232600098984, 0.0]
      },
      {
        "species": [{ "element": "In", "occu": 1 }],
        "abc": [0.436059, 0.292603, 0.0],
        "properties": { "magmom": -0.017 },
        "label": "In",
        "xyz": [4.7668120989839995, 3.198611932328, 0.0]
      },
      {
        "species": [{ "element": "In", "occu": 1 }],
        "abc": [0.936059, 0.207397, 0.0],
        "properties": { "magmom": -0.017 },
        "label": "In",
        "xyz": [10.232600098984, 2.267176067672, 0.0]
      },
      {
        "species": [{ "element": "In", "occu": 1 }],
        "abc": [0.5, 0.0, 0.0],
        "properties": { "magmom": -0.015 },
        "label": "In",
        "xyz": [5.465788, 0.0, 0.0]
      }
    ]
  },
  "task_ids": null,
  "uncorrected_energy_per_atom": null,
  "energy_per_atom": -4.185732627857143,
  "formation_energy_per_atom": 0.040960622142857006,
  "energy_above_hull": 0.12056787357142801,
  "is_stable": false,
  "equilibrium_reaction_energy_per_atom": null,
  "decomposes_to": null,
  "xas": null,
  "grain_boundaries": null,
  "band_gap": 0.0,
  "cbm": null,
  "vbm": null,
  "efermi": 5.78273338,
  "is_gap_direct": null,
  "is_metal": null,
  "es_source_calc_id": null,
  "bandstructure": null,
  "dos": null,
  "dos_energy_up": null,
  "dos_energy_down": null,
  "is_magnetic": null,
  "ordering": null,
  "total_magnetization": 2.135873499999999,
  "total_magnetization_normalized_vol": null,
  "total_magnetization_normalized_formula_units": null,
  "num_magnetic_sites": null,
  "num_unique_magnetic_sites": null,
  "types_of_magnetic_species": null,
  "bulk_modulus": null,
  "shear_modulus": null,
  "universal_anisotropy": null,
  "homogeneous_poisson": null,
  "e_total": null,
  "e_ionic": null,
  "e_electronic": null,
  "n": null,
  "e_ij_max": null,
  "weighted_surface_energy_EV_PER_ANG2": null,
  "weighted_surface_energy": null,
  "weighted_work_function": null,
  "surface_anisotropy": null,
  "shape_factor": null,
  "has_reconstructed": null,
  "possible_species": null,
  "has_props": null,
  "theoretical": null,
  "database_IDs": null,
  "fields_not_requested": [
    "builder_meta",
    "nsites",
    "elements",
    "nelements",
    "composition",
    "composition_reduced",
    "chemsys",
    "symmetry",
    "property_name",
    "deprecated",
    "deprecation_reasons",
    "last_updated",
    "origins",
    "warnings",
    "task_ids",
    "uncorrected_energy_per_atom",
    "equilibrium_reaction_energy_per_atom",
    "decomposes_to",
    "xas",
    "grain_boundaries",
    "cbm",
    "vbm",
    "is_gap_direct",
    "is_metal",
    "es_source_calc_id",
    "bandstructure",
    "dos",
    "dos_energy_up",
    "dos_energy_down",
    "is_magnetic",
    "ordering",
    "total_magnetization_normalized_vol",
    "total_magnetization_normalized_formula_units",
    "num_magnetic_sites",
    "num_unique_magnetic_sites",
    "types_of_magnetic_species",
    "bulk_modulus",
    "shear_modulus",
    "universal_anisotropy",
    "homogeneous_poisson",
    "e_total",
    "e_ionic",
    "e_electronic",
    "n",
    "e_ij_max",
    "weighted_surface_energy_EV_PER_ANG2",
    "weighted_surface_energy",
    "weighted_work_function",
    "surface_anisotropy",
    "shape_factor",
    "has_reconstructed",
    "possible_species",
    "has_props",
    "theoretical",
    "database_IDs"
  ]
}
