{
  "builder_meta": null,
  "nsites": null,
  "elements": null,
  "nelements": null,
  "composition": null,
  "composition_reduced": null,
  "formula_pretty": "Ti2Ni",
  "formula_anonymous": "AB2",
  "chemsys": null,
  "volume": 355.36290053583105,
  "density": 5.7728644215094995,
  "density_atomic": 14.806787522326294,
  "symmetry": null,
  "property_name": null,
  "material_id": "mp-1808",
  "deprecated": null,
  "deprecation_reasons": null,
  "last_updated": null,
  "origins": null,
  "warnings": null,
  "structure": {
    "@module": "pymatgen.core.structure",
    "@class": "Structure",
    "charge": 0,
    "lattice": {
      "matrix": [
        [-0.00020731, 5.62176515, 5.62176642],
        [5.62178531, -0.0002206, 5.62177972],
        [5.62175306, 5.62174619, -0.00018833]
      ],
      "pbc": [true, true, true],
      "a": 7.950377420334935,
      "b": 7.950401080486408,
      "c": 7.950354566172949,
      "alpha": 60.00236956902642,
      "beta": 60.002351980273424,
      "gamma": 60.00253061683288,
      "volume": 355.36290053583105
    },
    "properties": {},
    "sites": [
      {
        "species": [{ "element": "Ti", "occu": 1 }],
        "abc": [0.12502449000000002, 0.62499412, 0.62500016],
        "properties": { "magmom": -0.013000000000000001 },
        "label": "Ti",
        "xyz": [7.027153405805844, 4.216312715305042, 4.21632004221474]
      },
      {
        "species": [{ "element": "Ti", "occu": 1 }],
        "abc": [0.62499111, 0.12502494, 0.62500526],
        "properties": { "magmom": -0.013000000000000001 },
        "label": "Ti",
        "xyz": [4.216359037089713, 7.027146599891012, 4.216298999942127]
      },
      {
        "species": [{ "element": "Ti", "occu": 1 }],
        "abc": [0.62499307, 0.62500268, 0.12501913],
        "properties": { "magmom": -0.013000000000000001 },
        "label": "Ti",
        "xyz": [4.216327994457327, 4.216252202080917, 7.0271689001756075]
      },
      {
        "species": [{ "element": "Ti", "occu": 1 }],
        "abc": [0.6249872, 0.62498789, 0.62499621],
        "properties": { "magmom": -0.013000000000000001 },
        "label": "Ti",
        "xyz": [7.026992528889366, 7.026963450159486, 7.026958593601186]
      },
      {
        "species": [{ "element": "Ti", "occu": 1 }],
        "abc": [0.81333498, 0.81333372, 0.18665773],
        "properties": { "magmom": -0.189 },
        "label": "Ti",
        "xyz": [5.621562611549103, 5.621541206882864, 9.14472713821324]
      },
      {
        "species": [{ "element": "Ti", "occu": 1 }],
        "abc": [0.18666696, 0.18666651, 0.81334227],
        "properties": { "magmom": -0.189 },
        "label": "Ti",
        "xyz": [5.621769741059336, 5.621760439290789, 2.0986428710229514]
      },
      {
        "species": [{ "element": "Ti", "occu": 1 }],
        "abc": [0.8133291500000001, 0.18666302, 0.81333977],
        "properties": { "magmom": -0.189 },
        "label": "Ti",
        "xyz": [5.621606153307345, 9.144694046259886, 5.621571707908213]
      },
      {
        "species": [{ "element": "Ti", "occu": 1 }],
        "abc": [0.18667334, 0.81333393, 0.18666464],
        "properties": { "magmom": -0.19 },
        "label": "Ti",
        "xyz": [5.621732551662251, 2.098635484508865, 5.621782953031491]
      },
      {
        "species": [{ "element": "Ti", "occu": 1 }],
        "abc": [0.18666135, 0.8133298800000001, 0.81334227],
        "properties": { "magmom": -0.189 },
        "label": "Ti",
        "xyz": [9.14473667000344, 5.621590659248875, 5.621574757646192]
      },
      {
        "species": [{ "element": "Ti", "occu": 1 }],
        "abc": [0.81333822, 0.18666989, 0.18666076],
        "properties": { "magmom": -0.189 },
        "label": "Ti",
        "xyz": [2.0986101309868532, 5.621714697333803, 5.621779341414272]
      },
      {
        "species": [{ "element": "Ti", "occu": 1 }],
        "abc": [0.436612799999999, 0.43662543000000004, 0.06337394],
        "properties": { "magmom": -0.19 },
        "label": "Ti",
        "xyz": [2.810796555266122, 2.810710509254345, 4.909135229978331]
      },
      {
        "species": [{ "element": "Ti", "occu": 1 }],
        "abc": [0.06338361, 0.06337185000000001, 0.43662248000000004],
        "properties": { "magmom": -0.19 },
        "label": "Ti",
        "xyz": [2.8108335583461233, 2.8108945533574325, 0.7125082023135998]
      },
      {
        "species": [{ "element": "Ti", "occu": 1 }],
        "abc": [0.43661644, 0.06337319, 0.43661757],
        "properties": { "magmom": -0.189 },
        "label": "Ti",
        "xyz": [2.8107361138329265, 4.90909426681791, 2.8107435269586936]
      },
      {
        "species": [{ "element": "Ti", "occu": 1 }],
        "abc": [0.06338091, 0.43662713000000003, 0.06337522],
        "properties": { "magmom": -0.19 },
        "label": "Ti",
        "xyz": [2.8108906828481817, 0.7124956726438203, 2.810922280687664]
      },
      {
        "species": [{ "element": "Ti", "occu": 1 }],
        "abc": [0.06337556, 0.43662566, 0.43661492],
        "properties": { "magmom": -0.189 },
        "label": "Ti",
        "xyz": [4.909143845521366, 2.8107244579562924, 2.810813647988427]
      },
      {
        "species": [{ "element": "Ti", "occu": 1 }],
        "abc": [0.436624099999999, 0.06337266, 0.06337826],
        "properties": { "magmom": -0.19 },
        "label": "Ti",
        "xyz": [0.7124738995939293, 2.810880660705143, 2.8108539023054657]
      },
      {
        "species": [{ "element": "Ni", "occu": 1 }],
        "abc": [0.77330948, 0.40889518, 0.40890112],
        "properties": { "magmom": -0.054 },
        "label": "Ni",
        "xyz": [4.597301724062934, 6.646012395998646, 6.646006889113481]
      },
      {
        "species": [{ "element": "Ni", "occu": 1 }],
        "abc": [0.40890054000000003, 0.77329408, 0.40890316],
        "properties": { "magmom": -0.054 },
        "label": "Ni",
        "xyz": [6.645961121056686, 4.5973219987230936, 6.645955292699802]
      },
      {
        "species": [{ "element": "Ni", "occu": 1 }],
        "abc": [0.40890145, 0.40889729, 0.7733022700000001],
        "properties": { "magmom": -0.054 },
        "label": "Ni",
        "xyz": [6.645962411538656, 6.645966808743145, 4.597333297167759]
      },
      {
        "species": [{ "element": "Ni", "occu": 1 }],
        "abc": [0.40889809, 0.40890093, 0.40890453],
        "properties": { "magmom": -0.054 },
        "label": "Ni",
        "xyz": [4.597428765631662, 4.5973963123196455, 4.597403498337143]
      },
      {
        "species": [{ "element": "Ni", "occu": 1 }],
        "abc": [0.47669662, 0.84110658, 0.84110194],
        "properties": { "magmom": -0.054 },
        "label": "Ni",
        "xyz": [9.456889196578985, 7.408152523923854, 7.408234559917698]
      },
      {
        "species": [{ "element": "Ni", "occu": 1 }],
        "abc": [0.84110332, 0.4766948, 0.84110261],
        "properties": { "magmom": -0.054 },
        "label": "Ni",
        "xyz": [7.408172626405604, 9.456845566218973, 7.4082011545414295]
      },
      {
        "species": [{ "element": "Ni", "occu": 1 }],
        "abc": [0.84110615, 0.84110984, 0.47668348],
        "properties": { "magmom": -0.054 },
        "label": "Ni",
        "xyz": [7.408161385233942, 7.40810923021591, 9.45694677673014]
      },
      {
        "species": [{ "element": "Ni", "occu": 1 }],
        "abc": [0.84108903, 0.84109579, 0.8410903200000001],
        "properties": { "magmom": -0.054 },
        "label": "Ni",
        "xyz": [9.456687670554416, 9.456615753075912, 9.456702917343788]
      }
    ]
  },
  "task_ids": null,
  "uncorrected_energy_per_atom": null,
  "energy_per_atom": -7.4677021775,
  "formation_energy_per_atom": -0.277328606388889,
  "energy_above_hull": 0.0,
  "is_stable": true,
  "equilibrium_reaction_energy_per_atom": null,
  "decomposes_to": null,
  "xas": null,
  "grain_boundaries": null,
  "band_gap": 0.0,
  "cbm": null,
  "vbm": null,
  "efermi": 6.57345179,
  "is_gap_direct": null,
  "is_metal": null,
  "es_source_calc_id": null,
  "bandstructure": null,
  "dos": null,
  "dos_energy_up": null,
  "dos_energy_down": null,
  "is_magnetic": null,
  "ordering": null,
  "total_magnetization": 3.3005209,
  "total_magnetization_normalized_vol": null,
  "total_magnetization_normalized_formula_units": null,
  "num_magnetic_sites": null,
  "num_unique_magnetic_sites": null,
  "types_of_magnetic_species": null,
  "bulk_modulus": null,
  "shear_modulus": null,
  "universal_anisotropy": null,
  "homogeneous_poisson": null,
  "e_total": null,
  "e_ionic": null,
  "e_electronic": null,
  "n": null,
  "e_ij_max": null,
  "weighted_surface_energy_EV_PER_ANG2": null,
  "weighted_surface_energy": null,
  "weighted_work_function": null,
  "surface_anisotropy": null,
  "shape_factor": null,
  "has_reconstructed": null,
  "possible_species": null,
  "has_props": null,
  "theoretical": null,
  "database_IDs": null,
  "fields_not_requested": [
    "builder_meta",
    "nsites",
    "elements",
    "nelements",
    "composition",
    "composition_reduced",
    "chemsys",
    "symmetry",
    "property_name",
    "deprecated",
    "deprecation_reasons",
    "last_updated",
    "origins",
    "warnings",
    "task_ids",
    "uncorrected_energy_per_atom",
    "equilibrium_reaction_energy_per_atom",
    "decomposes_to",
    "xas",
    "grain_boundaries",
    "cbm",
    "vbm",
    "is_gap_direct",
    "is_metal",
    "es_source_calc_id",
    "bandstructure",
    "dos",
    "dos_energy_up",
    "dos_energy_down",
    "is_magnetic",
    "ordering",
    "total_magnetization_normalized_vol",
    "total_magnetization_normalized_formula_units",
    "num_magnetic_sites",
    "num_unique_magnetic_sites",
    "types_of_magnetic_species",
    "bulk_modulus",
    "shear_modulus",
    "universal_anisotropy",
    "homogeneous_poisson",
    "e_total",
    "e_ionic",
    "e_electronic",
    "n",
    "e_ij_max",
    "weighted_surface_energy_EV_PER_ANG2",
    "weighted_surface_energy",
    "weighted_work_function",
    "surface_anisotropy",
    "shape_factor",
    "has_reconstructed",
    "possible_species",
    "has_props",
    "theoretical",
    "database_IDs"
  ]
}
