{"builder_meta": null, "nsites": null, "elements": null, "nelements": null, "composition": null, "composition_reduced": null, "formula_pretty": "Ti2O3", "formula_anonymous": "A2B3", "chemsys": null, "volume": 103.7211155286214, "density": 4.602205288902889, "density_atomic": 10.37211155286214, "symmetry": null, "property_name": null, "material_id": "mp-458", "deprecated": null, "deprecation_reasons": null, "last_updated": null, "origins": null, "warnings": null, "structure": {"@module": "pymatgen.core.structure", "@class": "Structure", "charge": 0, "lattice": {"matrix": [[4.53398622, 0.02544877, 3.03728567], [1.6343676, 4.22924789, 3.03728565], [0.03689459, 0.02544876, 5.4571774]], "pbc": [true, true, true], "a": 5.457360435616448, "b": 5.4573619347350535, "c": 5.45736145268275, "alpha": 55.794138054933505, "beta": 55.794129974739256, "gamma": 55.79413435441772, "volume": 103.7211155286214}, "properties": {}, "sites": [{"species": [{"element": "Ti", "occu": 1}], "abc": [0.34453747, 0.34453747, 0.34453747], "properties": {"magmom": -0.0}, "label": "Ti", "xyz": [2.1379405879029227, 1.4746704742388874, 3.9731195286645384]}, {"species": [{"element": "Ti", "occu": 1}], "abc": [0.15546253000000002, 0.15546253000000002, 0.15546253000000002], "properties": {"magmom": -0.0}, "label": "Ti", "xyz": [0.9646836170970774, 0.6654022357611126, 1.7927548313354618]}, {"species": [{"element": "Ti", "occu": 1}], "abc": [0.65546253, 0.65546253, 0.65546253], "properties": {"magmom": -0.0}, "label": "Ti", "xyz": [4.067307822097077, 2.8054749457611123, 7.558629191335461]}, {"species": [{"element": "Ti", "occu": 1}], "abc": [0.84453747, 0.84453747, 0.84453747], "properties": {"magmom": -0.0}, "label": "Ti", "xyz": [5.240564792902923, 3.6147431842388875, 9.738993888664538]}, {"species": [{"element": "O", "occu": 1}], "abc": [0.56439446, 0.9356055400000001, 0.25], "properties": {"magmom": 0.0}, "label": "O", "xyz": [4.097303732740845, 3.9776330907191246, 5.9202228362878895]}, {"species": [{"element": "O", "occu": 1}], "abc": [0.25, 0.56439446, 0.9356055400000001], "properties": {"magmom": 0.0}, "label": "O", "xyz": [2.090443356843525, 2.41713627242482, 7.579314020000295]}, {"species": [{"element": "O", "occu": 1}], "abc": [0.9356055400000001, 0.25, 0.56439446], "properties": {"magmom": 0.0}, "label": "O", "xyz": [4.671437627915631, 1.0954851218560553, 6.681023403711816]}, {"species": [{"element": "O", "occu": 1}], "abc": [0.43560554, 0.06439446, 0.75], "properties": {"magmom": 0.0}, "label": "O", "xyz": [2.107944677259155, 0.30251232928087524, 5.611525883712111]}, {"species": [{"element": "O", "occu": 1}], "abc": [0.75, 0.43560554, 0.06439446], "properties": {"magmom": 0.0}, "label": "O", "xyz": [4.114805053156476, 1.8630091475751802, 3.9524346999997055]}, {"species": [{"element": "O", "occu": 1}], "abc": [0.06439446, 0.75, 0.43560554], "properties": {"magmom": 0.0}, "label": "O", "xyz": [1.5338107820843698, 3.1846602981439447, 4.850725316288184]}]}, "task_ids": null, "uncorrected_energy_per_atom": null, "energy_per_atom": -9.430413044000002, "formation_energy_per_atom": -3.303439634333334, "energy_above_hull": 0.0, "is_stable": true, "equilibrium_reaction_energy_per_atom": null, "decomposes_to": null, "xas": null, "grain_boundaries": null, "band_gap": 0.0, "cbm": null, "vbm": null, "efermi": 7.02508314, "is_gap_direct": null, "is_metal": null, "es_source_calc_id": null, "bandstructure": null, "dos": null, "dos_energy_up": null, "dos_energy_down": null, "is_magnetic": null, "ordering": null, "total_magnetization": 0.0, "total_magnetization_normalized_vol": null, "total_magnetization_normalized_formula_units": null, "num_magnetic_sites": null, "num_unique_magnetic_sites": null, "types_of_magnetic_species": null, "bulk_modulus": null, "shear_modulus": null, "universal_anisotropy": null, "homogeneous_poisson": null, "e_total": null, "e_ionic": null, "e_electronic": null, "n": null, "e_ij_max": null, "weighted_surface_energy_EV_PER_ANG2": null, "weighted_surface_energy": null, "weighted_work_function": null, "surface_anisotropy": null, "shape_factor": null, "has_reconstructed": null, "possible_species": null, "has_props": null, "theoretical": null, "database_IDs": null, "fields_not_requested": ["builder_meta", "nsites", "elements", "nelements", "composition", "composition_reduced", "chemsys", "symmetry", "property_name", "deprecated", "deprecation_reasons", "last_updated", "origins", "warnings", "task_ids", "uncorrected_energy_per_atom", "equilibrium_reaction_energy_per_atom", "decomposes_to", "xas", "grain_boundaries", "cbm", "vbm", "is_gap_direct", "is_metal", "es_source_calc_id", "bandstructure", "dos", "dos_energy_up", "dos_energy_down", "is_magnetic", "ordering", "total_magnetization_normalized_vol", "total_magnetization_normalized_formula_units", "num_magnetic_sites", "num_unique_magnetic_sites", "types_of_magnetic_species", "bulk_modulus", "shear_modulus", "universal_anisotropy", "homogeneous_poisson", "e_total", "e_ionic", "e_electronic", "n", "e_ij_max", "weighted_surface_energy_EV_PER_ANG2", "weighted_surface_energy", "weighted_work_function", "surface_anisotropy", "shape_factor", "has_reconstructed", "possible_species", "has_props", "theoretical", "database_IDs"]}