{
  "builder_meta": null,
  "nsites": null,
  "elements": null,
  "nelements": null,
  "composition": null,
  "composition_reduced": null,
  "formula_pretty": "Ti2O7",
  "formula_anonymous": "A2B7",
  "chemsys": null,
  "volume": 345.81646513064675,
  "density": 1.994950981103156,
  "density_atomic": 19.212025840591487,
  "symmetry": null,
  "property_name": null,
  "material_id": "mp-656850",
  "deprecated": null,
  "deprecation_reasons": null,
  "last_updated": null,
  "origins": null,
  "warnings": null,
  "structure": {
    "@module": "pymatgen.core.structure",
    "@class": "Structure",
    "charge": 0,
    "lattice": {
      "matrix": [
        [5.986947, 0.0, 0.0],
        [2.938567, 5.312581, 0.0],
        [0.342547, 0.483108999999999, 10.872632]
      ],
      "pbc": [true, true, true],
      "a": 5.986947,
      "b": 6.071136046494923,
      "c": 10.888749210102784,
      "alpha": 86.90159647307269,
      "beta": 88.19724601089708,
      "gamma": 61.051544934208344,
      "volume": 345.81646513064675
    },
    "properties": {},
    "sites": [
      {
        "species": [{ "element": "Ti", "occu": 1 }],
        "abc": [0.663809, 0.683404, 0.327915],
        "properties": { "magmom": 0.0 },
        "label": "Ti",
        "xyz": [6.094744042696, 3.7890577934589995, 3.56529912228]
      },
      {
        "species": [{ "element": "Ti", "occu": 1 }],
        "abc": [0.667457, 0.658566, 0.663358],
        "properties": { "magmom": 0.0 },
        "label": "Ti",
        "xyz": [6.158501291526999, 3.819159438867999, 7.212447418256]
      },
      {
        "species": [{ "element": "Ti", "occu": 1 }],
        "abc": [0.332543, 0.341433999999999, 0.336642],
        "properties": { "magmom": 0.0 },
        "label": "Ti",
        "xyz": [3.109559708472997, 1.9765305611319943, 3.6601845817439997]
      },
      {
        "species": [{ "element": "Ti", "occu": 1 }],
        "abc": [0.336190999999999, 0.316596, 0.672084999999999],
        "properties": { "magmom": 0.0 },
        "label": "Ti",
        "xyz": [3.173316957303994, 2.0066322065409987, 7.307332877719989]
      },
      {
        "species": [{ "element": "O", "occu": 1 }],
        "abc": [0.52756, 0.460155, 0.716283999999999],
        "properties": { "magmom": 0.0 },
        "label": "O",
        "xyz": [4.756030992553, 2.7906539570109983, 7.787892339487989]
      },
      {
        "species": [{ "element": "O", "occu": 1 }],
        "abc": [0.657594999999999, 0.676281, 0.999328],
        "properties": { "magmom": 0.0 },
        "label": "O",
        "xyz": [6.266600250207994, 4.075581942012999, 10.865325591296]
      },
      {
        "species": [{ "element": "O", "occu": 1 }],
        "abc": [0.426037, 0.759122, 0.034293],
        "properties": { "magmom": 0.0 },
        "label": "O",
        "xyz": [4.793138761484, 4.049464370819, 0.3728551691759999]
      },
      {
        "species": [{ "element": "O", "occu": 1 }],
        "abc": [0.47912899999999903, 0.979904, 0.713666999999999],
        "properties": { "magmom": -0.0 },
        "label": "O",
        "xyz": [5.992497976579994, 5.550598322926999, 7.75943866154399]
      },
      {
        "species": [{ "element": "O", "occu": 1 }],
        "abc": [0.664152, 0.670570999999999, 0.495505],
        "properties": { "magmom": -0.0 },
        "label": "O",
        "xyz": [6.116494386935997, 3.801845678795994, 5.38744351916]
      },
      {
        "species": [{ "element": "O", "occu": 1 }],
        "abc": [0.999304, 0.517919, 0.713117],
        "properties": { "magmom": -0.0 },
        "label": "O",
        "xyz": [7.74899585596, 3.095999879691999, 7.753458713943999]
      },
      {
        "species": [{ "element": "O", "occu": 1 }],
        "abc": [0.805442999999999, 0.71252, 0.06910000000000001],
        "properties": { "magmom": -0.0 },
        "label": "O",
        "xyz": [6.9396023090609935, 3.81870304602, 0.7512988712]
      },
      {
        "species": [{ "element": "O", "occu": 1 }],
        "abc": [0.194556999999999, 0.28748, 0.9309000000000001],
        "properties": { "magmom": -0.0 },
        "label": "O",
        "xyz": [2.328458690938994, 1.9769869539799991, 10.1213331288]
      },
      {
        "species": [{ "element": "O", "occu": 1 }],
        "abc": [0.000696, 0.482081, 0.286883],
        "properties": { "magmom": -0.0 },
        "label": "O",
        "xyz": [1.51906514404, 2.6996901203079995, 3.1191732860559997]
      },
      {
        "species": [{ "element": "O", "occu": 1 }],
        "abc": [0.335848, 0.32942899999999903, 0.504495],
        "properties": { "magmom": -0.0 },
        "label": "O",
        "xyz": [3.1515666130639963, 1.9938443212039942, 5.48518848084]
      },
      {
        "species": [{ "element": "O", "occu": 1 }],
        "abc": [0.520871, 0.020096, 0.286333],
        "properties": { "magmom": -0.0 },
        "label": "O",
        "xyz": [3.2755630234199997, 0.24509167707299973, 3.113193338456]
      },
      {
        "species": [{ "element": "O", "occu": 1 }],
        "abc": [0.573963, 0.240877999999999, 0.965707],
        "properties": { "magmom": 0.0 },
        "label": "O",
        "xyz": [4.4749222385159975, 1.7462256291809937, 10.499776830823999]
      },
      {
        "species": [{ "element": "O", "occu": 1 }],
        "abc": [0.342404999999999, 0.323719, 0.000672],
        "properties": { "magmom": 0.0 },
        "label": "O",
        "xyz": [3.001460749791994, 1.7201080579869998, 0.007306408703999999]
      },
      {
        "species": [{ "element": "O", "occu": 1 }],
        "abc": [0.47244, 0.539845, 0.283715999999999],
        "properties": { "magmom": 0.0 },
        "label": "O",
        "xyz": [4.512030007447001, 3.0050360429889995, 3.0847396605119894]
      }
    ]
  },
  "task_ids": null,
  "uncorrected_energy_per_atom": null,
  "energy_per_atom": -7.442724948888888,
  "formation_energy_per_atom": -1.839757052407407,
  "energy_above_hull": 0.49894658222222105,
  "is_stable": false,
  "equilibrium_reaction_energy_per_atom": null,
  "decomposes_to": null,
  "xas": null,
  "grain_boundaries": null,
  "band_gap": 1.154,
  "cbm": null,
  "vbm": null,
  "efermi": -2.48021145,
  "is_gap_direct": null,
  "is_metal": null,
  "es_source_calc_id": null,
  "bandstructure": null,
  "dos": null,
  "dos_energy_up": null,
  "dos_energy_down": null,
  "is_magnetic": null,
  "ordering": null,
  "total_magnetization": 0.0008895,
  "total_magnetization_normalized_vol": null,
  "total_magnetization_normalized_formula_units": null,
  "num_magnetic_sites": null,
  "num_unique_magnetic_sites": null,
  "types_of_magnetic_species": null,
  "bulk_modulus": null,
  "shear_modulus": null,
  "universal_anisotropy": null,
  "homogeneous_poisson": null,
  "e_total": null,
  "e_ionic": null,
  "e_electronic": null,
  "n": null,
  "e_ij_max": null,
  "weighted_surface_energy_EV_PER_ANG2": null,
  "weighted_surface_energy": null,
  "weighted_work_function": null,
  "surface_anisotropy": null,
  "shape_factor": null,
  "has_reconstructed": null,
  "possible_species": null,
  "has_props": null,
  "theoretical": null,
  "database_IDs": null,
  "fields_not_requested": [
    "builder_meta",
    "nsites",
    "elements",
    "nelements",
    "composition",
    "composition_reduced",
    "chemsys",
    "symmetry",
    "property_name",
    "deprecated",
    "deprecation_reasons",
    "last_updated",
    "origins",
    "warnings",
    "task_ids",
    "uncorrected_energy_per_atom",
    "equilibrium_reaction_energy_per_atom",
    "decomposes_to",
    "xas",
    "grain_boundaries",
    "cbm",
    "vbm",
    "is_gap_direct",
    "is_metal",
    "es_source_calc_id",
    "bandstructure",
    "dos",
    "dos_energy_up",
    "dos_energy_down",
    "is_magnetic",
    "ordering",
    "total_magnetization_normalized_vol",
    "total_magnetization_normalized_formula_units",
    "num_magnetic_sites",
    "num_unique_magnetic_sites",
    "types_of_magnetic_species",
    "bulk_modulus",
    "shear_modulus",
    "universal_anisotropy",
    "homogeneous_poisson",
    "e_total",
    "e_ionic",
    "e_electronic",
    "n",
    "e_ij_max",
    "weighted_surface_energy_EV_PER_ANG2",
    "weighted_surface_energy",
    "weighted_work_function",
    "surface_anisotropy",
    "shape_factor",
    "has_reconstructed",
    "possible_species",
    "has_props",
    "theoretical",
    "database_IDs"
  ]
}
