{
  "builder_meta": null,
  "nsites": null,
  "elements": null,
  "nelements": null,
  "composition": null,
  "composition_reduced": null,
  "formula_pretty": "Ti2Pd",
  "formula_anonymous": "AB2",
  "chemsys": null,
  "volume": 47.8684990033714,
  "density": 7.0126413290254614,
  "density_atomic": 15.956166334457132,
  "symmetry": null,
  "property_name": null,
  "material_id": "mp-13164",
  "deprecated": null,
  "deprecation_reasons": null,
  "last_updated": null,
  "origins": null,
  "warnings": null,
  "structure": {
    "@module": "pymatgen.core.structure",
    "@class": "Structure",
    "charge": 0,
    "lattice": {
      "matrix": [
        [2.97404547, 0.0, -0.90066038],
        [-0.27275591, 2.96151104, -0.90066039],
        [0.0187159, 0.02051791, 5.42238596]
      ],
      "pbc": [true, true, true],
      "a": 3.1074323126544954,
      "b": 3.1074318278277255,
      "c": 5.422457078552923,
      "alpha": 106.65054851109777,
      "beta": 106.6505357323878,
      "gamma": 89.99999613984467,
      "volume": 47.8684990033714
    },
    "properties": {},
    "sites": [
      {
        "species": [{ "element": "Ti", "occu": 1 }],
        "abc": [0.66431733, 0.66431733, 0.32863566],
        "properties": { "magmom": 0.0 },
        "label": "Ti",
        "xyz": [1.8006641802050691, 1.974126023752994, 0.5853407843393894]
      },
      {
        "species": [{ "element": "Ti", "occu": 1 }],
        "abc": [0.33568267, 0.33568267, 0.67136434],
        "properties": { "magmom": 0.0 },
        "label": "Ti",
        "xyz": [0.9193412797949313, 1.0079029262470063, 3.03572440566061]
      },
      {
        "species": [{ "element": "Pd", "occu": 1 }],
        "abc": [0.0, 0.0, -0.0],
        "properties": { "magmom": -0.0 },
        "label": "Pd",
        "xyz": [0.0, 0.0, 0.0]
      }
    ]
  },
  "task_ids": null,
  "uncorrected_energy_per_atom": null,
  "energy_per_atom": -16.731949063333335,
  "formation_energy_per_atom": -0.45329318444444505,
  "energy_above_hull": 0.0,
  "is_stable": true,
  "equilibrium_reaction_energy_per_atom": null,
  "decomposes_to": null,
  "xas": null,
  "grain_boundaries": null,
  "band_gap": 0.0,
  "cbm": null,
  "vbm": null,
  "efermi": 6.10379432,
  "is_gap_direct": null,
  "is_metal": null,
  "es_source_calc_id": null,
  "bandstructure": null,
  "dos": null,
  "dos_energy_up": null,
  "dos_energy_down": null,
  "is_magnetic": null,
  "ordering": null,
  "total_magnetization": 1e-7,
  "total_magnetization_normalized_vol": null,
  "total_magnetization_normalized_formula_units": null,
  "num_magnetic_sites": null,
  "num_unique_magnetic_sites": null,
  "types_of_magnetic_species": null,
  "bulk_modulus": null,
  "shear_modulus": null,
  "universal_anisotropy": null,
  "homogeneous_poisson": null,
  "e_total": null,
  "e_ionic": null,
  "e_electronic": null,
  "n": null,
  "e_ij_max": null,
  "weighted_surface_energy_EV_PER_ANG2": null,
  "weighted_surface_energy": null,
  "weighted_work_function": null,
  "surface_anisotropy": null,
  "shape_factor": null,
  "has_reconstructed": null,
  "possible_species": null,
  "has_props": null,
  "theoretical": null,
  "database_IDs": null,
  "fields_not_requested": [
    "builder_meta",
    "nsites",
    "elements",
    "nelements",
    "composition",
    "composition_reduced",
    "chemsys",
    "symmetry",
    "property_name",
    "deprecated",
    "deprecation_reasons",
    "last_updated",
    "origins",
    "warnings",
    "task_ids",
    "uncorrected_energy_per_atom",
    "equilibrium_reaction_energy_per_atom",
    "decomposes_to",
    "xas",
    "grain_boundaries",
    "cbm",
    "vbm",
    "is_gap_direct",
    "is_metal",
    "es_source_calc_id",
    "bandstructure",
    "dos",
    "dos_energy_up",
    "dos_energy_down",
    "is_magnetic",
    "ordering",
    "total_magnetization_normalized_vol",
    "total_magnetization_normalized_formula_units",
    "num_magnetic_sites",
    "num_unique_magnetic_sites",
    "types_of_magnetic_species",
    "bulk_modulus",
    "shear_modulus",
    "universal_anisotropy",
    "homogeneous_poisson",
    "e_total",
    "e_ionic",
    "e_electronic",
    "n",
    "e_ij_max",
    "weighted_surface_energy_EV_PER_ANG2",
    "weighted_surface_energy",
    "weighted_work_function",
    "surface_anisotropy",
    "shape_factor",
    "has_reconstructed",
    "possible_species",
    "has_props",
    "theoretical",
    "database_IDs"
  ]
}
