{"builder_meta": null, "nsites": null, "elements": null, "nelements": null, "composition": null, "composition_reduced": null, "formula_pretty": "Ti2Pd3", "formula_anonymous": "A2B3", "chemsys": null, "volume": 154.55998804680496, "density": 8.917104072186108, "density_atomic": 15.455998804680496, "symmetry": null, "property_name": null, "material_id": "mp-30840", "deprecated": null, "deprecation_reasons": null, "last_updated": null, "origins": null, "warnings": null, "structure": {"@module": "pymatgen.core.structure", "@class": "Structure", "charge": 0, "lattice": {"matrix": [[4.59806935, 0.0, 0.0], [0.0, 4.4714909800000004, -1.4478529], [0.0, -0.03261623, 7.52798767]], "pbc": [true, true, true], "a": 4.59806935, "b": 4.700054212906461, "c": 7.528058327226978, "alpha": 108.19001075977023, "beta": 90.0, "gamma": 90.0, "volume": 154.559988046805}, "properties": {}, "sites": [{"species": [{"element": "Ti", "occu": 1}], "abc": [0.75, 0.33628392, 0.21527162], "properties": {"magmom": -0.0}, "label": "Ti", "xyz": [3.4485520125000004, 1.4966691663286493, 1.1336724522655575]}, {"species": [{"element": "Ti", "occu": 1}], "abc": [0.25, 0.66371608, 0.78472838], "properties": {"magmom": -0.0}, "label": "Ti", "xyz": [1.1495173375, 2.9422055836713517, 4.946462317734443]}, {"species": [{"element": "Ti", "occu": 1}], "abc": [0.75, 0.121012299999999, 0.78472838], "properties": {"magmom": -0.0}, "label": "Ti", "xyz": [3.4485520125000004, 0.5155105265894422, 5.732217559448406]}, {"species": [{"element": "Ti", "occu": 1}], "abc": [0.25, 0.878987699999999, 0.21527162], "properties": {"magmom": -0.0}, "label": "Ti", "xyz": [1.1495173375, 3.9233642234105495, 0.34791721055159686]}, {"species": [{"element": "Pd", "occu": 1}], "abc": [0.25, 0.08889773000000001, 0.61077042], "properties": {"magmom": 0.0}, "label": "Pd", "xyz": [1.1495173375, 0.37758436934155887, 4.469161354776805]}, {"species": [{"element": "Pd", "occu": 1}], "abc": [0.75, 0.91110227, 0.38922958], "properties": {"magmom": 0.0}, "label": "Pd", "xyz": [3.4485520125000004, 4.061290380658441, 1.6109734152231958]}, {"species": [{"element": "Pd", "occu": 1}], "abc": [0.75, 0.52187269, 0.61077042], "properties": {"magmom": 0.0}, "label": "Pd", "xyz": [3.4485520125000004, 2.3136279975474197, 3.8422773033134208]}, {"species": [{"element": "Pd", "occu": 1}], "abc": [0.25, 0.47812731, 0.38922958], "properties": {"magmom": 0.0}, "label": "Pd", "xyz": [1.1495173375, 2.1252467524525804, 2.2378574666865796]}, {"species": [{"element": "Pd", "occu": 1}], "abc": [0.75, 0.70214351, -0.0], "properties": {"magmom": -0.0}, "label": "Pd", "xyz": [3.4485520125000004, 3.13962837163054, -1.016600517169679]}, {"species": [{"element": "Pd", "occu": 1}], "abc": [0.25, 0.29785649000000003, 0.0], "properties": {"magmom": -0.0}, "label": "Pd", "xyz": [1.1495173375, 1.3318626083694605, -0.431252382830321]}]}, "task_ids": null, "uncorrected_energy_per_atom": null, "energy_per_atom": -19.565838178, "formation_energy_per_atom": -0.6144632066666671, "energy_above_hull": 0.0, "is_stable": true, "equilibrium_reaction_energy_per_atom": null, "decomposes_to": null, "xas": null, "grain_boundaries": null, "band_gap": 0.0, "cbm": null, "vbm": null, "efermi": 5.86090711, "is_gap_direct": null, "is_metal": null, "es_source_calc_id": null, "bandstructure": null, "dos": null, "dos_energy_up": null, "dos_energy_down": null, "is_magnetic": null, "ordering": null, "total_magnetization": 0.0, "total_magnetization_normalized_vol": null, "total_magnetization_normalized_formula_units": null, "num_magnetic_sites": null, "num_unique_magnetic_sites": null, "types_of_magnetic_species": null, "bulk_modulus": null, "shear_modulus": null, "universal_anisotropy": null, "homogeneous_poisson": null, "e_total": null, "e_ionic": null, "e_electronic": null, "n": null, "e_ij_max": null, "weighted_surface_energy_EV_PER_ANG2": null, "weighted_surface_energy": null, "weighted_work_function": null, "surface_anisotropy": null, "shape_factor": null, "has_reconstructed": null, "possible_species": null, "has_props": null, "theoretical": null, "database_IDs": null, "fields_not_requested": ["builder_meta", "nsites", "elements", "nelements", "composition", "composition_reduced", "chemsys", "symmetry", "property_name", "deprecated", "deprecation_reasons", "last_updated", "origins", "warnings", "task_ids", "uncorrected_energy_per_atom", "equilibrium_reaction_energy_per_atom", "decomposes_to", "xas", "grain_boundaries", "cbm", "vbm", "is_gap_direct", "is_metal", "es_source_calc_id", "bandstructure", "dos", "dos_energy_up", "dos_energy_down", "is_magnetic", "ordering", "total_magnetization_normalized_vol", "total_magnetization_normalized_formula_units", "num_magnetic_sites", "num_unique_magnetic_sites", "types_of_magnetic_species", "bulk_modulus", "shear_modulus", "universal_anisotropy", "homogeneous_poisson", "e_total", "e_ionic", "e_electronic", "n", "e_ij_max", "weighted_surface_energy_EV_PER_ANG2", "weighted_surface_energy", "weighted_work_function", "surface_anisotropy", "shape_factor", "has_reconstructed", "possible_species", "has_props", "theoretical", "database_IDs"]}