{
  "builder_meta": null,
  "nsites": null,
  "elements": null,
  "nelements": null,
  "composition": null,
  "composition_reduced": null,
  "formula_pretty": "Ti2P",
  "formula_anonymous": "AB2",
  "chemsys": null,
  "volume": 132.47391456676627,
  "density": 4.7647838337957324,
  "density_atomic": 14.719323840751807,
  "symmetry": null,
  "property_name": null,
  "material_id": "mp-30218",
  "deprecated": null,
  "deprecation_reasons": null,
  "last_updated": null,
  "origins": null,
  "warnings": null,
  "structure": {
    "@module": "pymatgen.core.structure",
    "@class": "Structure",
    "charge": 0,
    "lattice": {
      "matrix": [
        [3.30245402, -5.72006122, 0.0],
        [3.30249433, 5.72008418, 0.0],
        [0.0, 0.0, 3.50638335]
      ],
      "pbc": [true, true, true],
      "a": 6.604945337757312,
      "b": 6.604985376665751,
      "c": 3.50638335,
      "alpha": 90.0,
      "beta": 90.0,
      "gamma": 120.00017035531535,
      "volume": 132.47391456676627
    },
    "properties": {},
    "sites": [
      {
        "species": [{ "element": "Ti", "occu": 1 }],
        "abc": [1.1970000000000002e-5, 0.25398221, 0.5],
        "properties": { "magmom": 0.0 },
        "label": "Ti",
        "xyz": [0.8388143388204886, 1.4527311522896342, 1.753191675]
      },
      {
        "species": [{ "element": "Ti", "occu": 1 }],
        "abc": [0.25396216, -5.08e-6, 0.5],
        "properties": { "magmom": 0.0 },
        "label": "Ti",
        "xyz": [0.8386815795486867, -1.4527081607910695, 1.753191675]
      },
      {
        "species": [{ "element": "Ti", "occu": 1 }],
        "abc": [0.74603413, 0.7460182, 0.5],
        "properties": { "magmom": 0.0 },
        "label": "Ti",
        "xyz": [4.9274642872525085, -7.399199736290996e-5, 1.753191675]
      },
      {
        "species": [{ "element": "Ti", "occu": 1 }],
        "abc": [0.59163685, 1.969999999999999e-6, -0.0],
        "properties": { "magmom": 0.0 },
        "label": "Ti",
        "xyz": [1.953859999576467, -3.384187733442122, 0.0]
      },
      {
        "species": [{ "element": "Ti", "occu": 1 }],
        "abc": [0.4083788, 0.408393, 0.0],
        "properties": { "magmom": -0.0 },
        "label": "Ti",
        "xyz": [2.697367776654466, 9.060157260432078e-5, 0.0]
      },
      {
        "species": [{ "element": "Ti", "occu": 1 }],
        "abc": [0.99998875, 0.591608799999999, 0.0],
        "properties": { "magmom": 0.0 },
        "label": "Ti",
        "xyz": [5.256201574970376, -2.3359447316824964, 0.0]
      },
      {
        "species": [{ "element": "P", "occu": 1 }],
        "abc": [0.99999076, -9.3e-7, 0.0],
        "properties": { "magmom": -0.0 },
        "label": "P",
        "xyz": [3.302420434005128, -5.7200136863126145, 0.0]
      },
      {
        "species": [{ "element": "P", "occu": 1 }],
        "abc": [0.66665686, 0.33331924, 0.5],
        "properties": { "magmom": -0.0 },
        "label": "P",
        "xyz": [3.3023885274474862, -1.906703940319346, 1.753191675]
      },
      {
        "species": [{ "element": "P", "occu": 1 }],
        "abc": [0.33334072, 0.66668259, 0.5],
        "properties": { "magmom": -0.0 },
        "label": "P",
        "xyz": [3.302557874178409, 1.9067512106215478, 1.753191675]
      }
    ]
  },
  "task_ids": null,
  "uncorrected_energy_per_atom": null,
  "energy_per_atom": -12.75421828,
  "formation_energy_per_atom": -1.128354833769839,
  "energy_above_hull": 0.0,
  "is_stable": true,
  "equilibrium_reaction_energy_per_atom": null,
  "decomposes_to": null,
  "xas": null,
  "grain_boundaries": null,
  "band_gap": 0.0,
  "cbm": null,
  "vbm": null,
  "efermi": 8.12563492,
  "is_gap_direct": null,
  "is_metal": null,
  "es_source_calc_id": null,
  "bandstructure": null,
  "dos": null,
  "dos_energy_up": null,
  "dos_energy_down": null,
  "is_magnetic": null,
  "ordering": null,
  "total_magnetization": 0.000333199999999,
  "total_magnetization_normalized_vol": null,
  "total_magnetization_normalized_formula_units": null,
  "num_magnetic_sites": null,
  "num_unique_magnetic_sites": null,
  "types_of_magnetic_species": null,
  "bulk_modulus": null,
  "shear_modulus": null,
  "universal_anisotropy": null,
  "homogeneous_poisson": null,
  "e_total": null,
  "e_ionic": null,
  "e_electronic": null,
  "n": null,
  "e_ij_max": null,
  "weighted_surface_energy_EV_PER_ANG2": null,
  "weighted_surface_energy": null,
  "weighted_work_function": null,
  "surface_anisotropy": null,
  "shape_factor": null,
  "has_reconstructed": null,
  "possible_species": null,
  "has_props": null,
  "theoretical": null,
  "database_IDs": null,
  "fields_not_requested": [
    "builder_meta",
    "nsites",
    "elements",
    "nelements",
    "composition",
    "composition_reduced",
    "chemsys",
    "symmetry",
    "property_name",
    "deprecated",
    "deprecation_reasons",
    "last_updated",
    "origins",
    "warnings",
    "task_ids",
    "uncorrected_energy_per_atom",
    "equilibrium_reaction_energy_per_atom",
    "decomposes_to",
    "xas",
    "grain_boundaries",
    "cbm",
    "vbm",
    "is_gap_direct",
    "is_metal",
    "es_source_calc_id",
    "bandstructure",
    "dos",
    "dos_energy_up",
    "dos_energy_down",
    "is_magnetic",
    "ordering",
    "total_magnetization_normalized_vol",
    "total_magnetization_normalized_formula_units",
    "num_magnetic_sites",
    "num_unique_magnetic_sites",
    "types_of_magnetic_species",
    "bulk_modulus",
    "shear_modulus",
    "universal_anisotropy",
    "homogeneous_poisson",
    "e_total",
    "e_ionic",
    "e_electronic",
    "n",
    "e_ij_max",
    "weighted_surface_energy_EV_PER_ANG2",
    "weighted_surface_energy",
    "weighted_work_function",
    "surface_anisotropy",
    "shape_factor",
    "has_reconstructed",
    "possible_species",
    "has_props",
    "theoretical",
    "database_IDs"
  ]
}
