{"builder_meta": null, "nsites": null, "elements": null, "nelements": null, "composition": null, "composition_reduced": null, "formula_pretty": "Ti2Sn3", "formula_anonymous": "A2B3", "chemsys": null, "volume": 419.6566104860378, "density": 7.1519218908156, "density_atomic": 20.98283052430189, "symmetry": null, "property_name": null, "material_id": "mp-637255", "deprecated": null, "deprecation_reasons": null, "last_updated": null, "origins": null, "warnings": null, "structure": {"@module": "pymatgen.core.structure", "@class": "Structure", "charge": 0, "lattice": {"matrix": [[5.71698178, 4.9190000000000015e-05, -1.7081978100000001], [6.764000000000002e-05, 7.02979359, -3.643e-05], [-0.00301, -5.071e-05, 10.44292337]], "pbc": [true, true, true], "a": 5.966726106782548, "b": 7.029793590419807, "c": 10.44292380391448, "alpha": 90.00057530244527, "beta": 106.65232565541501, "gamma": 89.99891442682097, "volume": 419.6566104860378}, "properties": {}, "sites": [{"species": [{"element": "Ti", "occu": 1}], "abc": [0.08141453, 0.45303873, 0.16112003], "properties": {"magmom": -0.0}, "label": "Ti", "xyz": [0.4649910568866606, 3.18476459455975, 1.5434755006129879]}, {"species": [{"element": "Ti", "occu": 1}], "abc": [0.58669627, 0.25019768, 0.67350806], "properties": {"magmom": 0.0}, "label": "Ti", "xyz": [3.352121550094436, 1.7588327530926697, 6.03119066140671]}, {"species": [{"element": "Ti", "occu": 1}], "abc": [0.914187299999999, 0.7503281900000001, 0.3262638], "properties": {"magmom": -0.0}, "label": "Ti", "xyz": [5.22546083576816, 5.274680724494291, 1.845507783559233]}, {"species": [{"element": "Ti", "occu": 1}], "abc": [0.41415887, 0.75043092, 0.32624015], "properties": {"magmom": 0.0}, "label": "Ti", "xyz": [2.3668074901113174, 5.275378299990612, 2.699408273742815]}, {"species": [{"element": "Ti", "occu": 1}], "abc": [0.58133885, 0.04775986, 0.16111945], "properties": {"magmom": 0.0}, "label": "Ti", "xyz": [3.3230218743885835, 0.33576238337801945, 0.6895145794369282]}, {"species": [{"element": "Ti", "occu": 1}], "abc": [0.08670856, 0.25048054000000003, 0.6734906700000001], "properties": {"magmom": -0.0}, "label": "Ti", "xyz": [0.4937009932770624, 1.7607966069939294, 6.885086959913633]}, {"species": [{"element": "Ti", "occu": 1}], "abc": [0.9197986100000001, 0.54774479, 0.83865343], "properties": {"magmom": -0.0}, "label": "Ti", "xyz": [5.255984597272621, 3.8505355304760864, 7.1867755778919165]}, {"species": [{"element": "Ti", "occu": 1}], "abc": [0.41985549, 0.953004899999999, 0.83863573], "properties": {"magmom": 0.0}, "label": "Ti", "xyz": [2.3978463542671085, 6.699405862732269, 8.040577717231027]}, {"species": [{"element": "Sn", "occu": 1}], "abc": [0.22495802, 0.42898986, 0.44854374], "properties": {"magmom": -0.0}, "label": "Sn", "xyz": [1.2847598018216062, 3.015698488034946, 4.2998194797066684]}, {"species": [{"element": "Sn", "occu": 1}], "abc": [0.8787147, 0.92672236, 0.75716763], "properties": {"magmom": -0.0}, "label": "Sn", "xyz": [5.021379538652296, 6.5146717340432465, 6.4059912516841315]}, {"species": [{"element": "Sn", "occu": 1}], "abc": [0.72488017, 0.07174497, 0.4485326], "properties": {"magmom": -0.0}, "label": "Sn", "xyz": [4.142781494277074, 0.5043652419881586, 3.4457502381711773]}, {"species": [{"element": "Sn", "occu": 1}], "abc": [0.27574827, 0.9289392200000001, 0.55121663], "properties": {"magmom": -0.0}, "label": "Sn", "xyz": [1.5748515068490616, 6.530236586117694, 5.285246595178569]}, {"species": [{"element": "Sn", "occu": 1}], "abc": [0.77154925, 0.7507193600000001, 0.040580899999999004], "properties": {"magmom": 0.0}, "label": "Sn", "xyz": [4.410861634771176, 5.2774380394670715, -0.8942028588778046]}, {"species": [{"element": "Sn", "occu": 1}], "abc": [0.12250262, 0.07401924, 0.2426103], "properties": {"magmom": -0.0}, "label": "Sn", "xyz": [0.6996199962006573, 0.5203337020242363, 2.3242993679485355]}, {"species": [{"element": "Sn", "occu": 1}], "abc": [0.37864512, 0.57396459, 0.75717731], "properties": {"magmom": -0.0}, "label": "Sn", "xyz": [2.1624669713876816, 4.0348328247610405, 7.260322951551535]}, {"species": [{"element": "Sn", "occu": 1}], "abc": [0.72999842, 0.25053616, 0.9592476400000001], "properties": {"magmom": 0.0}, "label": "Sn", "xyz": [4.17051727743825, 1.76120475680567, 8.77035876799358]}, {"species": [{"element": "Sn", "occu": 1}], "abc": [0.77570567, 0.5716854100000001, 0.55120201], "properties": {"magmom": 0.0}, "label": "Sn", "xyz": [4.433074732783725, 4.018840636222502, 4.431080798621905]}, {"species": [{"element": "Sn", "occu": 1}], "abc": [0.2715223, 0.75007329, 0.040525860000000004], "properties": {"magmom": -0.0}, "label": "Sn", "xyz": [1.5522167940824294, 5.272871707187788, -0.04063267291276945]}, {"species": [{"element": "Sn", "occu": 1}], "abc": [0.22997334, 0.25014674, 0.95920824], "properties": {"magmom": 0.0}, "label": "Sn", "xyz": [1.311883097788839, 1.7584426203501404, 9.624089077600447]}, {"species": [{"element": "Sn", "occu": 1}], "abc": [0.62252064, 0.42681518, 0.24252082], "properties": {"magmom": -0.0}, "label": "Sn", "xyz": [3.5582380386645145, 3.0004409400381955, 1.4692223960847577]}]}, "task_ids": null, "uncorrected_energy_per_atom": null, "energy_per_atom": -20.3230822485, "formation_energy_per_atom": -0.300269175166667, "energy_above_hull": 0.0, "is_stable": true, "equilibrium_reaction_energy_per_atom": null, "decomposes_to": null, "xas": null, "grain_boundaries": null, "band_gap": 0.0, "cbm": null, "vbm": null, "efermi": 8.27685041, "is_gap_direct": null, "is_metal": null, "es_source_calc_id": null, "bandstructure": null, "dos": null, "dos_energy_up": null, "dos_energy_down": null, "is_magnetic": null, "ordering": null, "total_magnetization": 1e-07, "total_magnetization_normalized_vol": null, "total_magnetization_normalized_formula_units": null, "num_magnetic_sites": null, "num_unique_magnetic_sites": null, "types_of_magnetic_species": null, "bulk_modulus": null, "shear_modulus": null, "universal_anisotropy": null, "homogeneous_poisson": null, "e_total": null, "e_ionic": null, "e_electronic": null, "n": null, "e_ij_max": null, "weighted_surface_energy_EV_PER_ANG2": null, "weighted_surface_energy": null, "weighted_work_function": null, "surface_anisotropy": null, "shape_factor": null, "has_reconstructed": null, "possible_species": null, "has_props": null, "theoretical": null, "database_IDs": null, "fields_not_requested": ["builder_meta", "nsites", "elements", "nelements", "composition", "composition_reduced", "chemsys", "symmetry", "property_name", "deprecated", "deprecation_reasons", "last_updated", "origins", "warnings", "task_ids", "uncorrected_energy_per_atom", "equilibrium_reaction_energy_per_atom", "decomposes_to", "xas", "grain_boundaries", "cbm", "vbm", "is_gap_direct", "is_metal", "es_source_calc_id", "bandstructure", "dos", "dos_energy_up", "dos_energy_down", "is_magnetic", "ordering", "total_magnetization_normalized_vol", "total_magnetization_normalized_formula_units", "num_magnetic_sites", "num_unique_magnetic_sites", "types_of_magnetic_species", "bulk_modulus", "shear_modulus", "universal_anisotropy", "homogeneous_poisson", "e_total", "e_ionic", "e_electronic", "n", "e_ij_max", "weighted_surface_energy_EV_PER_ANG2", "weighted_surface_energy", "weighted_work_function", "surface_anisotropy", "shape_factor", "has_reconstructed", "possible_species", "has_props", "theoretical", "database_IDs"]}