{
  "builder_meta": null,
  "nsites": null,
  "elements": null,
  "nelements": null,
  "composition": null,
  "composition_reduced": null,
  "formula_pretty": "Ti2Se3",
  "formula_anonymous": "A2B3",
  "chemsys": null,
  "volume": 410.3849278642438,
  "density": 5.383419356773262,
  "density_atomic": 20.519246393212192,
  "symmetry": null,
  "property_name": null,
  "material_id": "mp-1208273",
  "deprecated": null,
  "deprecation_reasons": null,
  "last_updated": null,
  "origins": null,
  "warnings": null,
  "structure": {
    "@module": "pymatgen.core.structure",
    "@class": "Structure",
    "charge": 0,
    "lattice": {
      "matrix": [
        [3.14667151, -5.45019537, -0.0],
        [3.14667151, 5.45019537, 0.0],
        [0.0, -0.0, 11.96459295]
      ],
      "pbc": [true, true, true],
      "a": 6.2933434010083324,
      "b": 6.2933434010083324,
      "c": 11.96459295,
      "alpha": 90.0,
      "beta": 90.0,
      "gamma": 120.00000400539211,
      "volume": 410.3849278642438
    },
    "properties": {},
    "sites": [
      {
        "species": [{ "element": "Ti", "occu": 1 }],
        "abc": [0.666667, 0.333333, 0.50542537],
        "properties": { "magmom": 0.28200000000000003 },
        "label": "Ti",
        "xyz": [3.14667151, -1.8167354234635802, 6.047208818653141]
      },
      {
        "species": [{ "element": "Ti", "occu": 1 }],
        "abc": [0.333333, 0.666667, 0.49457463],
        "properties": { "magmom": 0.28200000000000003 },
        "label": "Ti",
        "xyz": [3.14667151, 1.8167354234635802, 5.917384131346859]
      },
      {
        "species": [{ "element": "Ti", "occu": 1 }],
        "abc": [0.666667, 0.333333, 0.99457463],
        "properties": { "magmom": 0.28200000000000003 },
        "label": "Ti",
        "xyz": [3.14667151, -1.8167354234635802, 11.899680606346859]
      },
      {
        "species": [{ "element": "Ti", "occu": 1 }],
        "abc": [0.333333, 0.666667, 0.0054253700000000005],
        "properties": { "magmom": 0.28200000000000003 },
        "label": "Ti",
        "xyz": [3.14667151, 1.8167354234635802, 0.06491234365314151]
      },
      {
        "species": [{ "element": "Ti", "occu": 1 }],
        "abc": [-0.0, -0.0, 0.5],
        "properties": { "magmom": 0.735 },
        "label": "Ti",
        "xyz": [0.0, 0.0, 5.982296475]
      },
      {
        "species": [{ "element": "Ti", "occu": 1 }],
        "abc": [-0.0, -0.0, 0.0],
        "properties": { "magmom": 0.735 },
        "label": "Ti",
        "xyz": [0.0, 0.0, 0.0]
      },
      {
        "species": [{ "element": "Ti", "occu": 1 }],
        "abc": [0.666667, 0.333333, 0.75],
        "properties": { "magmom": 0.051000000000000004 },
        "label": "Ti",
        "xyz": [3.14667151, -1.8167354234635802, 8.973444712500001]
      },
      {
        "species": [{ "element": "Ti", "occu": 1 }],
        "abc": [0.333333, 0.666667, 0.25],
        "properties": { "magmom": 0.051000000000000004 },
        "label": "Ti",
        "xyz": [3.14667151, 1.8167354234635802, 2.9911482375]
      },
      {
        "species": [{ "element": "Se", "occu": 1 }],
        "abc": [0.66605073, 0.99546296, 0.6273443200000001],
        "properties": { "magmom": -0.026000000000000002 },
        "label": "Se",
        "xyz": [5.228237791797972, 1.7953610107673756, 7.505919428294545]
      },
      {
        "species": [{ "element": "Se", "occu": 1 }],
        "abc": [0.33394927, 0.00453704, 0.37265568],
        "properties": { "magmom": -0.026000000000000002 },
        "label": "Se",
        "xyz": [1.0651052282020281, -1.7953610107673754, 4.458673521705456]
      },
      {
        "species": [{ "element": "Se", "occu": 1 }],
        "abc": [0.00453704, 0.67058777, 0.6273443200000001],
        "properties": { "magmom": -0.026000000000000002 },
        "label": "Se",
        "xyz": [2.1243960053211635, 3.6301066048311204, 7.505919428294545]
      },
      {
        "species": [{ "element": "Se", "occu": 1 }],
        "abc": [0.66605073, 0.67058777, 0.87265568],
        "properties": { "magmom": -0.026000000000000002 },
        "label": "Se",
        "xyz": [4.205962287119135, 0.024727754401504765, 10.440969996705457]
      },
      {
        "species": [{ "element": "Se", "occu": 1 }],
        "abc": [0.99546296, 0.32941223000000003, 0.37265568],
        "properties": { "magmom": -0.026000000000000002 },
        "label": "Se",
        "xyz": [4.168947014678837, -3.630106604831121, 4.458673521705456]
      },
      {
        "species": [{ "element": "Se", "occu": 1 }],
        "abc": [0.33394927, 0.32941223000000003, 0.12734432],
        "properties": { "magmom": -0.026000000000000002 },
        "label": "Se",
        "xyz": [2.087380732880865, -0.024727754401504765, 1.5236229532945442]
      },
      {
        "species": [{ "element": "Se", "occu": 1 }],
        "abc": [0.32941223000000003, 0.33394927, 0.6273443200000001],
        "properties": { "magmom": -0.026000000000000002 },
        "label": "Se",
        "xyz": [2.087380732880865, 0.024727754401504765, 7.505919428294545]
      },
      {
        "species": [{ "element": "Se", "occu": 1 }],
        "abc": [0.00453704, 0.33394927, 0.87265568],
        "properties": { "magmom": -0.026000000000000002 },
        "label": "Se",
        "xyz": [1.0651052282020281, 1.7953610107673754, 10.440969996705457]
      },
      {
        "species": [{ "element": "Se", "occu": 1 }],
        "abc": [0.67058777, 0.66605073, 0.37265568],
        "properties": { "magmom": -0.026000000000000002 },
        "label": "Se",
        "xyz": [4.205962287119135, -0.024727754401504765, 4.458673521705456]
      },
      {
        "species": [{ "element": "Se", "occu": 1 }],
        "abc": [0.99546296, 0.66605073, 0.12734432],
        "properties": { "magmom": -0.026000000000000002 },
        "label": "Se",
        "xyz": [5.228237791797972, -1.7953610107673756, 1.5236229532945442]
      },
      {
        "species": [{ "element": "Se", "occu": 1 }],
        "abc": [0.32941223000000003, 0.99546296, 0.87265568],
        "properties": { "magmom": -0.026000000000000002 },
        "label": "Se",
        "xyz": [4.168947014678837, 3.630106604831121, 10.440969996705457]
      },
      {
        "species": [{ "element": "Se", "occu": 1 }],
        "abc": [0.67058777, 0.00453704, 0.12734432],
        "properties": { "magmom": -0.026000000000000002 },
        "label": "Se",
        "xyz": [2.1243960053211635, -3.6301066048311204, 1.5236229532945442]
      }
    ]
  },
  "task_ids": null,
  "uncorrected_energy_per_atom": null,
  "energy_per_atom": -6.709594939499998,
  "formation_energy_per_atom": -1.453851246239581,
  "energy_above_hull": 0.012455832500001,
  "is_stable": false,
  "equilibrium_reaction_energy_per_atom": null,
  "decomposes_to": null,
  "xas": null,
  "grain_boundaries": null,
  "band_gap": 0.0,
  "cbm": null,
  "vbm": null,
  "efermi": 5.15354954,
  "is_gap_direct": null,
  "is_metal": null,
  "es_source_calc_id": null,
  "bandstructure": null,
  "dos": null,
  "dos_energy_up": null,
  "dos_energy_down": null,
  "is_magnetic": null,
  "ordering": null,
  "total_magnetization": 2.8445532,
  "total_magnetization_normalized_vol": null,
  "total_magnetization_normalized_formula_units": null,
  "num_magnetic_sites": null,
  "num_unique_magnetic_sites": null,
  "types_of_magnetic_species": null,
  "bulk_modulus": null,
  "shear_modulus": null,
  "universal_anisotropy": null,
  "homogeneous_poisson": null,
  "e_total": null,
  "e_ionic": null,
  "e_electronic": null,
  "n": null,
  "e_ij_max": null,
  "weighted_surface_energy_EV_PER_ANG2": null,
  "weighted_surface_energy": null,
  "weighted_work_function": null,
  "surface_anisotropy": null,
  "shape_factor": null,
  "has_reconstructed": null,
  "possible_species": null,
  "has_props": null,
  "theoretical": null,
  "database_IDs": null,
  "fields_not_requested": [
    "builder_meta",
    "nsites",
    "elements",
    "nelements",
    "composition",
    "composition_reduced",
    "chemsys",
    "symmetry",
    "property_name",
    "deprecated",
    "deprecation_reasons",
    "last_updated",
    "origins",
    "warnings",
    "task_ids",
    "uncorrected_energy_per_atom",
    "equilibrium_reaction_energy_per_atom",
    "decomposes_to",
    "xas",
    "grain_boundaries",
    "cbm",
    "vbm",
    "is_gap_direct",
    "is_metal",
    "es_source_calc_id",
    "bandstructure",
    "dos",
    "dos_energy_up",
    "dos_energy_down",
    "is_magnetic",
    "ordering",
    "total_magnetization_normalized_vol",
    "total_magnetization_normalized_formula_units",
    "num_magnetic_sites",
    "num_unique_magnetic_sites",
    "types_of_magnetic_species",
    "bulk_modulus",
    "shear_modulus",
    "universal_anisotropy",
    "homogeneous_poisson",
    "e_total",
    "e_ionic",
    "e_electronic",
    "n",
    "e_ij_max",
    "weighted_surface_energy_EV_PER_ANG2",
    "weighted_surface_energy",
    "weighted_work_function",
    "surface_anisotropy",
    "shape_factor",
    "has_reconstructed",
    "possible_species",
    "has_props",
    "theoretical",
    "database_IDs"
  ]
}
