{"builder_meta": null, "nsites": null, "elements": null, "nelements": null, "composition": null, "composition_reduced": null, "formula_pretty": "Ti2S", "formula_anonymous": "AB2", "chemsys": null, "volume": 527.413887485313, "density": 4.828433316784582, "density_atomic": 14.650385763480918, "symmetry": null, "property_name": null, "material_id": "mp-616559", "deprecated": null, "deprecation_reasons": null, "last_updated": null, "origins": null, "warnings": null, "structure": {"@module": "pymatgen.core.structure", "@class": "Structure", "charge": 0, "lattice": {"matrix": [[3.31829333, 0.0, 0.0], [0.0, 11.35121262, 0.0], [0.0, -0.0, 14.00214364]], "pbc": [true, true, true], "a": 3.31829333, "b": 11.35121262, "c": 14.00214364, "alpha": 90.0, "beta": 90.0, "gamma": 90.0, "volume": 527.413887485313}, "properties": {}, "sites": [{"species": [{"element": "Ti", "occu": 1}], "abc": [0.5, 0.41065187000000003, 0.75689138], "properties": {"magmom": 0.0}, "label": "Ti", "xyz": [1.659146665, 4.6613966891706, 10.598101822637823]}, {"species": [{"element": "Ti", "occu": 1}], "abc": [0.5, 0.38173, 0.07759981], "properties": {"magmom": 0.0}, "label": "Ti", "xyz": [1.659146665, 4.3330983934326, 1.0865636860567085]}, {"species": [{"element": "Ti", "occu": 1}], "abc": [-0.0, 0.811238799999999, 0.20831072], "properties": {"magmom": -0.0}, "label": "Ti", "xyz": [0.0, 9.208544104393646, 2.916796623191821]}, {"species": [{"element": "Ti", "occu": 1}], "abc": [-0.0, 0.47043329, 0.3896879], "properties": {"magmom": 0.0}, "label": "Ti", "xyz": [0.0, 5.33998829831612, 5.456465950569956]}, {"species": [{"element": "Ti", "occu": 1}], "abc": [0.0, 0.08934813, 0.25689138], "properties": {"magmom": 0.0}, "label": "Ti", "xyz": [0.0, 1.0142096208294007, 3.597030002637823]}, {"species": [{"element": "Ti", "occu": 1}], "abc": [0.5, 0.6182700000000001, 0.9224001900000001], "properties": {"magmom": 0.0}, "label": "Ti", "xyz": [1.659146665, 7.018114226567401, 12.915579953943292]}, {"species": [{"element": "Ti", "occu": 1}], "abc": [-0.0, 0.58969773, 0.07905441], "properties": {"magmom": 0.0}, "label": "Ti", "xyz": [0.0, 6.693784314761353, 1.1069312041954524]}, {"species": [{"element": "Ti", "occu": 1}], "abc": [0.0, 0.91065187, 0.74310862], "properties": {"magmom": 0.0}, "label": "Ti", "xyz": [0.0, 10.3370029991706, 10.405113637362177]}, {"species": [{"element": "Ti", "occu": 1}], "abc": [0.5, 0.91030227, 0.57905441], "properties": {"magmom": 0.0}, "label": "Ti", "xyz": [1.659146665, 10.333034615238647, 8.108003024195453]}, {"species": [{"element": "Ti", "occu": 1}], "abc": [-0.0, 0.84712825, 0.9798269900000001], "properties": {"magmom": -0.0}, "label": "Ti", "xyz": [0.0, 9.615932882158516, 13.719678256328844]}, {"species": [{"element": "Ti", "occu": 1}], "abc": [0.5, 0.3112388, 0.29168928], "properties": {"magmom": -0.0}, "label": "Ti", "xyz": [1.659146665, 3.5329377943936557, 4.084275196808179]}, {"species": [{"element": "Ti", "occu": 1}], "abc": [0.5, 0.08969773, 0.42094559000000004], "properties": {"magmom": 0.0}, "label": "Ti", "xyz": [1.659146665, 1.0181780047613527, 5.894140615804548]}, {"species": [{"element": "Ti", "occu": 1}], "abc": [0.5, 0.02956671, 0.8896879], "properties": {"magmom": 0.0}, "label": "Ti", "xyz": [1.659146665, 0.3356180116838802, 12.457537770569955]}, {"species": [{"element": "Ti", "occu": 1}], "abc": [0.5, 0.97043329, 0.1103121], "properties": {"magmom": 0.0}, "label": "Ti", "xyz": [1.659146665, 11.01559460831612, 1.544605869430044]}, {"species": [{"element": "Ti", "occu": 1}], "abc": [0.0, 0.1887612, 0.79168928], "properties": {"magmom": -0.0}, "label": "Ti", "xyz": [0.0, 2.142668515606344, 11.08534701680818]}, {"species": [{"element": "Ti", "occu": 1}], "abc": [0.5, 0.65287175, 0.47982699], "properties": {"magmom": -0.0}, "label": "Ti", "xyz": [1.659146665, 7.410886047841485, 6.718606436328844]}, {"species": [{"element": "Ti", "occu": 1}], "abc": [0.5, 0.6887612, 0.7083107200000001], "properties": {"magmom": -0.0}, "label": "Ti", "xyz": [1.659146665, 7.818274825606344, 9.917868443191821]}, {"species": [{"element": "Ti", "occu": 1}], "abc": [0.5, 0.34712825, 0.52017301], "properties": {"magmom": -0.0}, "label": "Ti", "xyz": [1.659146665, 3.9403265721585155, 7.283537203671157]}, {"species": [{"element": "Ti", "occu": 1}], "abc": [-0.0, 0.41030227, 0.92094559], "properties": {"magmom": 0.0}, "label": "Ti", "xyz": [0.0, 4.657428305238648, 12.895212435804547]}, {"species": [{"element": "Ti", "occu": 1}], "abc": [-0.0, 0.52956671, 0.6103121], "properties": {"magmom": 0.0}, "label": "Ti", "xyz": [0.0, 6.01122432168388, 8.545677689430045]}, {"species": [{"element": "Ti", "occu": 1}], "abc": [0.5, 0.58934813, 0.24310862], "properties": {"magmom": 0.0}, "label": "Ti", "xyz": [1.659146665, 6.6898159308294005, 3.404041817362177]}, {"species": [{"element": "Ti", "occu": 1}], "abc": [-0.0, 0.8817300000000001, 0.42240019], "properties": {"magmom": 0.0}, "label": "Ti", "xyz": [0.0, 10.0087047034326, 5.914508133943292]}, {"species": [{"element": "Ti", "occu": 1}], "abc": [0.0, 0.15287175, 0.02017301], "properties": {"magmom": -0.0}, "label": "Ti", "xyz": [0.0, 1.735279737841485, 0.2824653836711564]}, {"species": [{"element": "Ti", "occu": 1}], "abc": [0.0, 0.11827000000000001, 0.57759981], "properties": {"magmom": 0.0}, "label": "Ti", "xyz": [0.0, 1.3425079165674, 8.087635506056708]}, {"species": [{"element": "S", "occu": 1}], "abc": [-0.0, 0.5656742300000001, 0.79393508], "properties": {"magmom": -0.0}, "label": "S", "xyz": [0.0, 6.421088458384784, 11.116793030994891]}, {"species": [{"element": "S", "occu": 1}], "abc": [0.5, 0.06567423, 0.70606492], "properties": {"magmom": -0.0}, "label": "S", "xyz": [1.659146665, 0.7454821483847827, 9.886422429005108]}, {"species": [{"element": "S", "occu": 1}], "abc": [-0.0, 0.43432577, 0.20606492], "properties": {"magmom": -0.0}, "label": "S", "xyz": [0.0, 4.930124161615217, 2.885350609005109]}, {"species": [{"element": "S", "occu": 1}], "abc": [-0.0, 0.75374632, 0.58882291], "properties": {"magmom": -0.0}, "label": "S", "xyz": [0.0, 8.555934739862558, 8.244782964342791]}, {"species": [{"element": "S", "occu": 1}], "abc": [0.5, 0.81370875, 0.85053182], "properties": {"magmom": 0.0}, "label": "S", "xyz": [1.659146665, 9.236581032004425, 11.909268714030626]}, {"species": [{"element": "S", "occu": 1}], "abc": [0.5, 0.93432577, 0.29393508], "properties": {"magmom": -0.0}, "label": "S", "xyz": [1.659146665, 10.605730471615217, 4.1157212109948915]}, {"species": [{"element": "S", "occu": 1}], "abc": [0.5, 0.18629125, 0.14946818], "properties": {"magmom": 0.0}, "label": "S", "xyz": [1.659146665, 2.114631587995575, 2.092874925969375]}, {"species": [{"element": "S", "occu": 1}], "abc": [0.5, 0.74625368, 0.08882291], "properties": {"magmom": -0.0}, "label": "S", "xyz": [1.659146665, 8.470884190137442, 1.2437111443427924]}, {"species": [{"element": "S", "occu": 1}], "abc": [-0.0, 0.31370875, 0.6494681800000001], "properties": {"magmom": 0.0}, "label": "S", "xyz": [0.0, 3.560974722004425, 9.093946745969376]}, {"species": [{"element": "S", "occu": 1}], "abc": [0.5, 0.25374632, 0.91117709], "properties": {"magmom": -0.0}, "label": "S", "xyz": [1.659146665, 2.880328429862559, 12.758432495657209]}, {"species": [{"element": "S", "occu": 1}], "abc": [-0.0, 0.68629125, 0.35053182], "properties": {"magmom": 0.0}, "label": "S", "xyz": [0.0, 7.790237897995575, 4.908196894030625]}, {"species": [{"element": "S", "occu": 1}], "abc": [0.0, 0.24625368, 0.41117709], "properties": {"magmom": -0.0}, "label": "S", "xyz": [0.0, 2.7952778801374416, 5.757360675657208]}]}, "task_ids": null, "uncorrected_energy_per_atom": null, "energy_per_atom": -7.897291330833332, "formation_energy_per_atom": -1.25417679722222, "energy_above_hull": 0.0, "is_stable": true, "equilibrium_reaction_energy_per_atom": null, "decomposes_to": null, "xas": null, "grain_boundaries": null, "band_gap": 0.0, "cbm": null, "vbm": null, "efermi": 8.26313446, "is_gap_direct": null, "is_metal": null, "es_source_calc_id": null, "bandstructure": null, "dos": null, "dos_energy_up": null, "dos_energy_down": null, "is_magnetic": null, "ordering": null, "total_magnetization": 4e-07, "total_magnetization_normalized_vol": null, "total_magnetization_normalized_formula_units": null, "num_magnetic_sites": null, "num_unique_magnetic_sites": null, "types_of_magnetic_species": null, "bulk_modulus": null, "shear_modulus": null, "universal_anisotropy": null, "homogeneous_poisson": null, "e_total": null, "e_ionic": null, "e_electronic": null, "n": null, "e_ij_max": null, "weighted_surface_energy_EV_PER_ANG2": null, "weighted_surface_energy": null, "weighted_work_function": null, "surface_anisotropy": null, "shape_factor": null, "has_reconstructed": null, "possible_species": null, "has_props": null, "theoretical": null, "database_IDs": null, "fields_not_requested": ["builder_meta", "nsites", "elements", "nelements", "composition", "composition_reduced", "chemsys", "symmetry", "property_name", "deprecated", "deprecation_reasons", "last_updated", "origins", "warnings", "task_ids", "uncorrected_energy_per_atom", "equilibrium_reaction_energy_per_atom", "decomposes_to", "xas", "grain_boundaries", "cbm", "vbm", "is_gap_direct", "is_metal", "es_source_calc_id", "bandstructure", "dos", "dos_energy_up", "dos_energy_down", "is_magnetic", "ordering", "total_magnetization_normalized_vol", "total_magnetization_normalized_formula_units", "num_magnetic_sites", "num_unique_magnetic_sites", "types_of_magnetic_species", "bulk_modulus", "shear_modulus", "universal_anisotropy", "homogeneous_poisson", "e_total", "e_ionic", "e_electronic", "n", "e_ij_max", "weighted_surface_energy_EV_PER_ANG2", "weighted_surface_energy", "weighted_work_function", "surface_anisotropy", "shape_factor", "has_reconstructed", "possible_species", "has_props", "theoretical", "database_IDs"]}