{
  "builder_meta": null,
  "nsites": null,
  "elements": null,
  "nelements": null,
  "composition": null,
  "composition_reduced": null,
  "formula_pretty": "Ti2S3",
  "formula_anonymous": "A2B3",
  "chemsys": null,
  "volume": 174.70125582799304,
  "density": 3.6485782658284,
  "density_atomic": 17.470125582799305,
  "symmetry": null,
  "property_name": null,
  "material_id": "mp-1101099",
  "deprecated": null,
  "deprecation_reasons": null,
  "last_updated": null,
  "origins": null,
  "warnings": null,
  "structure": {
    "@module": "pymatgen.core.structure",
    "@class": "Structure",
    "charge": 0,
    "lattice": {
      "matrix": [
        [5.14668458, 2.97619386, -0.00267336],
        [-5.14668458, 2.97619386, -0.00267336],
        [-0.0, 1.98757838, 5.70087181]
      ],
      "pbc": [true, true, true],
      "a": 5.945258548218501,
      "b": 5.945258548218501,
      "c": 6.03741726325886,
      "alpha": 80.53890807138981,
      "beta": 80.53890807138981,
      "gamma": 119.92062321941934,
      "volume": 174.70125582799304
    },
    "properties": {},
    "sites": [
      {
        "species": [{ "element": "Ti", "occu": 1 }],
        "abc": [0.67301183, 0.32698817, -0.0],
        "properties": { "magmom": -0.001 },
        "label": "Ti",
        "xyz": [1.7808746352371623, 2.97619386, -0.00267336]
      },
      {
        "species": [{ "element": "Ti", "occu": 1 }],
        "abc": [0.32698817, 0.67301183, -0.0],
        "properties": { "magmom": -0.001 },
        "label": "Ti",
        "xyz": [-1.7808746352371623, 2.97619386, -0.00267336]
      },
      {
        "species": [{ "element": "Ti", "occu": 1 }],
        "abc": [0.0, 0.0, -0.0],
        "properties": { "magmom": -0.0 },
        "label": "Ti",
        "xyz": [0.0, 0.0, 0.0]
      },
      {
        "species": [{ "element": "Ti", "occu": 1 }],
        "abc": [0.5, 0.5, 0.5],
        "properties": { "magmom": 0.0 },
        "label": "Ti",
        "xyz": [0.0, 3.9699830499999997, 2.8477625449999997]
      },
      {
        "species": [{ "element": "S", "occu": 1 }],
        "abc": [0.41772942, 0.08291486, 0.74419496],
        "properties": { "magmom": 0.0 },
        "label": "S",
        "xyz": [1.7231849331114846, 2.9691602451810857, 4.241221666215697]
      },
      {
        "species": [{ "element": "S", "occu": 1 }],
        "abc": [0.08291486, 0.41772942, 0.74419496],
        "properties": { "magmom": 0.0 },
        "label": "S",
        "xyz": [-1.7231849331114846, 2.9691602451810857, 4.241221666215697]
      },
      {
        "species": [{ "element": "S", "occu": 1 }],
        "abc": [0.74883802, 0.74883802, 0.7538389],
        "properties": { "magmom": 0.0 },
        "label": "S",
        "xyz": [0.0, 5.955688134160096, 4.293535107073114]
      },
      {
        "species": [{ "element": "S", "occu": 1 }],
        "abc": [0.58227058, 0.91708514, 0.25580504],
        "properties": { "magmom": 0.0 },
        "label": "S",
        "xyz": [-1.7231849331114844, 4.970805854818914, 1.454303423784303]
      },
      {
        "species": [{ "element": "S", "occu": 1 }],
        "abc": [0.25116198, 0.25116198, 0.2461611],
        "properties": { "magmom": 0.0 },
        "label": "S",
        "xyz": [0.0, 1.9842779658399037, 1.4019899829268854]
      },
      {
        "species": [{ "element": "S", "occu": 1 }],
        "abc": [0.91708514, 0.58227058, 0.25580504],
        "properties": { "magmom": 0.0 },
        "label": "S",
        "xyz": [1.7231849331114844, 4.970805854818914, 1.454303423784303]
      }
    ]
  },
  "task_ids": null,
  "uncorrected_energy_per_atom": null,
  "energy_per_atom": -7.346890646999999,
  "formation_energy_per_atom": -1.705678099833332,
  "energy_above_hull": 0.0,
  "is_stable": true,
  "equilibrium_reaction_energy_per_atom": null,
  "decomposes_to": null,
  "xas": null,
  "grain_boundaries": null,
  "band_gap": 0.0,
  "cbm": null,
  "vbm": null,
  "efermi": 6.3493766,
  "is_gap_direct": null,
  "is_metal": null,
  "es_source_calc_id": null,
  "bandstructure": null,
  "dos": null,
  "dos_energy_up": null,
  "dos_energy_down": null,
  "is_magnetic": null,
  "ordering": null,
  "total_magnetization": 0.0017821999999990002,
  "total_magnetization_normalized_vol": null,
  "total_magnetization_normalized_formula_units": null,
  "num_magnetic_sites": null,
  "num_unique_magnetic_sites": null,
  "types_of_magnetic_species": null,
  "bulk_modulus": null,
  "shear_modulus": null,
  "universal_anisotropy": null,
  "homogeneous_poisson": null,
  "e_total": null,
  "e_ionic": null,
  "e_electronic": null,
  "n": null,
  "e_ij_max": null,
  "weighted_surface_energy_EV_PER_ANG2": null,
  "weighted_surface_energy": null,
  "weighted_work_function": null,
  "surface_anisotropy": null,
  "shape_factor": null,
  "has_reconstructed": null,
  "possible_species": null,
  "has_props": null,
  "theoretical": null,
  "database_IDs": null,
  "fields_not_requested": [
    "builder_meta",
    "nsites",
    "elements",
    "nelements",
    "composition",
    "composition_reduced",
    "chemsys",
    "symmetry",
    "property_name",
    "deprecated",
    "deprecation_reasons",
    "last_updated",
    "origins",
    "warnings",
    "task_ids",
    "uncorrected_energy_per_atom",
    "equilibrium_reaction_energy_per_atom",
    "decomposes_to",
    "xas",
    "grain_boundaries",
    "cbm",
    "vbm",
    "is_gap_direct",
    "is_metal",
    "es_source_calc_id",
    "bandstructure",
    "dos",
    "dos_energy_up",
    "dos_energy_down",
    "is_magnetic",
    "ordering",
    "total_magnetization_normalized_vol",
    "total_magnetization_normalized_formula_units",
    "num_magnetic_sites",
    "num_unique_magnetic_sites",
    "types_of_magnetic_species",
    "bulk_modulus",
    "shear_modulus",
    "universal_anisotropy",
    "homogeneous_poisson",
    "e_total",
    "e_ionic",
    "e_electronic",
    "n",
    "e_ij_max",
    "weighted_surface_energy_EV_PER_ANG2",
    "weighted_surface_energy",
    "weighted_work_function",
    "surface_anisotropy",
    "shape_factor",
    "has_reconstructed",
    "possible_species",
    "has_props",
    "theoretical",
    "database_IDs"
  ]
}
