{"builder_meta": null, "nsites": null, "elements": null, "nelements": null, "composition": null, "composition_reduced": null, "formula_pretty": "Ti2Sb", "formula_anonymous": "AB2", "chemsys": null, "volume": 113.26694005309201, "density": 6.377099682958043, "density_atomic": 18.877823342182, "symmetry": null, "property_name": null, "material_id": "mp-1206780", "deprecated": null, "deprecation_reasons": null, "last_updated": null, "origins": null, "warnings": null, "structure": {"@module": "pymatgen.core.structure", "@class": "Structure", "charge": 0, "lattice": {"matrix": [[3.92076817, 0.0008116, -0.00011965000000000001], [0.00081139, 3.92074098, -0.00017885], [-1.96106271, -1.9611624600000002, 7.3683911]], "pbc": [true, true, true], "a": 3.9207682558263794, "b": 3.920741068037064, "c": 7.873062463211188, "alpha": 104.42970551455154, "beta": 104.42812083089245, "gamma": 89.97628242558316, "volume": 113.26694005309201}, "properties": {}, "sites": [{"species": [{"element": "Ti", "occu": 1}], "abc": [0.171640799999999, 0.171637999999999, 0.34250554], "properties": {"magmom": 0.028}, "label": "Ti", "xyz": [0.0014282082077387015, 0.0013784366084876876, 2.523663538358674]}, {"species": [{"element": "Ti", "occu": 1}], "abc": [0.82839881, 0.82840376, 0.65757208], "properties": {"magmom": 0.023}, "label": "Ti", "xyz": [1.9590917596155677, 1.9590232202521642, 4.845000983950396]}, {"species": [{"element": "Ti", "occu": 1}], "abc": [-2.0910000000000005e-05, 0.49997986, -4.3170000000000015e-05], "properties": {"magmom": 0.20400000000000001}, "label": "Ti", "xyz": [0.00040835447336140003, 1.960376172689505, -0.00040751233986650013]}, {"species": [{"element": "Ti", "occu": 1}], "abc": [0.49997863000000003, -2.008e-05, -4.3200000000000007e-05], "properties": {"magmom": 0.20400000000000001}, "label": "Ti", "xyz": [1.960384999800568, 0.0004117763955016, -0.0003781333472915001]}, {"species": [{"element": "Sb", "occu": 1}], "abc": [0.35962521000000003, 0.35965668, 0.71985697], "properties": {"magmom": -0.007}, "label": "Sb", "xyz": [-0.001385762069437746, -0.0013439103061638757, 5.304080337267373]}, {"species": [{"element": "Sb", "occu": 1}], "abc": [0.6403774600000001, 0.64034178, 0.28015177], "properties": {"magmom": -0.007}, "label": "Sb", "xyz": [1.9618959395828255, 1.961710853972126, 2.064076662426805]}]}, "task_ids": null, "uncorrected_energy_per_atom": null, "energy_per_atom": -17.72010641, "formation_energy_per_atom": -0.526163157777778, "energy_above_hull": 0.0, "is_stable": true, "equilibrium_reaction_energy_per_atom": null, "decomposes_to": null, "xas": null, "grain_boundaries": null, "band_gap": 0.0, "cbm": null, "vbm": null, "efermi": 7.75673765, "is_gap_direct": null, "is_metal": null, "es_source_calc_id": null, "bandstructure": null, "dos": null, "dos_energy_up": null, "dos_energy_down": null, "is_magnetic": null, "ordering": null, "total_magnetization": 0.5483577, "total_magnetization_normalized_vol": null, "total_magnetization_normalized_formula_units": null, "num_magnetic_sites": null, "num_unique_magnetic_sites": null, "types_of_magnetic_species": null, "bulk_modulus": null, "shear_modulus": null, "universal_anisotropy": null, "homogeneous_poisson": null, "e_total": null, "e_ionic": null, "e_electronic": null, "n": null, "e_ij_max": null, "weighted_surface_energy_EV_PER_ANG2": null, "weighted_surface_energy": null, "weighted_work_function": null, "surface_anisotropy": null, "shape_factor": null, "has_reconstructed": null, "possible_species": null, "has_props": null, "theoretical": null, "database_IDs": null, "fields_not_requested": ["builder_meta", "nsites", "elements", "nelements", "composition", "composition_reduced", "chemsys", "symmetry", "property_name", "deprecated", "deprecation_reasons", "last_updated", "origins", "warnings", "task_ids", "uncorrected_energy_per_atom", "equilibrium_reaction_energy_per_atom", "decomposes_to", "xas", "grain_boundaries", "cbm", "vbm", "is_gap_direct", "is_metal", "es_source_calc_id", "bandstructure", "dos", "dos_energy_up", "dos_energy_down", "is_magnetic", "ordering", "total_magnetization_normalized_vol", "total_magnetization_normalized_formula_units", "num_magnetic_sites", "num_unique_magnetic_sites", "types_of_magnetic_species", "bulk_modulus", "shear_modulus", "universal_anisotropy", "homogeneous_poisson", "e_total", "e_ionic", "e_electronic", "n", "e_ij_max", "weighted_surface_energy_EV_PER_ANG2", "weighted_surface_energy", "weighted_work_function", "surface_anisotropy", "shape_factor", "has_reconstructed", "possible_species", "has_props", "theoretical", "database_IDs"]}