{"builder_meta": null, "nsites": null, "elements": null, "nelements": null, "composition": null, "composition_reduced": null, "formula_pretty": "Ti2Te3", "formula_anonymous": "A2B3", "chemsys": null, "volume": 515.6199771835662, "density": 6.164419043938396, "density_atomic": 25.78099885917831, "symmetry": null, "property_name": null, "material_id": "mp-1217210", "deprecated": null, "deprecation_reasons": null, "last_updated": null, "origins": null, "warnings": null, "structure": {"@module": "pymatgen.core.structure", "@class": "Structure", "charge": 0, "lattice": {"matrix": [[7.51616785, 0.00255723, 0.036949340000000004], [-2.20789111, 7.6255343700000005, 0.02992686], [-2.30816675, -0.80035846, 8.9797717]], "pbc": [true, true, true], "a": 7.516259105600693, "b": 7.938794190468587, "c": 9.306154264486487, "alpha": 90.57253868311703, "beta": 104.08189805469694, "gamma": 106.12688522364127, "volume": 515.6199771835663}, "properties": {}, "sites": [{"species": [{"element": "Ti", "occu": 1}], "abc": [0.50950256, 0.24282643, 0.01848737], "properties": {"magmom": -0.5750000000000001}, "label": "Ti", "xyz": [3.2507005121657118, 1.838187680158258, 0.1921051778286492]}, {"species": [{"element": "Ti", "occu": 1}], "abc": [0.85411804, 0.55718806, 0.353512699999999], "properties": {"magmom": -0.887}, "label": "Ti", "xyz": [4.373517728238145, 3.968103998196611, 3.2226973259759664]}, {"species": [{"element": "Ti", "occu": 1}], "abc": [0.16196221, 0.8840762, 0.66595685], "properties": {"magmom": -0.738}, "label": "Ti", "xyz": [-2.2717482849303705, 6.208963424528822, 6.012582496482319]}, {"species": [{"element": "Ti", "occu": 1}], "abc": [0.49049744, 0.75717357, 0.98151263], "properties": {"magmom": -0.5750000000000001}, "label": "Ti", "xyz": [-0.25059052216571054, 4.989545459841743, 8.85454272217135]}, {"species": [{"element": "Ti", "occu": 1}], "abc": [0.83803779, 0.1159238, 0.33404315], "properties": {"magmom": -0.738}, "label": "Ti", "xyz": [5.271858274930371, 0.6187697154711788, 3.034065403517682]}, {"species": [{"element": "Ti", "occu": 1}], "abc": [0.14588196, 0.44281194, 0.6464873], "properties": {"magmom": -0.887}, "label": "Ti", "xyz": [-1.373407738238142, 2.859629141803391, 5.823950574024025]}, {"species": [{"element": "Ti", "occu": 1}], "abc": [0.82836031, 0.83466921, 0.8362083100000001], "properties": {"magmom": 0.37}, "label": "Ti", "xyz": [2.453128184472618, 5.697650661040488, 7.564546112773503]}, {"species": [{"element": "Ti", "occu": 1}], "abc": [0.17163969, 0.16533079, 0.16379169], "properties": {"magmom": 0.37}, "label": "Ti", "xyz": [0.5469818055273822, 1.1300824789595139, 1.482101787226497]}, {"species": [{"element": "Te", "occu": 1}], "abc": [0.43874202, 0.97765352, 0.20194738], "properties": {"magmom": 0.038}, "label": "Te", "xyz": [0.6729779219342353, 7.294622188909453, 1.8589106959039603]}, {"species": [{"element": "Te", "occu": 1}], "abc": [0.75699369, 0.31221247, 0.53911525], "properties": {"magmom": 0.069}, "label": "Te", "xyz": [3.755992604018788, 1.951237276448958, 4.878445821098034]}, {"species": [{"element": "Te", "occu": 1}], "abc": [0.09435312, 0.64191359, 0.8710075700000001], "properties": {"magmom": 0.045}, "label": "Te", "xyz": [-2.7185321337302906, 4.198057148370604, 7.8441458712227385]}, {"species": [{"element": "Te", "occu": 1}], "abc": [0.56125798, 0.022346480000000002, 0.79805262], "properties": {"magmom": 0.038}, "label": "Te", "xyz": [2.3271320680657652, -0.46688904890945215, 7.187737204096041]}, {"species": [{"element": "Te", "occu": 1}], "abc": [0.90564688, 0.35808641, 0.12899243], "properties": {"magmom": 0.045}, "label": "Te", "xyz": [5.718642123730292, 2.6296759916293966, 1.2025020287772628]}, {"species": [{"element": "Te", "occu": 1}], "abc": [0.24300631, 0.68778753, 0.46088475], "properties": {"magmom": 0.069}, "label": "Te", "xyz": [-0.7558826140187873, 4.876495863551043, 4.168202078901966]}, {"species": [{"element": "Te", "occu": 1}], "abc": [0.54494142, 0.50855775, 0.80102002], "properties": {"magmom": 0.042}, "label": "Te", "xyz": [1.1241432697424103, 3.2383149926659653, 7.228331669123263]}, {"species": [{"element": "Te", "occu": 1}], "abc": [0.8810470300000001, 0.842735399999999, 0.14746132], "properties": {"magmom": 0.019}, "label": "Te", "xyz": [4.421064047746584, 6.31053888242745, 1.3819435187809483]}, {"species": [{"element": "Te", "occu": 1}], "abc": [0.22266122, 0.18234466, 0.47587547], "properties": {"magmom": 0.051000000000000004}, "label": "Te", "xyz": [0.17256201244118197, 1.0101739096466087, 4.286937266464362]}, {"species": [{"element": "Te", "occu": 1}], "abc": [0.45505858, 0.49144225, 0.19897998], "properties": {"magmom": 0.042}, "label": "Te", "xyz": [1.875966720257591, 3.5894181473340354, 1.8183162308767382]}, {"species": [{"element": "Te", "occu": 1}], "abc": [0.77733878, 0.8176553400000001, 0.52412453], "properties": {"magmom": 0.051000000000000004}, "label": "Te", "xyz": [2.827547977558818, 5.8175592303533925, 4.759710633535639]}, {"species": [{"element": "Te", "occu": 1}], "abc": [0.11895297, 0.1572646, 0.85253868], "properties": {"magmom": 0.019}, "label": "Te", "xyz": [-1.4209540577465811, 0.5171942575725423, 7.664704381219052]}]}, "task_ids": null, "uncorrected_energy_per_atom": null, "energy_per_atom": -21.273680175499997, "formation_energy_per_atom": -0.8482427841666661, "energy_above_hull": 0.0039036040000040005, "is_stable": false, "equilibrium_reaction_energy_per_atom": null, "decomposes_to": null, "xas": null, "grain_boundaries": null, "band_gap": 0.0, "cbm": null, "vbm": null, "efermi": 6.84895622, "is_gap_direct": null, "is_metal": null, "es_source_calc_id": null, "bandstructure": null, "dos": null, "dos_energy_up": null, "dos_energy_down": null, "is_magnetic": null, "ordering": null, "total_magnetization": 3.8211898, "total_magnetization_normalized_vol": null, "total_magnetization_normalized_formula_units": null, "num_magnetic_sites": null, "num_unique_magnetic_sites": null, "types_of_magnetic_species": null, "bulk_modulus": null, "shear_modulus": null, "universal_anisotropy": null, "homogeneous_poisson": null, "e_total": null, "e_ionic": null, "e_electronic": null, "n": null, "e_ij_max": null, "weighted_surface_energy_EV_PER_ANG2": null, "weighted_surface_energy": null, "weighted_work_function": null, "surface_anisotropy": null, "shape_factor": null, "has_reconstructed": null, "possible_species": null, "has_props": null, "theoretical": null, "database_IDs": null, "fields_not_requested": ["builder_meta", "nsites", "elements", "nelements", "composition", "composition_reduced", "chemsys", "symmetry", "property_name", "deprecated", "deprecation_reasons", "last_updated", "origins", "warnings", "task_ids", "uncorrected_energy_per_atom", "equilibrium_reaction_energy_per_atom", "decomposes_to", "xas", "grain_boundaries", "cbm", "vbm", "is_gap_direct", "is_metal", "es_source_calc_id", "bandstructure", "dos", "dos_energy_up", "dos_energy_down", "is_magnetic", "ordering", "total_magnetization_normalized_vol", "total_magnetization_normalized_formula_units", "num_magnetic_sites", "num_unique_magnetic_sites", "types_of_magnetic_species", "bulk_modulus", "shear_modulus", "universal_anisotropy", "homogeneous_poisson", "e_total", "e_ionic", "e_electronic", "n", "e_ij_max", "weighted_surface_energy_EV_PER_ANG2", "weighted_surface_energy", "weighted_work_function", "surface_anisotropy", "shape_factor", "has_reconstructed", "possible_species", "has_props", "theoretical", "database_IDs"]}