{"builder_meta": null, "nsites": null, "elements": null, "nelements": null, "composition": null, "composition_reduced": null, "formula_pretty": "Ti3As", "formula_anonymous": "AB3", "chemsys": null, "volume": 524.3310373337844, "density": 5.536430817907251, "density_atomic": 16.38534491668076, "symmetry": null, "property_name": null, "material_id": "mp-1199934", "deprecated": null, "deprecation_reasons": null, "last_updated": null, "origins": null, "warnings": null, "structure": {"@module": "pymatgen.core.structure", "@class": "Structure", "charge": 0, "lattice": {"matrix": [[0.0, -0.0, 5.09920049], [10.14032184, -0.00010368, 0.0], [0.00010368, 10.14032184, -0.0]], "pbc": [true, true, true], "a": 5.09920049, "b": 10.14032184053004, "c": 10.14032184053004, "alpha": 90.0, "beta": 90.0, "gamma": 90.0, "volume": 524.3310373337845}, "properties": {}, "sites": [{"species": [{"element": "Ti", "occu": 1}], "abc": [0.2859081, 0.83156758, 0.14541706000000001], "properties": {"magmom": -0.0}, "label": "Ti", "xyz": [8.432377969750728, 1.474489572499896, 1.457902723614969]}, {"species": [{"element": "Ti", "occu": 1}], "abc": [0.2859081, 0.66843242, 0.35458294], "properties": {"magmom": -0.0}, "label": "Ti", "xyz": [6.778156630249272, 3.5955158275001042, 1.457902723614969]}, {"species": [{"element": "Ti", "occu": 1}], "abc": [0.7859081, 0.64541706, 0.16843242], "properties": {"magmom": -0.0}, "label": "Ti", "xyz": [6.544754172499896, 1.7078920302492722, 4.007502968614969]}, {"species": [{"element": "Ti", "occu": 1}], "abc": [0.7859081, 0.85458294, 0.33156758000000003], "properties": {"magmom": -0.0}, "label": "Ti", "xyz": [8.665780427500104, 3.362113369750728, 4.007502968614969]}, {"species": [{"element": "Ti", "occu": 1}], "abc": [0.7140919, 0.16843242, 0.85458294], "properties": {"magmom": -0.0}, "label": "Ti", "xyz": [1.708047550249272, 8.665728587500105, 3.641297766385031]}, {"species": [{"element": "Ti", "occu": 1}], "abc": [0.7140919, 0.33156758000000003, 0.64541706], "properties": {"magmom": -0.0}, "label": "Ti", "xyz": [3.3622688897507285, 6.544702332499896, 3.641297766385031]}, {"species": [{"element": "Ti", "occu": 1}], "abc": [0.2140919, 0.35458294, 0.83156758], "properties": {"magmom": -0.0}, "label": "Ti", "xyz": [3.595671347500104, 8.432326129750729, 1.091697521385031]}, {"species": [{"element": "Ti", "occu": 1}], "abc": [0.2140919, 0.14541706000000001, 0.66843242], "properties": {"magmom": -0.0}, "label": "Ti", "xyz": [1.4746450924998962, 6.778104790249272, 1.091697521385031]}, {"species": [{"element": "Ti", "occu": 1}], "abc": [0.9629685800000001, 0.277785399999999, 0.10694462], "properties": {"magmom": -0.0}, "label": "Ti", "xyz": [2.816844446471328, 1.084424065066229, 4.910369854990605]}, {"species": [{"element": "Ti", "occu": 1}], "abc": [0.9629685800000001, 0.222214599999999, 0.39305538], "properties": {"magmom": -0.0}, "label": "Ti", "xyz": [2.2533683135286524, 3.9856850149337713, 4.910369854990605]}, {"species": [{"element": "Ti", "occu": 1}], "abc": [0.46296858, 0.60694462, 0.722214599999999], "properties": {"magmom": -0.0}, "label": "Ti", "xyz": [6.154688665066229, 7.3234255535286525, 2.3607696099906046]}, {"species": [{"element": "Ti", "occu": 1}], "abc": [0.46296858, 0.8930553800000001, 0.7777854], "properties": {"magmom": -0.0}, "label": "Ti", "xyz": [9.055949614933771, 7.8869016864713375, 2.3607696099906046]}, {"species": [{"element": "Ti", "occu": 1}], "abc": [0.03703142, 0.722214599999999, 0.8930553800000001], "properties": {"magmom": -0.0}, "label": "Ti", "xyz": [7.323581073528652, 9.055794094933772, 0.18883063500939581]}, {"species": [{"element": "Ti", "occu": 1}], "abc": [0.03703142, 0.7777854, 0.60694462], "properties": {"magmom": -0.0}, "label": "Ti", "xyz": [7.887057206471337, 6.154533145066229, 0.18883063500939581]}, {"species": [{"element": "Ti", "occu": 1}], "abc": [0.53703142, 0.39305538, 0.277785399999999], "properties": {"magmom": -0.0}, "label": "Ti", "xyz": [3.985736854933771, 2.816792606471328, 2.738430880009396]}, {"species": [{"element": "Ti", "occu": 1}], "abc": [0.53703142, 0.10694462, 0.222214599999999], "properties": {"magmom": -0.0}, "label": "Ti", "xyz": [1.084475905066229, 2.253316473528652, 2.738430880009396]}, {"species": [{"element": "Ti", "occu": 1}], "abc": [0.24485373, 0.43240189, 0.53442491], "properties": {"magmom": 0.0}, "label": "Ti", "xyz": [4.384749737998947, 5.41919575528508, 1.2485582599943277]}, {"species": [{"element": "Ti", "occu": 1}], "abc": [0.24485373, 0.06759811, 0.96557509], "properties": {"magmom": 0.0}, "label": "Ti", "xyz": [0.6855667020010537, 9.791235164714921, 1.2485582599943277]}, {"species": [{"element": "Ti", "occu": 1}], "abc": [0.74485373, 0.03442491, 0.56759811], "properties": {"magmom": 0.0}, "label": "Ti", "xyz": [0.3491385152850792, 5.755623942001054, 3.798158504994328]}, {"species": [{"element": "Ti", "occu": 1}], "abc": [0.74485373, 0.46557509, 0.9324018900000001], "properties": {"magmom": 0.0}, "label": "Ti", "xyz": [4.7211779247149215, 9.454806977998947, 3.798158504994328]}, {"species": [{"element": "Ti", "occu": 1}], "abc": [0.75514627, 0.56759811, 0.46557509], "properties": {"magmom": 0.0}, "label": "Ti", "xyz": [5.755675782001054, 4.721022404714922, 3.8506422300056724]}, {"species": [{"element": "Ti", "occu": 1}], "abc": [0.75514627, 0.9324018900000001, 0.03442491], "properties": {"magmom": 0.0}, "label": "Ti", "xyz": [9.454858817998948, 0.3489829952850792, 3.8506422300056724]}, {"species": [{"element": "Ti", "occu": 1}], "abc": [0.25514627, 0.96557509, 0.43240189], "properties": {"magmom": 0.0}, "label": "Ti", "xyz": [9.79128700471492, 4.384594217998947, 1.3010419850056725]}, {"species": [{"element": "Ti", "occu": 1}], "abc": [0.25514627, 0.53442491, 0.06759811], "properties": {"magmom": 0.0}, "label": "Ti", "xyz": [5.419247595285079, 0.6854111820010537, 1.3010419850056725]}, {"species": [{"element": "As", "occu": 1}], "abc": [0.46149811, 0.29100357, 0.04436448], "properties": {"magmom": -0.0}, "label": "As", "xyz": [2.950874456098255, 0.4498399342141056, 2.3532713886460743]}, {"species": [{"element": "As", "occu": 1}], "abc": [0.46149811, 0.20899643, 0.45563552], "properties": {"magmom": -0.0}, "label": "As", "xyz": [2.119338303901745, 4.620269145785895, 2.3532713886460743]}, {"species": [{"element": "As", "occu": 1}], "abc": [0.9614981100000001, 0.54436448, 0.70899643], "properties": {"magmom": -0.0}, "label": "As", "xyz": [5.520104534214106, 7.189395543901745, 4.9028716336460745]}, {"species": [{"element": "As", "occu": 1}], "abc": [0.9614981100000001, 0.9556355200000001, 0.79100357], "properties": {"magmom": -0.0}, "label": "As", "xyz": [9.690533745785896, 8.020931696098256, 4.9028716336460745]}, {"species": [{"element": "As", "occu": 1}], "abc": [0.53850189, 0.70899643, 0.9556355200000001], "properties": {"magmom": -0.0}, "label": "As", "xyz": [7.189551063901745, 9.690378225785896, 2.7459291013539264]}, {"species": [{"element": "As", "occu": 1}], "abc": [0.53850189, 0.79100357, 0.54436448], "properties": {"magmom": -0.0}, "label": "As", "xyz": [8.021087216098255, 5.519949014214106, 2.7459291013539264]}, {"species": [{"element": "As", "occu": 1}], "abc": [0.038501890000000004, 0.45563552, 0.29100357], "properties": {"magmom": -0.0}, "label": "As", "xyz": [4.620320985785894, 2.950822616098255, 0.19632885635392613]}, {"species": [{"element": "As", "occu": 1}], "abc": [0.038501890000000004, 0.04436448, 0.20899643], "properties": {"magmom": -0.0}, "label": "As", "xyz": [0.44989177421410564, 2.1192864639017452, 0.19632885635392613]}]}, "task_ids": null, "uncorrected_energy_per_atom": null, "energy_per_atom": -14.1069297065625, "formation_energy_per_atom": -0.726729199687499, "energy_above_hull": 0.0, "is_stable": true, "equilibrium_reaction_energy_per_atom": null, "decomposes_to": null, "xas": null, "grain_boundaries": null, "band_gap": 0.0, "cbm": null, "vbm": null, "efermi": 6.60848373, "is_gap_direct": null, "is_metal": null, "es_source_calc_id": null, "bandstructure": null, "dos": null, "dos_energy_up": null, "dos_energy_down": null, "is_magnetic": null, "ordering": null, "total_magnetization": 3.799999999999998e-06, "total_magnetization_normalized_vol": null, "total_magnetization_normalized_formula_units": null, "num_magnetic_sites": null, "num_unique_magnetic_sites": null, "types_of_magnetic_species": null, "bulk_modulus": null, "shear_modulus": null, "universal_anisotropy": null, "homogeneous_poisson": null, "e_total": null, "e_ionic": null, "e_electronic": null, "n": null, "e_ij_max": null, "weighted_surface_energy_EV_PER_ANG2": null, "weighted_surface_energy": null, "weighted_work_function": null, "surface_anisotropy": null, "shape_factor": null, "has_reconstructed": null, "possible_species": null, "has_props": null, "theoretical": null, "database_IDs": null, "fields_not_requested": ["builder_meta", "nsites", "elements", "nelements", "composition", "composition_reduced", "chemsys", "symmetry", "property_name", "deprecated", "deprecation_reasons", "last_updated", "origins", "warnings", "task_ids", "uncorrected_energy_per_atom", "equilibrium_reaction_energy_per_atom", "decomposes_to", "xas", "grain_boundaries", "cbm", "vbm", "is_gap_direct", "is_metal", "es_source_calc_id", "bandstructure", "dos", "dos_energy_up", "dos_energy_down", "is_magnetic", "ordering", "total_magnetization_normalized_vol", "total_magnetization_normalized_formula_units", "num_magnetic_sites", "num_unique_magnetic_sites", "types_of_magnetic_species", "bulk_modulus", "shear_modulus", "universal_anisotropy", "homogeneous_poisson", "e_total", "e_ionic", "e_electronic", "n", "e_ij_max", "weighted_surface_energy_EV_PER_ANG2", "weighted_surface_energy", "weighted_work_function", "surface_anisotropy", "shape_factor", "has_reconstructed", "possible_species", "has_props", "theoretical", "database_IDs"]}