{
  "builder_meta": null,
  "nsites": null,
  "elements": null,
  "nelements": null,
  "composition": null,
  "composition_reduced": null,
  "formula_pretty": "Ti3Al",
  "formula_anonymous": "AB3",
  "chemsys": null,
  "volume": 132.4795152877581,
  "density": 4.276268203576033,
  "density_atomic": 16.55993941096976,
  "symmetry": null,
  "property_name": null,
  "material_id": "mp-1823",
  "deprecated": null,
  "deprecation_reasons": null,
  "last_updated": null,
  "origins": null,
  "warnings": null,
  "structure": {
    "@module": "pymatgen.core.structure",
    "@class": "Structure",
    "charge": 0,
    "lattice": {
      "matrix": [
        [5.74770194, -2.1660000000000003e-5, 0.0],
        [-2.8738696900000003, 4.97763577, 0.0],
        [0.0, 0.0, 4.63054727]
      ],
      "pbc": [true, true, true],
      "a": 5.7477019400408125,
      "b": 5.747693872666166,
      "c": 4.63054727,
      "alpha": 90.0,
      "beta": 90.0,
      "gamma": 120.00047782595517,
      "volume": 132.4795152877581
    },
    "properties": {},
    "sites": [
      {
        "species": [{ "element": "Ti", "occu": 1 }],
        "abc": [0.82990567, 0.65979326, 0.25],
        "properties": { "magmom": -0.0 },
        "label": "Ti",
        "xyz": [2.8738905778957102, 3.284192556024098, 1.1576368175]
      },
      {
        "species": [{ "element": "Ti", "occu": 1 }],
        "abc": [0.17010809000000002, 0.82989598, 0.75],
        "properties": { "magmom": 0.0 },
        "label": "Ti",
        "xyz": [-1.4072823038721518, 4.130916230885975, 3.4729104525]
      },
      {
        "species": [{ "element": "Ti", "occu": 1 }],
        "abc": [0.65979178, 0.82990528, 0.75],
        "properties": { "magmom": 0.0 },
        "label": "Ti",
        "xyz": [1.4072468641390898, 4.13095191634991, 3.4729104525]
      },
      {
        "species": [{ "element": "Ti", "occu": 1 }],
        "abc": [0.34020565, 0.17009363, 0.25],
        "properties": { "magmom": -0.0 },
        "label": "Ti",
        "xyz": [1.4665737467848865, 0.846656768082766, 1.1576368175]
      },
      {
        "species": [{ "element": "Ti", "occu": 1 }],
        "abc": [0.82989468, 0.17010531, 0.25],
        "properties": { "magmom": -0.0 },
        "label": "Ti",
        "xyz": [4.281126767714625, 0.84670430020417, 1.1576368175]
      },
      {
        "species": [{ "element": "Ti", "occu": 1 }],
        "abc": [0.17009672, 0.34020729, 0.75],
        "properties": { "magmom": 0.0 },
        "label": "Ti",
        "xyz": [-4.617151640340378e-5, 1.6934242916238083, 3.4729104525]
      },
      {
        "species": [{ "element": "Al", "occu": 1 }],
        "abc": [0.3333346, 0.666658699999999, 0.25],
        "properties": { "magmom": 0.0 },
        "label": "Al",
        "xyz": [1.7695584323185187e-5, 3.318376971474258, 1.1576368175]
      },
      {
        "species": [{ "element": "Al", "occu": 1 }],
        "abc": [0.66666282, 0.33333954, 0.75],
        "properties": { "magmom": -0.0 },
        "label": "Al",
        "xyz": [2.873804783355328, 1.6592283779426644, 3.4729104525]
      }
    ]
  },
  "task_ids": null,
  "uncorrected_energy_per_atom": null,
  "energy_per_atom": -11.68356186875,
  "formation_energy_per_atom": -0.29721952624999803,
  "energy_above_hull": 0.0,
  "is_stable": true,
  "equilibrium_reaction_energy_per_atom": null,
  "decomposes_to": null,
  "xas": null,
  "grain_boundaries": null,
  "band_gap": 0.0,
  "cbm": null,
  "vbm": null,
  "efermi": 6.26997544,
  "is_gap_direct": null,
  "is_metal": null,
  "es_source_calc_id": null,
  "bandstructure": null,
  "dos": null,
  "dos_energy_up": null,
  "dos_energy_down": null,
  "is_magnetic": null,
  "ordering": null,
  "total_magnetization": 6.3e-6,
  "total_magnetization_normalized_vol": null,
  "total_magnetization_normalized_formula_units": null,
  "num_magnetic_sites": null,
  "num_unique_magnetic_sites": null,
  "types_of_magnetic_species": null,
  "bulk_modulus": null,
  "shear_modulus": null,
  "universal_anisotropy": null,
  "homogeneous_poisson": null,
  "e_total": null,
  "e_ionic": null,
  "e_electronic": null,
  "n": null,
  "e_ij_max": null,
  "weighted_surface_energy_EV_PER_ANG2": null,
  "weighted_surface_energy": null,
  "weighted_work_function": null,
  "surface_anisotropy": null,
  "shape_factor": null,
  "has_reconstructed": null,
  "possible_species": null,
  "has_props": null,
  "theoretical": null,
  "database_IDs": null,
  "fields_not_requested": [
    "builder_meta",
    "nsites",
    "elements",
    "nelements",
    "composition",
    "composition_reduced",
    "chemsys",
    "symmetry",
    "property_name",
    "deprecated",
    "deprecation_reasons",
    "last_updated",
    "origins",
    "warnings",
    "task_ids",
    "uncorrected_energy_per_atom",
    "equilibrium_reaction_energy_per_atom",
    "decomposes_to",
    "xas",
    "grain_boundaries",
    "cbm",
    "vbm",
    "is_gap_direct",
    "is_metal",
    "es_source_calc_id",
    "bandstructure",
    "dos",
    "dos_energy_up",
    "dos_energy_down",
    "is_magnetic",
    "ordering",
    "total_magnetization_normalized_vol",
    "total_magnetization_normalized_formula_units",
    "num_magnetic_sites",
    "num_unique_magnetic_sites",
    "types_of_magnetic_species",
    "bulk_modulus",
    "shear_modulus",
    "universal_anisotropy",
    "homogeneous_poisson",
    "e_total",
    "e_ionic",
    "e_electronic",
    "n",
    "e_ij_max",
    "weighted_surface_energy_EV_PER_ANG2",
    "weighted_surface_energy",
    "weighted_work_function",
    "surface_anisotropy",
    "shape_factor",
    "has_reconstructed",
    "possible_species",
    "has_props",
    "theoretical",
    "database_IDs"
  ]
}
