{
  "builder_meta": null,
  "nsites": null,
  "elements": null,
  "nelements": null,
  "composition": null,
  "composition_reduced": null,
  "formula_pretty": "Ti3B4",
  "formula_anonymous": "A3B4",
  "chemsys": null,
  "volume": 67.90256865024195,
  "density": 4.569244257857268,
  "density_atomic": 9.700366950034564,
  "symmetry": null,
  "property_name": null,
  "material_id": "mp-1025170",
  "deprecated": null,
  "deprecation_reasons": null,
  "last_updated": null,
  "origins": null,
  "warnings": null,
  "structure": {
    "@module": "pymatgen.core.structure",
    "@class": "Structure",
    "charge": 0,
    "lattice": {
      "matrix": [
        [3.03529135, -0.0, -0.0],
        [-0.0, 3.25982346, 0.0],
        [-1.517646179999999, -1.629911219999999, 6.86264823]
      ],
      "pbc": [true, true, true],
      "a": 3.03529135,
      "b": 3.25982346,
      "c": 7.214970633444921,
      "alpha": 103.05620936553689,
      "beta": 102.14267796383393,
      "gamma": 90.0,
      "volume": 67.90256865024195
    },
    "properties": {},
    "sites": [
      {
        "species": [{ "element": "Ti", "occu": 1 }],
        "abc": [0.68540214, 0.18540214, 0.37080529],
        "properties": { "magmom": -0.0 },
        "label": "Ti",
        "xyz": [1.517643954921197, -1.4571001490937263e-6, 2.5447062670931366]
      },
      {
        "species": [{ "element": "Ti", "occu": 1 }],
        "abc": [0.31459786, 0.81459786, 0.62919471],
        "properties": { "magmom": -0.0 },
        "label": "Ti",
        "xyz": [1.2150788037956772e-6, 1.6299136971001498, 4.317941962906863]
      },
      {
        "species": [{ "element": "Ti", "occu": 1 }],
        "abc": [0.0, 0.0, 0.0],
        "properties": { "magmom": 0.0 },
        "label": "Ti",
        "xyz": [0.0, 0.0, 0.0]
      },
      {
        "species": [{ "element": "B", "occu": 1 }],
        "abc": [0.8682170100000001, 0.36821701, 0.73643402],
        "properties": { "magmom": 0.0 },
        "label": "B",
        "xyz": [1.517645303100821, 3.755813509087602e-7, 5.053887623864784]
      },
      {
        "species": [{ "element": "B", "occu": 1 }],
        "abc": [0.13178299000000002, 0.63178299, 0.26356598000000003],
        "properties": { "magmom": 0.0 },
        "label": "B",
        "xyz": [-1.3310081958817221e-7, 1.6299118644186499, 1.8087606061352155]
      },
      {
        "species": [{ "element": "B", "occu": 1 }],
        "abc": [0.435674499999999, 0.435674499999999, 0.8713500000000001],
        "properties": { "magmom": 0.0 },
        "label": "B",
        "xyz": [-1.9576774272778152e-6, -1.1855232324720077e-6, 5.9797685352105]
      },
      {
        "species": [{ "element": "B", "occu": 1 }],
        "abc": [0.564325499999999, 0.564325499999999, 0.12865000000000001],
        "properties": { "magmom": 0.0 },
        "label": "B",
        "xyz": [1.5176471276774222, 1.6299134255232268, 0.8828796947895]
      }
    ]
  },
  "task_ids": null,
  "uncorrected_energy_per_atom": null,
  "energy_per_atom": -10.719849931428572,
  "formation_energy_per_atom": -0.9771802414285721,
  "energy_above_hull": 0.0,
  "is_stable": true,
  "equilibrium_reaction_energy_per_atom": null,
  "decomposes_to": null,
  "xas": null,
  "grain_boundaries": null,
  "band_gap": 0.0,
  "cbm": null,
  "vbm": null,
  "efermi": 7.40271569,
  "is_gap_direct": null,
  "is_metal": null,
  "es_source_calc_id": null,
  "bandstructure": null,
  "dos": null,
  "dos_energy_up": null,
  "dos_energy_down": null,
  "is_magnetic": null,
  "ordering": null,
  "total_magnetization": 0.0,
  "total_magnetization_normalized_vol": null,
  "total_magnetization_normalized_formula_units": null,
  "num_magnetic_sites": null,
  "num_unique_magnetic_sites": null,
  "types_of_magnetic_species": null,
  "bulk_modulus": null,
  "shear_modulus": null,
  "universal_anisotropy": null,
  "homogeneous_poisson": null,
  "e_total": null,
  "e_ionic": null,
  "e_electronic": null,
  "n": null,
  "e_ij_max": null,
  "weighted_surface_energy_EV_PER_ANG2": null,
  "weighted_surface_energy": null,
  "weighted_work_function": null,
  "surface_anisotropy": null,
  "shape_factor": null,
  "has_reconstructed": null,
  "possible_species": null,
  "has_props": null,
  "theoretical": null,
  "database_IDs": null,
  "fields_not_requested": [
    "builder_meta",
    "nsites",
    "elements",
    "nelements",
    "composition",
    "composition_reduced",
    "chemsys",
    "symmetry",
    "property_name",
    "deprecated",
    "deprecation_reasons",
    "last_updated",
    "origins",
    "warnings",
    "task_ids",
    "uncorrected_energy_per_atom",
    "equilibrium_reaction_energy_per_atom",
    "decomposes_to",
    "xas",
    "grain_boundaries",
    "cbm",
    "vbm",
    "is_gap_direct",
    "is_metal",
    "es_source_calc_id",
    "bandstructure",
    "dos",
    "dos_energy_up",
    "dos_energy_down",
    "is_magnetic",
    "ordering",
    "total_magnetization_normalized_vol",
    "total_magnetization_normalized_formula_units",
    "num_magnetic_sites",
    "num_unique_magnetic_sites",
    "types_of_magnetic_species",
    "bulk_modulus",
    "shear_modulus",
    "universal_anisotropy",
    "homogeneous_poisson",
    "e_total",
    "e_ionic",
    "e_electronic",
    "n",
    "e_ij_max",
    "weighted_surface_energy_EV_PER_ANG2",
    "weighted_surface_energy",
    "weighted_work_function",
    "surface_anisotropy",
    "shape_factor",
    "has_reconstructed",
    "possible_species",
    "has_props",
    "theoretical",
    "database_IDs"
  ]
}
