{
  "builder_meta": null,
  "nsites": null,
  "elements": null,
  "nelements": null,
  "composition": null,
  "composition_reduced": null,
  "formula_pretty": "Ti3Br",
  "formula_anonymous": "AB3",
  "chemsys": null,
  "volume": 137.64700791787737,
  "density": 5.392616805762475,
  "density_atomic": 17.205875989734672,
  "symmetry": null,
  "property_name": null,
  "material_id": "mp-971768",
  "deprecated": null,
  "deprecation_reasons": null,
  "last_updated": null,
  "origins": null,
  "warnings": null,
  "structure": {
    "@module": "pymatgen.core.structure",
    "@class": "Structure",
    "charge": 0,
    "lattice": {
      "matrix": [
        [2.837028, -4.913877, 0.0],
        [2.837028, 4.913877, 0.0],
        [0.0, 0.0, 4.936838]
      ],
      "pbc": [true, true, true],
      "a": 5.67405631307207,
      "b": 5.67405631307207,
      "c": 4.936838,
      "alpha": 90.0,
      "beta": 90.0,
      "gamma": 120.00000365041869,
      "volume": 137.64700791787737
    },
    "properties": {},
    "sites": [
      {
        "species": [{ "element": "Ti", "occu": 1 }],
        "abc": [0.160136, 0.320272, 0.25],
        "properties": { "magmom": 0.009000000000000001 },
        "label": "Ti",
        "xyz": [1.3629309474240001, 0.786888607272, 1.2342095]
      },
      {
        "species": [{ "element": "Ti", "occu": 1 }],
        "abc": [0.679728, 0.8398639999999991, 0.25],
        "properties": { "magmom": 0.009000000000000001 },
        "label": "Ti",
        "xyz": [4.311125052575997, 0.7868886072719956, 1.2342095]
      },
      {
        "species": [{ "element": "Ti", "occu": 1 }],
        "abc": [0.160136, 0.8398639999999991, 0.25],
        "properties": { "magmom": 0.008 },
        "label": "Ti",
        "xyz": [2.8370279999999974, 3.3400997854559957, 1.2342095]
      },
      {
        "species": [{ "element": "Ti", "occu": 1 }],
        "abc": [0.8398639999999991, 0.679728, 0.75],
        "properties": { "magmom": -0.006 },
        "label": "Ti",
        "xyz": [4.311125052575997, -0.7868886072719956, 3.7026285]
      },
      {
        "species": [{ "element": "Ti", "occu": 1 }],
        "abc": [0.320272, 0.160136, 0.75],
        "properties": { "magmom": -0.006 },
        "label": "Ti",
        "xyz": [1.3629309474240001, -0.786888607272, 3.7026285]
      },
      {
        "species": [{ "element": "Ti", "occu": 1 }],
        "abc": [0.8398639999999991, 0.160136, 0.75],
        "properties": { "magmom": -0.006 },
        "label": "Ti",
        "xyz": [2.8370279999999974, -3.3400997854559957, 3.7026285]
      },
      {
        "species": [{ "element": "Br", "occu": 1 }],
        "abc": [0.333333, 0.666667, 0.75],
        "properties": { "magmom": 0.0 },
        "label": "Br",
        "xyz": [2.837028, 1.6379622759180004, 3.7026285]
      },
      {
        "species": [{ "element": "Br", "occu": 1 }],
        "abc": [0.666667, 0.333333, 0.25],
        "properties": { "magmom": -0.0 },
        "label": "Br",
        "xyz": [2.837028, -1.6379622759180004, 1.2342095]
      }
    ]
  },
  "task_ids": null,
  "uncorrected_energy_per_atom": null,
  "energy_per_atom": -6.16743428375,
  "formation_energy_per_atom": 0.1634213625,
  "energy_above_hull": 0.7136232441145831,
  "is_stable": false,
  "equilibrium_reaction_energy_per_atom": null,
  "decomposes_to": null,
  "xas": null,
  "grain_boundaries": null,
  "band_gap": 0.0,
  "cbm": null,
  "vbm": null,
  "efermi": 7.2709459,
  "is_gap_direct": null,
  "is_metal": null,
  "es_source_calc_id": null,
  "bandstructure": null,
  "dos": null,
  "dos_energy_up": null,
  "dos_energy_down": null,
  "is_magnetic": null,
  "ordering": null,
  "total_magnetization": 0.0134709,
  "total_magnetization_normalized_vol": null,
  "total_magnetization_normalized_formula_units": null,
  "num_magnetic_sites": null,
  "num_unique_magnetic_sites": null,
  "types_of_magnetic_species": null,
  "bulk_modulus": null,
  "shear_modulus": null,
  "universal_anisotropy": null,
  "homogeneous_poisson": null,
  "e_total": null,
  "e_ionic": null,
  "e_electronic": null,
  "n": null,
  "e_ij_max": null,
  "weighted_surface_energy_EV_PER_ANG2": null,
  "weighted_surface_energy": null,
  "weighted_work_function": null,
  "surface_anisotropy": null,
  "shape_factor": null,
  "has_reconstructed": null,
  "possible_species": null,
  "has_props": null,
  "theoretical": null,
  "database_IDs": null,
  "fields_not_requested": [
    "builder_meta",
    "nsites",
    "elements",
    "nelements",
    "composition",
    "composition_reduced",
    "chemsys",
    "symmetry",
    "property_name",
    "deprecated",
    "deprecation_reasons",
    "last_updated",
    "origins",
    "warnings",
    "task_ids",
    "uncorrected_energy_per_atom",
    "equilibrium_reaction_energy_per_atom",
    "decomposes_to",
    "xas",
    "grain_boundaries",
    "cbm",
    "vbm",
    "is_gap_direct",
    "is_metal",
    "es_source_calc_id",
    "bandstructure",
    "dos",
    "dos_energy_up",
    "dos_energy_down",
    "is_magnetic",
    "ordering",
    "total_magnetization_normalized_vol",
    "total_magnetization_normalized_formula_units",
    "num_magnetic_sites",
    "num_unique_magnetic_sites",
    "types_of_magnetic_species",
    "bulk_modulus",
    "shear_modulus",
    "universal_anisotropy",
    "homogeneous_poisson",
    "e_total",
    "e_ionic",
    "e_electronic",
    "n",
    "e_ij_max",
    "weighted_surface_energy_EV_PER_ANG2",
    "weighted_surface_energy",
    "weighted_work_function",
    "surface_anisotropy",
    "shape_factor",
    "has_reconstructed",
    "possible_species",
    "has_props",
    "theoretical",
    "database_IDs"
  ]
}
