{
  "builder_meta": null,
  "nsites": null,
  "elements": null,
  "nelements": null,
  "composition": null,
  "composition_reduced": null,
  "formula_pretty": "Ti3Bi",
  "formula_anonymous": "AB3",
  "chemsys": null,
  "volume": 150.61217480217746,
  "density": 7.774606397198863,
  "density_atomic": 18.826521850272183,
  "symmetry": null,
  "property_name": null,
  "material_id": "mp-866201",
  "deprecated": null,
  "deprecation_reasons": null,
  "last_updated": null,
  "origins": null,
  "warnings": null,
  "structure": {
    "@module": "pymatgen.core.structure",
    "@class": "Structure",
    "charge": 0,
    "lattice": {
      "matrix": [
        [3.001473, -5.198703, 0.0],
        [3.001473, 5.198703, 0.0],
        [0.0, 0.0, 4.826148]
      ],
      "pbc": [true, true, true],
      "a": 6.002945364730384,
      "b": 6.002945364730384,
      "c": 4.826148,
      "alpha": 90.0,
      "beta": 90.0,
      "gamma": 119.99999299858693,
      "volume": 150.61217480217746
    },
    "properties": {},
    "sites": [
      {
        "species": [{ "element": "Ti", "occu": 1 }],
        "abc": [0.158032, 0.316065, 0.25],
        "properties": { "magmom": 0.027 },
        "label": "Ti",
        "xyz": [1.4229893448809998, 0.8215666311989999, 1.206537]
      },
      {
        "species": [{ "element": "Ti", "occu": 1 }],
        "abc": [0.683935, 0.841967999999999, 0.25],
        "properties": { "magmom": 0.037 },
        "label": "Ti",
        "xyz": [4.5799566551189965, 0.8215666311989951, 1.206537]
      },
      {
        "species": [{ "element": "Ti", "occu": 1 }],
        "abc": [0.158032, 0.841967999999999, 0.25],
        "properties": { "magmom": 0.025 },
        "label": "Ti",
        "xyz": [3.001472999999997, 3.555580135007995, 1.206537]
      },
      {
        "species": [{ "element": "Ti", "occu": 1 }],
        "abc": [0.841967999999999, 0.683935, 0.75],
        "properties": { "magmom": 0.027 },
        "label": "Ti",
        "xyz": [4.5799566551189965, -0.8215666311989951, 3.619611]
      },
      {
        "species": [{ "element": "Ti", "occu": 1 }],
        "abc": [0.316065, 0.158032, 0.75],
        "properties": { "magmom": 0.036000000000000004 },
        "label": "Ti",
        "xyz": [1.4229893448809998, -0.8215666311989999, 3.619611]
      },
      {
        "species": [{ "element": "Ti", "occu": 1 }],
        "abc": [0.841967999999999, 0.158032, 0.75],
        "properties": { "magmom": 0.025 },
        "label": "Ti",
        "xyz": [3.001472999999997, -3.555580135007995, 3.619611]
      },
      {
        "species": [{ "element": "Bi", "occu": 1 }],
        "abc": [0.333333, 0.666667, 0.75],
        "properties": { "magmom": -0.001 },
        "label": "Bi",
        "xyz": [3.001473, 1.732904465802, 3.619611]
      },
      {
        "species": [{ "element": "Bi", "occu": 1 }],
        "abc": [0.666667, 0.333333, 0.25],
        "properties": { "magmom": -0.001 },
        "label": "Bi",
        "xyz": [3.001473, -1.732904465802, 1.206537]
      }
    ]
  },
  "task_ids": null,
  "uncorrected_energy_per_atom": null,
  "energy_per_atom": -24.44932180916667,
  "formation_energy_per_atom": -0.12043561291666902,
  "energy_above_hull": 0.009866854166666,
  "is_stable": false,
  "equilibrium_reaction_energy_per_atom": null,
  "decomposes_to": null,
  "xas": null,
  "grain_boundaries": null,
  "band_gap": 0.0,
  "cbm": null,
  "vbm": null,
  "efermi": 7.4106873,
  "is_gap_direct": null,
  "is_metal": null,
  "es_source_calc_id": null,
  "bandstructure": null,
  "dos": null,
  "dos_energy_up": null,
  "dos_energy_down": null,
  "is_magnetic": null,
  "ordering": null,
  "total_magnetization": 0.2306839,
  "total_magnetization_normalized_vol": null,
  "total_magnetization_normalized_formula_units": null,
  "num_magnetic_sites": null,
  "num_unique_magnetic_sites": null,
  "types_of_magnetic_species": null,
  "bulk_modulus": null,
  "shear_modulus": null,
  "universal_anisotropy": null,
  "homogeneous_poisson": null,
  "e_total": null,
  "e_ionic": null,
  "e_electronic": null,
  "n": null,
  "e_ij_max": null,
  "weighted_surface_energy_EV_PER_ANG2": null,
  "weighted_surface_energy": null,
  "weighted_work_function": null,
  "surface_anisotropy": null,
  "shape_factor": null,
  "has_reconstructed": null,
  "possible_species": null,
  "has_props": null,
  "theoretical": null,
  "database_IDs": null,
  "fields_not_requested": [
    "builder_meta",
    "nsites",
    "elements",
    "nelements",
    "composition",
    "composition_reduced",
    "chemsys",
    "symmetry",
    "property_name",
    "deprecated",
    "deprecation_reasons",
    "last_updated",
    "origins",
    "warnings",
    "task_ids",
    "uncorrected_energy_per_atom",
    "equilibrium_reaction_energy_per_atom",
    "decomposes_to",
    "xas",
    "grain_boundaries",
    "cbm",
    "vbm",
    "is_gap_direct",
    "is_metal",
    "es_source_calc_id",
    "bandstructure",
    "dos",
    "dos_energy_up",
    "dos_energy_down",
    "is_magnetic",
    "ordering",
    "total_magnetization_normalized_vol",
    "total_magnetization_normalized_formula_units",
    "num_magnetic_sites",
    "num_unique_magnetic_sites",
    "types_of_magnetic_species",
    "bulk_modulus",
    "shear_modulus",
    "universal_anisotropy",
    "homogeneous_poisson",
    "e_total",
    "e_ionic",
    "e_electronic",
    "n",
    "e_ij_max",
    "weighted_surface_energy_EV_PER_ANG2",
    "weighted_surface_energy",
    "weighted_work_function",
    "surface_anisotropy",
    "shape_factor",
    "has_reconstructed",
    "possible_species",
    "has_props",
    "theoretical",
    "database_IDs"
  ]
}
