{"builder_meta": null, "nsites": null, "elements": null, "nelements": null, "composition": null, "composition_reduced": null, "formula_pretty": "Ti3C2", "formula_anonymous": "A2B3", "chemsys": null, "volume": 123.11648094774307, "density": 4.521629297630674, "density_atomic": 12.311648094774307, "symmetry": null, "property_name": null, "material_id": "mp-1094034", "deprecated": null, "deprecation_reasons": null, "last_updated": null, "origins": null, "warnings": null, "structure": {"@module": "pymatgen.core.structure", "@class": "Structure", "charge": 0, "lattice": {"matrix": [[1.53330265, -2.65575732, -0.0], [1.53330265, 2.65575732, 0.0], [0.0, 0.0, 15.11715007]], "pbc": [true, true, true], "a": 3.0666046304065033, "b": 3.0666046304065033, "c": 15.11715007, "alpha": 90.0, "beta": 90.0, "gamma": 119.99998555407164, "volume": 123.11648094774307}, "properties": {}, "sites": [{"species": [{"element": "Ti", "occu": 1}], "abc": [0.666667, 0.333333, 0.34387771], "properties": {"magmom": -0.0}, "label": "Ti", "xyz": [1.53330265, -0.8852542105048801, 5.198450947797939]}, {"species": [{"element": "Ti", "occu": 1}], "abc": [0.333333, 0.666667, 0.843882199999999], "properties": {"magmom": -0.0}, "label": "Ti", "xyz": [1.53330265, 0.8852542105048801, 12.757093858801738]}, {"species": [{"element": "Ti", "occu": 1}], "abc": [0.333333, 0.666667, 0.65612229], "properties": {"magmom": -0.0}, "label": "Ti", "xyz": [1.53330265, 0.8852542105048801, 9.91869912220206]}, {"species": [{"element": "Ti", "occu": 1}], "abc": [0.666667, 0.333333, 0.1561178], "properties": {"magmom": -0.0}, "label": "Ti", "xyz": [1.53330265, -0.8852542105048801, 2.3600562111982457]}, {"species": [{"element": "Ti", "occu": 1}], "abc": [0.0, -0.0, 0.5], "properties": {"magmom": 0.0}, "label": "Ti", "xyz": [0.0, 0.0, 7.558575035]}, {"species": [{"element": "Ti", "occu": 1}], "abc": [0.0, -0.0, -0.0], "properties": {"magmom": 0.0}, "label": "Ti", "xyz": [0.0, 0.0, 0.0]}, {"species": [{"element": "C", "occu": 1}], "abc": [0.333333, 0.666667, 0.41410376], "properties": {"magmom": -0.0}, "label": "C", "xyz": [1.53330265, 0.8852542105048801, 6.260068684471262]}, {"species": [{"element": "C", "occu": 1}], "abc": [0.666667, 0.333333, 0.91409085], "properties": {"magmom": -0.0}, "label": "C", "xyz": [1.53330265, -0.8852542105048801, 13.818448557063858]}, {"species": [{"element": "C", "occu": 1}], "abc": [0.333333, 0.666667, 0.08590915], "properties": {"magmom": -0.0}, "label": "C", "xyz": [1.53330265, 0.8852542105048801, 1.2987015129361406]}, {"species": [{"element": "C", "occu": 1}], "abc": [0.666667, 0.333333, 0.58589624], "properties": {"magmom": -0.0}, "label": "C", "xyz": [1.53330265, -0.8852542105048801, 8.857081385528735]}]}, "task_ids": null, "uncorrected_energy_per_atom": null, "energy_per_atom": -9.109501351999999, "formation_energy_per_atom": -0.680739944999999, "energy_above_hull": 0.049715244000001005, "is_stable": false, "equilibrium_reaction_energy_per_atom": null, "decomposes_to": null, "xas": null, "grain_boundaries": null, "band_gap": 0.0, "cbm": null, "vbm": null, "efermi": 6.59587989, "is_gap_direct": null, "is_metal": null, "es_source_calc_id": null, "bandstructure": null, "dos": null, "dos_energy_up": null, "dos_energy_down": null, "is_magnetic": null, "ordering": null, "total_magnetization": 7e-07, "total_magnetization_normalized_vol": null, "total_magnetization_normalized_formula_units": null, "num_magnetic_sites": null, "num_unique_magnetic_sites": null, "types_of_magnetic_species": null, "bulk_modulus": null, "shear_modulus": null, "universal_anisotropy": null, "homogeneous_poisson": null, "e_total": null, "e_ionic": null, "e_electronic": null, "n": null, "e_ij_max": null, "weighted_surface_energy_EV_PER_ANG2": null, "weighted_surface_energy": null, "weighted_work_function": null, "surface_anisotropy": null, "shape_factor": null, "has_reconstructed": null, "possible_species": null, "has_props": null, "theoretical": null, "database_IDs": null, "fields_not_requested": ["builder_meta", "nsites", "elements", "nelements", "composition", "composition_reduced", "chemsys", "symmetry", "property_name", "deprecated", "deprecation_reasons", "last_updated", "origins", "warnings", "task_ids", "uncorrected_energy_per_atom", "equilibrium_reaction_energy_per_atom", "decomposes_to", "xas", "grain_boundaries", "cbm", "vbm", "is_gap_direct", "is_metal", "es_source_calc_id", "bandstructure", "dos", "dos_energy_up", "dos_energy_down", "is_magnetic", "ordering", "total_magnetization_normalized_vol", "total_magnetization_normalized_formula_units", "num_magnetic_sites", "num_unique_magnetic_sites", "types_of_magnetic_species", "bulk_modulus", "shear_modulus", "universal_anisotropy", "homogeneous_poisson", "e_total", "e_ionic", "e_electronic", "n", "e_ij_max", "weighted_surface_energy_EV_PER_ANG2", "weighted_surface_energy", "weighted_work_function", "surface_anisotropy", "shape_factor", "has_reconstructed", "possible_species", "has_props", "theoretical", "database_IDs"]}