{
  "builder_meta": null,
  "nsites": null,
  "elements": null,
  "nelements": null,
  "composition": null,
  "composition_reduced": null,
  "formula_pretty": "Ti3Cu4",
  "formula_anonymous": "A3B4",
  "chemsys": null,
  "volume": 96.0243117419625,
  "density": 6.878857245886687,
  "density_atomic": 13.717758820280357,
  "symmetry": null,
  "property_name": null,
  "material_id": "mp-2643",
  "deprecated": null,
  "deprecation_reasons": null,
  "last_updated": null,
  "origins": null,
  "warnings": null,
  "structure": {
    "@module": "pymatgen.core.structure",
    "@class": "Structure",
    "charge": 0,
    "lattice": {
      "matrix": [
        [3.07810249, -0.0, -0.47732772],
        [-0.07402027, 3.07721305, -0.47732772],
        [-0.00379634, -0.00388807, 10.1389326]
      ],
      "pbc": [true, true, true],
      "a": 3.1148927254762078,
      "b": 3.114893402307946,
      "c": 10.138934056232365,
      "alpha": 98.83621218608177,
      "beta": 98.83621799537438,
      "gamma": 90.00000132936667,
      "volume": 96.0243117419625
    },
    "properties": {},
    "sites": [
      {
        "species": [{ "element": "Ti", "occu": 1 }],
        "abc": [0.70718086, 0.70718086, 0.41436172],
        "properties": { "magmom": -0.019 },
        "label": "Ti",
        "xyz": [2.1228563898782045, 2.174535103729543, 3.5260714960371935]
      },
      {
        "species": [{ "element": "Ti", "occu": 1 }],
        "abc": [0.29281914000000003, 0.29281914000000003, 0.5856382800000001],
        "properties": { "magmom": -0.019 },
        "label": "Ti",
        "xyz": [0.8774294901217956, 0.8987898762704576, 5.658205663962808]
      },
      {
        "species": [{ "element": "Ti", "occu": 1 }],
        "abc": [-0.0, 0.0, -0.0],
        "properties": { "magmom": 0.43 },
        "label": "Ti",
        "xyz": [0.0, 0.0, 0.0]
      },
      {
        "species": [{ "element": "Cu", "occu": 1 }],
        "abc": [0.57066175, 0.57066175, 0.14132149],
        "properties": { "magmom": 0.031 },
        "label": "Cu",
        "xyz": [1.7137783123837382, 1.7554983163902131, 0.888063718004154]
      },
      {
        "species": [{ "element": "Cu", "occu": 1 }],
        "abc": [0.42933825000000003, 0.42933825000000003, 0.8586785100000001],
        "properties": { "magmom": 0.031 },
        "label": "Cu",
        "xyz": [1.2865075676162618, 1.3178266636097868, 8.296213441995848]
      },
      {
        "species": [{ "element": "Cu", "occu": 1 }],
        "abc": [0.86570579, 0.86570579, 0.73141258],
        "properties": { "magmom": -0.004 },
        "label": "Cu",
        "xyz": [2.597874680656097, 2.6611173711386393, 6.58929210954911]
      },
      {
        "species": [{ "element": "Cu", "occu": 1 }],
        "abc": [0.13429421, 0.13429421, 0.26858742],
        "properties": { "magmom": -0.004 },
        "label": "Cu",
        "xyz": [0.4024111993439034, 0.4122076088613611, 2.59498505045089]
      }
    ]
  },
  "task_ids": null,
  "uncorrected_energy_per_atom": null,
  "energy_per_atom": -11.87726967142857,
  "formation_energy_per_atom": -0.13434752285714002,
  "energy_above_hull": 0.0,
  "is_stable": true,
  "equilibrium_reaction_energy_per_atom": null,
  "decomposes_to": null,
  "xas": null,
  "grain_boundaries": null,
  "band_gap": 0.0,
  "cbm": null,
  "vbm": null,
  "efermi": 6.62981495,
  "is_gap_direct": null,
  "is_metal": null,
  "es_source_calc_id": null,
  "bandstructure": null,
  "dos": null,
  "dos_energy_up": null,
  "dos_energy_down": null,
  "is_magnetic": null,
  "ordering": null,
  "total_magnetization": 0.511813,
  "total_magnetization_normalized_vol": null,
  "total_magnetization_normalized_formula_units": null,
  "num_magnetic_sites": null,
  "num_unique_magnetic_sites": null,
  "types_of_magnetic_species": null,
  "bulk_modulus": null,
  "shear_modulus": null,
  "universal_anisotropy": null,
  "homogeneous_poisson": null,
  "e_total": null,
  "e_ionic": null,
  "e_electronic": null,
  "n": null,
  "e_ij_max": null,
  "weighted_surface_energy_EV_PER_ANG2": null,
  "weighted_surface_energy": null,
  "weighted_work_function": null,
  "surface_anisotropy": null,
  "shape_factor": null,
  "has_reconstructed": null,
  "possible_species": null,
  "has_props": null,
  "theoretical": null,
  "database_IDs": null,
  "fields_not_requested": [
    "builder_meta",
    "nsites",
    "elements",
    "nelements",
    "composition",
    "composition_reduced",
    "chemsys",
    "symmetry",
    "property_name",
    "deprecated",
    "deprecation_reasons",
    "last_updated",
    "origins",
    "warnings",
    "task_ids",
    "uncorrected_energy_per_atom",
    "equilibrium_reaction_energy_per_atom",
    "decomposes_to",
    "xas",
    "grain_boundaries",
    "cbm",
    "vbm",
    "is_gap_direct",
    "is_metal",
    "es_source_calc_id",
    "bandstructure",
    "dos",
    "dos_energy_up",
    "dos_energy_down",
    "is_magnetic",
    "ordering",
    "total_magnetization_normalized_vol",
    "total_magnetization_normalized_formula_units",
    "num_magnetic_sites",
    "num_unique_magnetic_sites",
    "types_of_magnetic_species",
    "bulk_modulus",
    "shear_modulus",
    "universal_anisotropy",
    "homogeneous_poisson",
    "e_total",
    "e_ionic",
    "e_electronic",
    "n",
    "e_ij_max",
    "weighted_surface_energy_EV_PER_ANG2",
    "weighted_surface_energy",
    "weighted_work_function",
    "surface_anisotropy",
    "shape_factor",
    "has_reconstructed",
    "possible_species",
    "has_props",
    "theoretical",
    "database_IDs"
  ]
}
