{"builder_meta": null, "nsites": null, "elements": null, "nelements": null, "composition": null, "composition_reduced": null, "formula_pretty": "Ti3Fe", "formula_anonymous": "AB3", "chemsys": null, "volume": 62.62924524697513, "density": 5.288070666843926, "density_atomic": 15.657311311743783, "symmetry": null, "property_name": null, "material_id": "mp-1217177", "deprecated": null, "deprecation_reasons": null, "last_updated": null, "origins": null, "warnings": null, "structure": {"@module": "pymatgen.core.structure", "@class": "Structure", "charge": 0, "lattice": {"matrix": [[-1.499693999999999, -2.596596, 0.0], [-1.499693999999999, 2.596596, 0.0], [0.0, 0.0, -8.041557]], "pbc": [true, true, true], "a": 2.998565137003363, "b": 2.998565137003363, "c": 8.041557, "alpha": 90.0, "beta": 90.0, "gamma": 119.98184376009434, "volume": 62.62924524697508}, "properties": {}, "sites": [{"species": [{"element": "Ti", "occu": 1}], "abc": [0.666816, 0.333184, 0.875], "properties": {"magmom": -0.001}, "label": "Ti", "xyz": [-1.499693999999999, -0.8663075166719999, -7.0363623749999995]}, {"species": [{"element": "Ti", "occu": 1}], "abc": [0.333246, 0.666754, 0.159885], "properties": {"magmom": 0.002}, "label": "Ti", "xyz": [-1.499693999999999, 0.8659855387679999, -1.2857243409449999]}, {"species": [{"element": "Ti", "occu": 1}], "abc": [0.333246, 0.666754, 0.590115], "properties": {"magmom": 0.002}, "label": "Ti", "xyz": [-1.499693999999999, 0.8659855387679999, -4.7454434090549995]}, {"species": [{"element": "Fe", "occu": 1}], "abc": [0.666692, 0.333308, 0.375], "properties": {"magmom": -0.003}, "label": "Fe", "xyz": [-1.499693999999999, -0.8656635608639999, -3.015583875]}]}, "task_ids": null, "uncorrected_energy_per_atom": null, "energy_per_atom": -7.9976911975, "formation_energy_per_atom": 0.041433117500000005, "energy_above_hull": 0.251848193333332, "is_stable": false, "equilibrium_reaction_energy_per_atom": null, "decomposes_to": null, "xas": null, "grain_boundaries": null, "band_gap": 0.0, "cbm": null, "vbm": null, "efermi": 5.95473097, "is_gap_direct": null, "is_metal": null, "es_source_calc_id": null, "bandstructure": null, "dos": null, "dos_energy_up": null, "dos_energy_down": null, "is_magnetic": null, "ordering": null, "total_magnetization": 0.0007890999999990001, "total_magnetization_normalized_vol": null, "total_magnetization_normalized_formula_units": null, "num_magnetic_sites": null, "num_unique_magnetic_sites": null, "types_of_magnetic_species": null, "bulk_modulus": null, "shear_modulus": null, "universal_anisotropy": null, "homogeneous_poisson": null, "e_total": null, "e_ionic": null, "e_electronic": null, "n": null, "e_ij_max": null, "weighted_surface_energy_EV_PER_ANG2": null, "weighted_surface_energy": null, "weighted_work_function": null, "surface_anisotropy": null, "shape_factor": null, "has_reconstructed": null, "possible_species": null, "has_props": null, "theoretical": null, "database_IDs": null, "fields_not_requested": ["builder_meta", "nsites", "elements", "nelements", "composition", "composition_reduced", "chemsys", "symmetry", "property_name", "deprecated", "deprecation_reasons", "last_updated", "origins", "warnings", "task_ids", "uncorrected_energy_per_atom", "equilibrium_reaction_energy_per_atom", "decomposes_to", "xas", "grain_boundaries", "cbm", "vbm", "is_gap_direct", "is_metal", "es_source_calc_id", "bandstructure", "dos", "dos_energy_up", "dos_energy_down", "is_magnetic", "ordering", "total_magnetization_normalized_vol", "total_magnetization_normalized_formula_units", "num_magnetic_sites", "num_unique_magnetic_sites", "types_of_magnetic_species", "bulk_modulus", "shear_modulus", "universal_anisotropy", "homogeneous_poisson", "e_total", "e_ionic", "e_electronic", "n", "e_ij_max", "weighted_surface_energy_EV_PER_ANG2", "weighted_surface_energy", "weighted_work_function", "surface_anisotropy", "shape_factor", "has_reconstructed", "possible_species", "has_props", "theoretical", "database_IDs"]}