{"builder_meta": null, "nsites": null, "elements": null, "nelements": null, "composition": null, "composition_reduced": null, "formula_pretty": "Ti3Ge", "formula_anonymous": "AB3", "chemsys": null, "volume": 267.74929970931635, "density": 5.364370755635727, "density_atomic": 16.73433123183227, "symmetry": null, "property_name": null, "material_id": "mp-1189044", "deprecated": null, "deprecation_reasons": null, "last_updated": null, "origins": null, "warnings": null, "structure": {"@module": "pymatgen.core.structure", "@class": "Structure", "charge": 0, "lattice": {"matrix": [[-5.09959854, 5.09962749, 2.57391328], [5.09959854, -5.09962749, 2.57391328], [5.09962749, 5.09959854, -2.57391328]], "pbc": [true, true, true], "a": 7.6574888428840815, "b": 7.6574888428840815, "c": 7.6574888428840815, "alpha": 96.48733081738057, "beta": 96.48733081738057, "gamma": 140.7174406649355, "volume": 267.74929970931635}, "properties": {}, "sites": [{"species": [{"element": "Ti", "occu": 1}], "abc": [0.31733237000000003, 0.29444532, 0.19139287], "properties": {"magmom": 0.0}, "label": "Ti", "xyz": [0.8593175744770891, 1.0927422297634144, 1.0820340709084098]}, {"species": [{"element": "Ti", "occu": 1}], "abc": [0.10305245, 0.12593949000000002, 0.8086071300000001], "properties": {"magmom": 0.0}, "label": "Ti", "xyz": [4.2403098645269255, 4.0068563612328605, -1.4918792348307235]}, {"species": [{"element": "Ti", "occu": 1}], "abc": [0.8740605100000001, 0.68266763, 0.97711295], "properties": {"magmom": 0.0}, "label": "Ti", "xyz": [4.006885209240599, 5.958916165473364, 1.4918792348307233]}, {"species": [{"element": "Ti", "occu": 1}], "abc": [0.70555468, 0.89694755, 0.02288705], "properties": {"magmom": 0.0}, "label": "Ti", "xyz": [1.0927422297634144, -0.859317574477089, 4.065792489091591]}, {"species": [{"element": "Ti", "occu": 1}], "abc": [0.00945683, 0.33699994, 0.38341267], "properties": {"magmom": -0.0}, "label": "Ti", "xyz": [3.6256001574893575, 0.28490284423340806, -0.09512128178435209]}, {"species": [{"element": "Ti", "occu": 1}], "abc": [0.95358727, 0.62604416, 0.61658733], "properties": {"magmom": -0.0}, "label": "Ti", "xyz": [1.474027332510642, 4.814695695766591, 2.4787919982156486]}, {"species": [{"element": "Ti", "occu": 1}], "abc": [0.37395584, 0.99054317, 0.32754211], "properties": {"magmom": -0.0}, "label": "Ti", "xyz": [4.814690596139103, -1.4740324321091822, 2.669037135697632]}, {"species": [{"element": "Ti", "occu": 1}], "abc": [0.66300006, 0.04641273, 0.67245789], "properties": {"magmom": -0.0}, "label": "Ti", "xyz": [0.2849368938608978, 6.573630972109182, 0.09511870787107224]}, {"species": [{"element": "Ti", "occu": 1}], "abc": [0.9739100700000001, 0.94134206, 0.4008595], "properties": {"magmom": -0.0}, "label": "Ti", "xyz": [1.8781503495809484, 2.2103072400357244, 3.8979153014911274]}, {"species": [{"element": "Ti", "occu": 1}], "abc": [0.54048356, 0.57305158, 0.5991405], "properties": {"magmom": -0.0}, "label": "Ti", "xyz": [3.2214771914150355, 2.8892912489679996, 1.3240071950568195]}, {"species": [{"element": "Ti", "occu": 1}], "abc": [0.42694842, 0.02608993, 0.96743199], "properties": {"magmom": -0.0}, "label": "Ti", "xyz": [2.8893254005588003, 6.977743738957184, -1.3240046211435397]}, {"species": [{"element": "Ti", "occu": 1}], "abc": [0.05865794, 0.45951644, 0.03256801], "properties": {"magmom": -0.0}, "label": "Ti", "xyz": [2.2103021404371845, -1.8781452499534594, 1.2499086845955938]}, {"species": [{"element": "Ge", "occu": 1}], "abc": [0.51293692, 0.7679105700000001, 0.32804276], "properties": {"magmom": 0.0}, "label": "Ge", "xyz": [2.973159130069943, 0.3726157451879317, 2.452436747793815]}, {"species": [{"element": "Ge", "occu": 1}], "abc": [0.43986781, 0.18489417, 0.67195724], "properties": {"magmom": 0.0}, "label": "Ge", "xyz": [2.1264684109260417, 4.7269827438157925, -0.12147650646705288]}, {"species": [{"element": "Ge", "occu": 1}], "abc": [0.81510583, 0.48706308000000004, 0.25497365], "properties": {"magmom": 0.0}, "label": "Ge", "xyz": [-0.3726156941919465, 2.9731590790736684, 2.695389786467053]}, {"species": [{"element": "Ge", "occu": 1}], "abc": [0.23208943, 0.56013219, 0.7450263500000001], "properties": {"magmom": 0.0}, "label": "Ge", "xyz": [5.472243235187932, 2.1264394099300565, 0.12147653220618548]}]}, "task_ids": null, "uncorrected_energy_per_atom": null, "energy_per_atom": -13.652877839375, "formation_energy_per_atom": -0.481565684374999, "energy_above_hull": 0.013003969652777001, "is_stable": false, "equilibrium_reaction_energy_per_atom": null, "decomposes_to": null, "xas": null, "grain_boundaries": null, "band_gap": 0.0, "cbm": null, "vbm": null, "efermi": 6.18479524, "is_gap_direct": null, "is_metal": null, "es_source_calc_id": null, "bandstructure": null, "dos": null, "dos_energy_up": null, "dos_energy_down": null, "is_magnetic": null, "ordering": null, "total_magnetization": 0.000109399999999, "total_magnetization_normalized_vol": null, "total_magnetization_normalized_formula_units": null, "num_magnetic_sites": null, "num_unique_magnetic_sites": null, "types_of_magnetic_species": null, "bulk_modulus": null, "shear_modulus": null, "universal_anisotropy": null, "homogeneous_poisson": null, "e_total": null, "e_ionic": null, "e_electronic": null, "n": null, "e_ij_max": null, "weighted_surface_energy_EV_PER_ANG2": null, "weighted_surface_energy": null, "weighted_work_function": null, "surface_anisotropy": null, "shape_factor": null, "has_reconstructed": null, "possible_species": null, "has_props": null, "theoretical": null, "database_IDs": null, "fields_not_requested": ["builder_meta", "nsites", "elements", "nelements", "composition", "composition_reduced", "chemsys", "symmetry", "property_name", "deprecated", "deprecation_reasons", "last_updated", "origins", "warnings", "task_ids", "uncorrected_energy_per_atom", "equilibrium_reaction_energy_per_atom", "decomposes_to", "xas", "grain_boundaries", "cbm", "vbm", "is_gap_direct", "is_metal", "es_source_calc_id", "bandstructure", "dos", "dos_energy_up", "dos_energy_down", "is_magnetic", "ordering", "total_magnetization_normalized_vol", "total_magnetization_normalized_formula_units", "num_magnetic_sites", "num_unique_magnetic_sites", "types_of_magnetic_species", "bulk_modulus", "shear_modulus", "universal_anisotropy", "homogeneous_poisson", "e_total", "e_ionic", "e_electronic", "n", "e_ij_max", "weighted_surface_energy_EV_PER_ANG2", "weighted_surface_energy", "weighted_work_function", "surface_anisotropy", "shape_factor", "has_reconstructed", "possible_species", "has_props", "theoretical", "database_IDs"]}