{
  "builder_meta": null,
  "nsites": null,
  "elements": null,
  "nelements": null,
  "composition": null,
  "composition_reduced": null,
  "formula_pretty": "Ti3In4",
  "formula_anonymous": "A3B4",
  "chemsys": null,
  "volume": 298.50786314113725,
  "density": 6.707321932253525,
  "density_atomic": 21.321990224366946,
  "symmetry": null,
  "property_name": null,
  "material_id": "mp-20433",
  "deprecated": null,
  "deprecation_reasons": null,
  "last_updated": null,
  "origins": null,
  "warnings": null,
  "structure": {
    "@module": "pymatgen.core.structure",
    "@class": "Structure",
    "charge": 0,
    "lattice": {
      "matrix": [
        [9.994025, 0.0, 0.0],
        [0.0, 9.994025, 0.0],
        [0.0, 0.0, 2.988649]
      ],
      "pbc": [true, true, true],
      "a": 9.994025,
      "b": 9.994025,
      "c": 2.988649,
      "alpha": 90.0,
      "beta": 90.0,
      "gamma": 90.0,
      "volume": 298.50786314113725
    },
    "properties": {},
    "sites": [
      {
        "species": [{ "element": "Ti", "occu": 1 }],
        "abc": [0.176326999999999, 0.323673, 0.5],
        "properties": { "magmom": -0.034 },
        "label": "Ti",
        "xyz": [1.7622164461749903, 3.2347960538250002, 1.4943245]
      },
      {
        "species": [{ "element": "Ti", "occu": 1 }],
        "abc": [0.323673, 0.823673, 0.5],
        "properties": { "magmom": -0.034 },
        "label": "Ti",
        "xyz": [3.2347960538250002, 8.231808553825001, 1.4943245]
      },
      {
        "species": [{ "element": "Ti", "occu": 1 }],
        "abc": [0.676327, 0.176326999999999, 0.5],
        "properties": { "magmom": -0.034 },
        "label": "Ti",
        "xyz": [6.759228946175001, 1.7622164461749903, 1.4943245]
      },
      {
        "species": [{ "element": "Ti", "occu": 1 }],
        "abc": [0.5, 0.0, 0.0],
        "properties": { "magmom": 0.10200000000000001 },
        "label": "Ti",
        "xyz": [4.9970125, 0.0, 0.0]
      },
      {
        "species": [{ "element": "Ti", "occu": 1 }],
        "abc": [0.823673, 0.676327, 0.5],
        "properties": { "magmom": -0.034 },
        "label": "Ti",
        "xyz": [8.231808553825001, 6.759228946175001, 1.4943245]
      },
      {
        "species": [{ "element": "Ti", "occu": 1 }],
        "abc": [0.0, 0.5, 0.0],
        "properties": { "magmom": 0.10200000000000001 },
        "label": "Ti",
        "xyz": [0.0, 4.9970125, 0.0]
      },
      {
        "species": [{ "element": "In", "occu": 1 }],
        "abc": [0.441243, 0.287956, 0.0],
        "properties": { "magmom": 0.002 },
        "label": "In",
        "xyz": [4.409793573075, 2.8778394629, 0.0]
      },
      {
        "species": [{ "element": "In", "occu": 1 }],
        "abc": [0.787956, 0.941242999999999, 0.0],
        "properties": { "magmom": 0.002 },
        "label": "In",
        "xyz": [7.8748519629, 9.406806073074991, 0.0]
      },
      {
        "species": [{ "element": "In", "occu": 1 }],
        "abc": [0.058757, 0.787956, 0.0],
        "properties": { "magmom": 0.002 },
        "label": "In",
        "xyz": [0.587218926925, 7.8748519629, 0.0]
      },
      {
        "species": [{ "element": "In", "occu": 1 }],
        "abc": [0.287956, 0.558757, 0.0],
        "properties": { "magmom": 0.002 },
        "label": "In",
        "xyz": [2.8778394629, 5.584231426925, 0.0]
      },
      {
        "species": [{ "element": "In", "occu": 1 }],
        "abc": [0.558757, 0.712044, 0.0],
        "properties": { "magmom": 0.002 },
        "label": "In",
        "xyz": [5.584231426925, 7.116185537100001, 0.0]
      },
      {
        "species": [{ "element": "In", "occu": 1 }],
        "abc": [0.712044, 0.441243, 0.0],
        "properties": { "magmom": 0.002 },
        "label": "In",
        "xyz": [7.116185537100001, 4.409793573075, 0.0]
      },
      {
        "species": [{ "element": "In", "occu": 1 }],
        "abc": [0.212043999999999, 0.058757, 0.0],
        "properties": { "magmom": 0.002 },
        "label": "In",
        "xyz": [2.11917303709999, 0.587218926925, 0.0]
      },
      {
        "species": [{ "element": "In", "occu": 1 }],
        "abc": [0.941242999999999, 0.212043999999999, 0.0],
        "properties": { "magmom": 0.002 },
        "label": "In",
        "xyz": [9.406806073074991, 2.11917303709999, 0.0]
      }
    ]
  },
  "task_ids": null,
  "uncorrected_energy_per_atom": null,
  "energy_per_atom": -4.986251074285714,
  "formation_energy_per_atom": -0.02579807095238,
  "energy_above_hull": 0.093612806190476,
  "is_stable": false,
  "equilibrium_reaction_energy_per_atom": null,
  "decomposes_to": null,
  "xas": null,
  "grain_boundaries": null,
  "band_gap": 0.0,
  "cbm": null,
  "vbm": null,
  "efermi": 7.45981886,
  "is_gap_direct": null,
  "is_metal": null,
  "es_source_calc_id": null,
  "bandstructure": null,
  "dos": null,
  "dos_energy_up": null,
  "dos_energy_down": null,
  "is_magnetic": null,
  "ordering": null,
  "total_magnetization": 0.0923653,
  "total_magnetization_normalized_vol": null,
  "total_magnetization_normalized_formula_units": null,
  "num_magnetic_sites": null,
  "num_unique_magnetic_sites": null,
  "types_of_magnetic_species": null,
  "bulk_modulus": null,
  "shear_modulus": null,
  "universal_anisotropy": null,
  "homogeneous_poisson": null,
  "e_total": null,
  "e_ionic": null,
  "e_electronic": null,
  "n": null,
  "e_ij_max": null,
  "weighted_surface_energy_EV_PER_ANG2": null,
  "weighted_surface_energy": null,
  "weighted_work_function": null,
  "surface_anisotropy": null,
  "shape_factor": null,
  "has_reconstructed": null,
  "possible_species": null,
  "has_props": null,
  "theoretical": null,
  "database_IDs": null,
  "fields_not_requested": [
    "builder_meta",
    "nsites",
    "elements",
    "nelements",
    "composition",
    "composition_reduced",
    "chemsys",
    "symmetry",
    "property_name",
    "deprecated",
    "deprecation_reasons",
    "last_updated",
    "origins",
    "warnings",
    "task_ids",
    "uncorrected_energy_per_atom",
    "equilibrium_reaction_energy_per_atom",
    "decomposes_to",
    "xas",
    "grain_boundaries",
    "cbm",
    "vbm",
    "is_gap_direct",
    "is_metal",
    "es_source_calc_id",
    "bandstructure",
    "dos",
    "dos_energy_up",
    "dos_energy_down",
    "is_magnetic",
    "ordering",
    "total_magnetization_normalized_vol",
    "total_magnetization_normalized_formula_units",
    "num_magnetic_sites",
    "num_unique_magnetic_sites",
    "types_of_magnetic_species",
    "bulk_modulus",
    "shear_modulus",
    "universal_anisotropy",
    "homogeneous_poisson",
    "e_total",
    "e_ionic",
    "e_electronic",
    "n",
    "e_ij_max",
    "weighted_surface_energy_EV_PER_ANG2",
    "weighted_surface_energy",
    "weighted_work_function",
    "surface_anisotropy",
    "shape_factor",
    "has_reconstructed",
    "possible_species",
    "has_props",
    "theoretical",
    "database_IDs"
  ]
}
