{
  "builder_meta": null,
  "nsites": null,
  "elements": null,
  "nelements": null,
  "composition": null,
  "composition_reduced": null,
  "formula_pretty": "Ti3Ir2",
  "formula_anonymous": "A2B3",
  "chemsys": null,
  "volume": 154.40859306067446,
  "density": 11.3571755127331,
  "density_atomic": 15.440859306067447,
  "symmetry": null,
  "property_name": null,
  "material_id": "mp-1217113",
  "deprecated": null,
  "deprecation_reasons": null,
  "last_updated": null,
  "origins": null,
  "warnings": null,
  "structure": {
    "@module": "pymatgen.core.structure",
    "@class": "Structure",
    "charge": 0,
    "lattice": {
      "matrix": [
        [3.109578, 0.0, 0.0],
        [0.0, 3.109578, 0.0],
        [0.0, 0.0, 15.968663]
      ],
      "pbc": [true, true, true],
      "a": 3.109578,
      "b": 3.109578,
      "c": 15.968663,
      "alpha": 90.0,
      "beta": 90.0,
      "gamma": 90.0,
      "volume": 154.40859306067446
    },
    "properties": {},
    "sites": [
      {
        "species": [{ "element": "Ti", "occu": 1 }],
        "abc": [0.5, 0.5, 0.106673999999999],
        "properties": { "magmom": 0.002 },
        "label": "Ti",
        "xyz": [1.554789, 1.554789, 1.703441156861984]
      },
      {
        "species": [{ "element": "Ti", "occu": 1 }],
        "abc": [0.5, 0.5, 0.302865],
        "properties": { "magmom": 0.016 },
        "label": "Ti",
        "xyz": [1.554789, 1.554789, 4.836349119495]
      },
      {
        "species": [{ "element": "Ti", "occu": 1 }],
        "abc": [0.5, 0.5, 0.5],
        "properties": { "magmom": 0.125 },
        "label": "Ti",
        "xyz": [1.554789, 1.554789, 7.9843315]
      },
      {
        "species": [{ "element": "Ti", "occu": 1 }],
        "abc": [0.5, 0.5, 0.697135],
        "properties": { "magmom": 0.016 },
        "label": "Ti",
        "xyz": [1.554789, 1.554789, 11.132313880504999]
      },
      {
        "species": [{ "element": "Ti", "occu": 1 }],
        "abc": [0.5, 0.5, 0.893326],
        "properties": { "magmom": 0.002 },
        "label": "Ti",
        "xyz": [1.554789, 1.554789, 14.265221843137999]
      },
      {
        "species": [{ "element": "Ti", "occu": 1 }],
        "abc": [0.0, 0.0, 0.0],
        "properties": { "magmom": -0.004 },
        "label": "Ti",
        "xyz": [0.0, 0.0, 0.0]
      },
      {
        "species": [{ "element": "Ir", "occu": 1 }],
        "abc": [0.0, 0.0, 0.205777],
        "properties": { "magmom": -0.006 },
        "label": "Ir",
        "xyz": [0.0, 0.0, 3.2859835661509997]
      },
      {
        "species": [{ "element": "Ir", "occu": 1 }],
        "abc": [0.0, 0.0, 0.399839],
        "properties": { "magmom": 0.107 },
        "label": "Ir",
        "xyz": [0.0, 0.0, 6.384894245257]
      },
      {
        "species": [{ "element": "Ir", "occu": 1 }],
        "abc": [0.0, 0.0, 0.600161],
        "properties": { "magmom": 0.107 },
        "label": "Ir",
        "xyz": [0.0, 0.0, 9.583768754742998]
      },
      {
        "species": [{ "element": "Ir", "occu": 1 }],
        "abc": [0.0, 0.0, 0.794223],
        "properties": { "magmom": -0.006 },
        "label": "Ir",
        "xyz": [0.0, 0.0, 12.682679433849]
      }
    ]
  },
  "task_ids": null,
  "uncorrected_energy_per_atom": null,
  "energy_per_atom": -8.96063951,
  "formation_energy_per_atom": -0.6879706280000001,
  "energy_above_hull": 0.05711464100000001,
  "is_stable": false,
  "equilibrium_reaction_energy_per_atom": null,
  "decomposes_to": null,
  "xas": null,
  "grain_boundaries": null,
  "band_gap": 0.0,
  "cbm": null,
  "vbm": null,
  "efermi": 8.02606895,
  "is_gap_direct": null,
  "is_metal": null,
  "es_source_calc_id": null,
  "bandstructure": null,
  "dos": null,
  "dos_energy_up": null,
  "dos_energy_down": null,
  "is_magnetic": null,
  "ordering": null,
  "total_magnetization": 0.3807124,
  "total_magnetization_normalized_vol": null,
  "total_magnetization_normalized_formula_units": null,
  "num_magnetic_sites": null,
  "num_unique_magnetic_sites": null,
  "types_of_magnetic_species": null,
  "bulk_modulus": null,
  "shear_modulus": null,
  "universal_anisotropy": null,
  "homogeneous_poisson": null,
  "e_total": null,
  "e_ionic": null,
  "e_electronic": null,
  "n": null,
  "e_ij_max": null,
  "weighted_surface_energy_EV_PER_ANG2": null,
  "weighted_surface_energy": null,
  "weighted_work_function": null,
  "surface_anisotropy": null,
  "shape_factor": null,
  "has_reconstructed": null,
  "possible_species": null,
  "has_props": null,
  "theoretical": null,
  "database_IDs": null,
  "fields_not_requested": [
    "builder_meta",
    "nsites",
    "elements",
    "nelements",
    "composition",
    "composition_reduced",
    "chemsys",
    "symmetry",
    "property_name",
    "deprecated",
    "deprecation_reasons",
    "last_updated",
    "origins",
    "warnings",
    "task_ids",
    "uncorrected_energy_per_atom",
    "equilibrium_reaction_energy_per_atom",
    "decomposes_to",
    "xas",
    "grain_boundaries",
    "cbm",
    "vbm",
    "is_gap_direct",
    "is_metal",
    "es_source_calc_id",
    "bandstructure",
    "dos",
    "dos_energy_up",
    "dos_energy_down",
    "is_magnetic",
    "ordering",
    "total_magnetization_normalized_vol",
    "total_magnetization_normalized_formula_units",
    "num_magnetic_sites",
    "num_unique_magnetic_sites",
    "types_of_magnetic_species",
    "bulk_modulus",
    "shear_modulus",
    "universal_anisotropy",
    "homogeneous_poisson",
    "e_total",
    "e_ionic",
    "e_electronic",
    "n",
    "e_ij_max",
    "weighted_surface_energy_EV_PER_ANG2",
    "weighted_surface_energy",
    "weighted_work_function",
    "surface_anisotropy",
    "shape_factor",
    "has_reconstructed",
    "possible_species",
    "has_props",
    "theoretical",
    "database_IDs"
  ]
}
