{
  "builder_meta": null,
  "nsites": null,
  "elements": null,
  "nelements": null,
  "composition": null,
  "composition_reduced": null,
  "formula_pretty": "Ti3In",
  "formula_anonymous": "AB3",
  "chemsys": null,
  "volume": 144.05978070692592,
  "density": 5.957455202915978,
  "density_atomic": 18.00747258836574,
  "symmetry": null,
  "property_name": null,
  "material_id": "mp-866046",
  "deprecated": null,
  "deprecation_reasons": null,
  "last_updated": null,
  "origins": null,
  "warnings": null,
  "structure": {
    "@module": "pymatgen.core.structure",
    "@class": "Structure",
    "charge": 0,
    "lattice": {
      "matrix": [
        [5.90293973, -2.9260000000000004e-5, 0.0],
        [-2.95149552, 5.1120735, 0.0],
        [0.0, 0.0, 4.77395756]
      ],
      "pbc": [true, true, true],
      "a": 5.902939730072518,
      "b": 5.902933277107436,
      "c": 4.77395756,
      "alpha": 90.0,
      "beta": 90.0,
      "gamma": 120.00060770751236,
      "volume": 144.05978070692592
    },
    "properties": {},
    "sites": [
      {
        "species": [{ "element": "Ti", "occu": 1 }],
        "abc": [0.16522346000000002, 0.33044317, 0.25],
        "properties": { "magmom": 0.001 },
        "label": "Ti",
        "xyz": [2.59049246742471e-6, 1.6892449381745556, 1.19348939]
      },
      {
        "species": [{ "element": "Ti", "occu": 1 }],
        "abc": [0.66953984, 0.83477055, 0.25],
        "properties": { "magmom": 0.001 },
        "label": "Ti",
        "xyz": [1.4884317838009071, 4.267388816499707, 1.19348939]
      },
      {
        "species": [{ "element": "Ti", "occu": 1 }],
        "abc": [0.16523599, 0.83476711, 0.25],
        "properties": { "magmom": 0.001 },
        "label": "Ti",
        "xyz": [-1.4884332952114645, 4.2673859868975175, 1.19348939]
      },
      {
        "species": [{ "element": "Ti", "occu": 1 }],
        "abc": [0.83478282, 0.66955446, 0.75],
        "properties": { "magmom": -0.001 },
        "label": "Ti",
        "xyz": [2.9514856850134197, 3.422787186027497, 3.5804681700000005]
      },
      {
        "species": [{ "element": "Ti", "occu": 1 }],
        "abc": [0.33046315, 0.16521588, 0.75],
        "properties": { "magmom": -0.001 },
        "label": "Ti",
        "xyz": [1.4630701277830918, 0.844586052575411, 3.5804681700000005]
      },
      {
        "species": [{ "element": "Ti", "occu": 1 }],
        "abc": [0.8347527100000001, 0.16522407, 0.75],
        "properties": { "magmom": -0.001 },
        "label": "Ti",
        "xyz": [4.439836834183002, 0.8446131649448505, 3.5804681700000005]
      },
      {
        "species": [{ "element": "In", "occu": 1 }],
        "abc": [0.33333748, 0.66668927, 0.75],
        "properties": { "magmom": -0.0 },
        "label": "In",
        "xyz": [-5.9339446989659095e-5, 3.4081547964466803, 3.5804681700000005]
      },
      {
        "species": [{ "element": "In", "occu": 1 }],
        "abc": [0.66666455, 0.3333305, 0.25],
        "properties": { "magmom": 0.0 },
        "label": "In",
        "xyz": [2.9514571813482116, 1.7039905091870169, 1.19348939]
      }
    ]
  },
  "task_ids": null,
  "uncorrected_energy_per_atom": null,
  "energy_per_atom": -6.736477042499999,
  "formation_energy_per_atom": -0.12506459416666502,
  "energy_above_hull": 0.0,
  "is_stable": true,
  "equilibrium_reaction_energy_per_atom": null,
  "decomposes_to": null,
  "xas": null,
  "grain_boundaries": null,
  "band_gap": 0.0,
  "cbm": null,
  "vbm": null,
  "efermi": 6.92195836,
  "is_gap_direct": null,
  "is_metal": null,
  "es_source_calc_id": null,
  "bandstructure": null,
  "dos": null,
  "dos_energy_up": null,
  "dos_energy_down": null,
  "is_magnetic": null,
  "ordering": null,
  "total_magnetization": 9e-7,
  "total_magnetization_normalized_vol": null,
  "total_magnetization_normalized_formula_units": null,
  "num_magnetic_sites": null,
  "num_unique_magnetic_sites": null,
  "types_of_magnetic_species": null,
  "bulk_modulus": null,
  "shear_modulus": null,
  "universal_anisotropy": null,
  "homogeneous_poisson": null,
  "e_total": null,
  "e_ionic": null,
  "e_electronic": null,
  "n": null,
  "e_ij_max": null,
  "weighted_surface_energy_EV_PER_ANG2": null,
  "weighted_surface_energy": null,
  "weighted_work_function": null,
  "surface_anisotropy": null,
  "shape_factor": null,
  "has_reconstructed": null,
  "possible_species": null,
  "has_props": null,
  "theoretical": null,
  "database_IDs": null,
  "fields_not_requested": [
    "builder_meta",
    "nsites",
    "elements",
    "nelements",
    "composition",
    "composition_reduced",
    "chemsys",
    "symmetry",
    "property_name",
    "deprecated",
    "deprecation_reasons",
    "last_updated",
    "origins",
    "warnings",
    "task_ids",
    "uncorrected_energy_per_atom",
    "equilibrium_reaction_energy_per_atom",
    "decomposes_to",
    "xas",
    "grain_boundaries",
    "cbm",
    "vbm",
    "is_gap_direct",
    "is_metal",
    "es_source_calc_id",
    "bandstructure",
    "dos",
    "dos_energy_up",
    "dos_energy_down",
    "is_magnetic",
    "ordering",
    "total_magnetization_normalized_vol",
    "total_magnetization_normalized_formula_units",
    "num_magnetic_sites",
    "num_unique_magnetic_sites",
    "types_of_magnetic_species",
    "bulk_modulus",
    "shear_modulus",
    "universal_anisotropy",
    "homogeneous_poisson",
    "e_total",
    "e_ionic",
    "e_electronic",
    "n",
    "e_ij_max",
    "weighted_surface_energy_EV_PER_ANG2",
    "weighted_surface_energy",
    "weighted_work_function",
    "surface_anisotropy",
    "shape_factor",
    "has_reconstructed",
    "possible_species",
    "has_props",
    "theoretical",
    "database_IDs"
  ]
}
