{"builder_meta": null, "nsites": null, "elements": null, "nelements": null, "composition": null, "composition_reduced": null, "formula_pretty": "Ti3N2", "formula_anonymous": "A2B3", "chemsys": null, "volume": 111.86101639578948, "density": 5.095115792311816, "density_atomic": 11.186101639578947, "symmetry": null, "property_name": null, "material_id": "mp-1187591", "deprecated": null, "deprecation_reasons": null, "last_updated": null, "origins": null, "warnings": null, "structure": {"@module": "pymatgen.core.structure", "@class": "Structure", "charge": 0, "lattice": {"matrix": [[5.03756803, -2.59093022, 0.00098842], [5.03756803, 2.59093022, 0.00098842], [3.70415543, 0.0, 4.28593694]], "pbc": [true, true, true], "a": 5.664804677900327, "b": 5.664804677900327, "c": 5.664805636847133, "alpha": 54.435488519995175, "beta": 54.435488519995175, "gamma": 54.43547730329439, "volume": 111.86101639578948}, "properties": {}, "sites": [{"species": [{"element": "Ti", "occu": 1}], "abc": [0.57342983, 0.92657017, 0.25], "properties": {"magmom": -0.0}, "label": "Ti", "xyz": [8.4823909025, 0.9149619788070749, 1.072966865]}, {"species": [{"element": "Ti", "occu": 1}], "abc": [0.25, 0.57342983, 0.92657017], "properties": {"magmom": -0.0}, "label": "Ti", "xyz": [7.580243713037858, 0.8379841205964628, 3.972035213617648]}, {"species": [{"element": "Ti", "occu": 1}], "abc": [0.92657017, 0.25, 0.57342983], "properties": {"magmom": -0.0}, "label": "Ti", "xyz": [8.051125491962143, -1.7529460994035375, 2.458847036382352]}, {"species": [{"element": "Ti", "occu": 1}], "abc": [0.07342983, 0.75, 0.42657017], "properties": {"magmom": -0.0}, "label": "Ti", "xyz": [5.728165998037858, 1.7529460994035375, 1.8290667436176486]}, {"species": [{"element": "Ti", "occu": 1}], "abc": [0.75, 0.42657017, 0.07342983], "properties": {"magmom": -0.0}, "label": "Ti", "xyz": [6.199047776962143, -0.8379841205964624, 0.3158785663823516]}, {"species": [{"element": "Ti", "occu": 1}], "abc": [0.42657017, 0.07342983, 0.75], "properties": {"magmom": -0.0}, "label": "Ti", "xyz": [5.296900587500001, -0.914961978807075, 3.214946915]}, {"species": [{"element": "N", "occu": 1}], "abc": [0.8405618300000001, 0.8405618300000001, 0.8405618300000001], "properties": {"magmom": 0.0}, "label": "N", "xyz": [11.582346470937829, 0.0, 3.6042566537990175]}, {"species": [{"element": "N", "occu": 1}], "abc": [0.65943817, 0.65943817, 0.65943817], "properties": {"magmom": 0.0}, "label": "N", "xyz": [9.086590764062175, 0.0, 2.827614016200983]}, {"species": [{"element": "N", "occu": 1}], "abc": [0.34056183, 0.34056183, 0.34056183], "properties": {"magmom": 0.0}, "label": "N", "xyz": [4.6927007259378275, 0.0, 1.4602997637990176]}, {"species": [{"element": "N", "occu": 1}], "abc": [0.15943817, 0.15943817, 0.15943817], "properties": {"magmom": 0.0}, "label": "N", "xyz": [2.196945019062173, 0.0, 0.6836571262009826]}]}, "task_ids": null, "uncorrected_energy_per_atom": null, "energy_per_atom": -13.032545898, "formation_energy_per_atom": -1.6183914215000001, "energy_above_hull": 0.031246648999999002, "is_stable": false, "equilibrium_reaction_energy_per_atom": null, "decomposes_to": null, "xas": null, "grain_boundaries": null, "band_gap": 0.0, "cbm": null, "vbm": null, "efermi": 7.5379856, "is_gap_direct": null, "is_metal": null, "es_source_calc_id": null, "bandstructure": null, "dos": null, "dos_energy_up": null, "dos_energy_down": null, "is_magnetic": null, "ordering": null, "total_magnetization": 0.0, "total_magnetization_normalized_vol": null, "total_magnetization_normalized_formula_units": null, "num_magnetic_sites": null, "num_unique_magnetic_sites": null, "types_of_magnetic_species": null, "bulk_modulus": null, "shear_modulus": null, "universal_anisotropy": null, "homogeneous_poisson": null, "e_total": null, "e_ionic": null, "e_electronic": null, "n": null, "e_ij_max": null, "weighted_surface_energy_EV_PER_ANG2": null, "weighted_surface_energy": null, "weighted_work_function": null, "surface_anisotropy": null, "shape_factor": null, "has_reconstructed": null, "possible_species": null, "has_props": null, "theoretical": null, "database_IDs": null, "fields_not_requested": ["builder_meta", "nsites", "elements", "nelements", "composition", "composition_reduced", "chemsys", "symmetry", "property_name", "deprecated", "deprecation_reasons", "last_updated", "origins", "warnings", "task_ids", "uncorrected_energy_per_atom", "equilibrium_reaction_energy_per_atom", "decomposes_to", "xas", "grain_boundaries", "cbm", "vbm", "is_gap_direct", "is_metal", "es_source_calc_id", "bandstructure", "dos", "dos_energy_up", "dos_energy_down", "is_magnetic", "ordering", "total_magnetization_normalized_vol", "total_magnetization_normalized_formula_units", "num_magnetic_sites", "num_unique_magnetic_sites", "types_of_magnetic_species", "bulk_modulus", "shear_modulus", "universal_anisotropy", "homogeneous_poisson", "e_total", "e_ionic", "e_electronic", "n", "e_ij_max", "weighted_surface_energy_EV_PER_ANG2", "weighted_surface_energy", "weighted_work_function", "surface_anisotropy", "shape_factor", "has_reconstructed", "possible_species", "has_props", "theoretical", "database_IDs"]}