{
  "builder_meta": null,
  "nsites": null,
  "elements": null,
  "nelements": null,
  "composition": null,
  "composition_reduced": null,
  "formula_pretty": "Ti3N4",
  "formula_anonymous": "A3B4",
  "chemsys": null,
  "volume": 283.30587510932725,
  "density": 4.6803090200863675,
  "density_atomic": 10.11806696819026,
  "symmetry": null,
  "property_name": null,
  "material_id": "mp-1080192",
  "deprecated": null,
  "deprecation_reasons": null,
  "last_updated": null,
  "origins": null,
  "warnings": null,
  "structure": {
    "@module": "pymatgen.core.structure",
    "@class": "Structure",
    "charge": 0,
    "lattice": {
      "matrix": [
        [3.012338, 0.0, 0.0],
        [0.0, 9.37639, 0.0],
        [0.0, 0.0, 10.030353]
      ],
      "pbc": [true, true, true],
      "a": 3.012338,
      "b": 9.37639,
      "c": 10.030353,
      "alpha": 90.0,
      "beta": 90.0,
      "gamma": 90.0,
      "volume": 283.30587510932725
    },
    "properties": {},
    "sites": [
      {
        "species": [{ "element": "Ti", "occu": 1 }],
        "abc": [0.25, 0.92988, 0.125012999999999],
        "properties": { "magmom": 0.0 },
        "label": "Ti",
        "xyz": [0.7530845, 8.7189175332, 1.25392451958899]
      },
      {
        "species": [{ "element": "Ti", "occu": 1 }],
        "abc": [0.25, 0.42988000000000004, 0.374986999999999],
        "properties": { "magmom": 0.0 },
        "label": "Ti",
        "xyz": [0.7530845, 4.0307225332000005, 3.7612519804109903]
      },
      {
        "species": [{ "element": "Ti", "occu": 1 }],
        "abc": [0.75, 0.07012, 0.874987],
        "properties": { "magmom": 0.0 },
        "label": "Ti",
        "xyz": [2.2592535000000002, 0.6574724668, 8.776428480410999]
      },
      {
        "species": [{ "element": "Ti", "occu": 1 }],
        "abc": [0.75, 0.5701200000000001, 0.625012999999999],
        "properties": { "magmom": 0.0 },
        "label": "Ti",
        "xyz": [2.2592535000000002, 5.345667466800001, 6.26910101958899]
      },
      {
        "species": [{ "element": "Ti", "occu": 1 }],
        "abc": [0.25, 0.890698, 0.593019],
        "properties": { "magmom": -0.0 },
        "label": "Ti",
        "xyz": [0.7530845, 8.35153182022, 5.948189905706999]
      },
      {
        "species": [{ "element": "Ti", "occu": 1 }],
        "abc": [0.25, 0.390698, 0.906980999999999],
        "properties": { "magmom": -0.0 },
        "label": "Ti",
        "xyz": [0.7530845, 3.66333682022, 9.09733959429299]
      },
      {
        "species": [{ "element": "Ti", "occu": 1 }],
        "abc": [0.75, 0.109302, 0.406981],
        "properties": { "magmom": -0.0 },
        "label": "Ti",
        "xyz": [2.2592535000000002, 1.02485817978, 4.082163094293]
      },
      {
        "species": [{ "element": "Ti", "occu": 1 }],
        "abc": [0.75, 0.609302, 0.093018999999999],
        "properties": { "magmom": -0.0 },
        "label": "Ti",
        "xyz": [2.2592535000000002, 5.71305317978, 0.93301340570699]
      },
      {
        "species": [{ "element": "Ti", "occu": 1 }],
        "abc": [0.25, 0.777185999999999, 0.856312],
        "properties": { "magmom": 0.0 },
        "label": "Ti",
        "xyz": [0.7530845, 7.287199038539992, 8.589111638136]
      },
      {
        "species": [{ "element": "Ti", "occu": 1 }],
        "abc": [0.25, 0.277186, 0.643687999999999],
        "properties": { "magmom": 0.0 },
        "label": "Ti",
        "xyz": [0.7530845, 2.59900403854, 6.45641786186399]
      },
      {
        "species": [{ "element": "Ti", "occu": 1 }],
        "abc": [0.75, 0.222813999999999, 0.143687999999999],
        "properties": { "magmom": 0.0 },
        "label": "Ti",
        "xyz": [2.2592535000000002, 2.089190961459991, 1.44124136186399]
      },
      {
        "species": [{ "element": "Ti", "occu": 1 }],
        "abc": [0.75, 0.722814, 0.356311999999999],
        "properties": { "magmom": 0.0 },
        "label": "Ti",
        "xyz": [2.2592535000000002, 6.77738596146, 3.5739351381359903]
      },
      {
        "species": [{ "element": "N", "occu": 1 }],
        "abc": [0.25, 0.739594, 0.214138],
        "properties": { "magmom": 0.0 },
        "label": "N",
        "xyz": [0.7530845, 6.93472178566, 2.147879730714]
      },
      {
        "species": [{ "element": "N", "occu": 1 }],
        "abc": [0.25, 0.239594, 0.285862],
        "properties": { "magmom": 0.0 },
        "label": "N",
        "xyz": [0.7530845, 2.24652678566, 2.867296769286]
      },
      {
        "species": [{ "element": "N", "occu": 1 }],
        "abc": [0.75, 0.260405999999999, 0.785862],
        "properties": { "magmom": 0.0 },
        "label": "N",
        "xyz": [2.2592535000000002, 2.441668214339991, 7.882473269286]
      },
      {
        "species": [{ "element": "N", "occu": 1 }],
        "abc": [0.75, 0.760405999999999, 0.714137999999999],
        "properties": { "magmom": 0.0 },
        "label": "N",
        "xyz": [2.2592535000000002, 7.129863214339991, 7.16305623071399]
      },
      {
        "species": [{ "element": "N", "occu": 1 }],
        "abc": [0.25, 0.641443, 0.484081],
        "properties": { "magmom": -0.0 },
        "label": "N",
        "xyz": [0.7530845, 6.01441973077, 4.855503310593]
      },
      {
        "species": [{ "element": "N", "occu": 1 }],
        "abc": [0.25, 0.14144299999999901, 0.015919],
        "properties": { "magmom": -0.0 },
        "label": "N",
        "xyz": [0.7530845, 1.3262247307699908, 0.15967318940699998]
      },
      {
        "species": [{ "element": "N", "occu": 1 }],
        "abc": [0.75, 0.358556999999999, 0.515919],
        "properties": { "magmom": -0.0 },
        "label": "N",
        "xyz": [2.2592535000000002, 3.361970269229991, 5.174849689407]
      },
      {
        "species": [{ "element": "N", "occu": 1 }],
        "abc": [0.75, 0.858557, 0.984081],
        "properties": { "magmom": -0.0 },
        "label": "N",
        "xyz": [2.2592535000000002, 8.05016526923, 9.870679810593]
      },
      {
        "species": [{ "element": "N", "occu": 1 }],
        "abc": [0.25, 0.491363999999999, 0.725696],
        "properties": { "magmom": 0.0 },
        "label": "N",
        "xyz": [0.7530845, 4.607220495959991, 7.278987050688]
      },
      {
        "species": [{ "element": "N", "occu": 1 }],
        "abc": [0.25, 0.991363999999999, 0.774304],
        "properties": { "magmom": 0.0 },
        "label": "N",
        "xyz": [0.7530845, 9.295415495959992, 7.766542449311999]
      },
      {
        "species": [{ "element": "N", "occu": 1 }],
        "abc": [0.75, 0.508636, 0.274304],
        "properties": { "magmom": 0.0 },
        "label": "N",
        "xyz": [2.2592535000000002, 4.76916950404, 2.751365949312]
      },
      {
        "species": [{ "element": "N", "occu": 1 }],
        "abc": [0.75, 0.008636, 0.225695999999999],
        "properties": { "magmom": 0.0 },
        "label": "N",
        "xyz": [2.2592535000000002, 0.08097450404, 2.26381055068799]
      },
      {
        "species": [{ "element": "N", "occu": 1 }],
        "abc": [0.25, 0.103993, 0.532830999999999],
        "properties": { "magmom": 0.0 },
        "label": "N",
        "xyz": [0.7530845, 0.9750789252700001, 5.344483019342991]
      },
      {
        "species": [{ "element": "N", "occu": 1 }],
        "abc": [0.25, 0.603993, 0.967169],
        "properties": { "magmom": 0.0 },
        "label": "N",
        "xyz": [0.7530845, 5.66327392527, 9.701046480656998]
      },
      {
        "species": [{ "element": "N", "occu": 1 }],
        "abc": [0.75, 0.896007, 0.467169],
        "properties": { "magmom": 0.0 },
        "label": "N",
        "xyz": [2.2592535000000002, 8.40131107473, 4.685869980657]
      },
      {
        "species": [{ "element": "N", "occu": 1 }],
        "abc": [0.75, 0.396007, 0.032831],
        "properties": { "magmom": 0.0 },
        "label": "N",
        "xyz": [2.2592535000000002, 3.7131160747300003, 0.329306519343]
      }
    ]
  },
  "task_ids": null,
  "uncorrected_energy_per_atom": null,
  "energy_per_atom": -12.321746740892854,
  "formation_energy_per_atom": -1.560564780178568,
  "energy_above_hull": 0.104578605000002,
  "is_stable": false,
  "equilibrium_reaction_energy_per_atom": null,
  "decomposes_to": null,
  "xas": null,
  "grain_boundaries": null,
  "band_gap": 0.09770000000000001,
  "cbm": null,
  "vbm": null,
  "efermi": 6.76173011,
  "is_gap_direct": null,
  "is_metal": null,
  "es_source_calc_id": null,
  "bandstructure": null,
  "dos": null,
  "dos_energy_up": null,
  "dos_energy_down": null,
  "is_magnetic": null,
  "ordering": null,
  "total_magnetization": 0.0001775,
  "total_magnetization_normalized_vol": null,
  "total_magnetization_normalized_formula_units": null,
  "num_magnetic_sites": null,
  "num_unique_magnetic_sites": null,
  "types_of_magnetic_species": null,
  "bulk_modulus": null,
  "shear_modulus": null,
  "universal_anisotropy": null,
  "homogeneous_poisson": null,
  "e_total": null,
  "e_ionic": null,
  "e_electronic": null,
  "n": null,
  "e_ij_max": null,
  "weighted_surface_energy_EV_PER_ANG2": null,
  "weighted_surface_energy": null,
  "weighted_work_function": null,
  "surface_anisotropy": null,
  "shape_factor": null,
  "has_reconstructed": null,
  "possible_species": null,
  "has_props": null,
  "theoretical": null,
  "database_IDs": null,
  "fields_not_requested": [
    "builder_meta",
    "nsites",
    "elements",
    "nelements",
    "composition",
    "composition_reduced",
    "chemsys",
    "symmetry",
    "property_name",
    "deprecated",
    "deprecation_reasons",
    "last_updated",
    "origins",
    "warnings",
    "task_ids",
    "uncorrected_energy_per_atom",
    "equilibrium_reaction_energy_per_atom",
    "decomposes_to",
    "xas",
    "grain_boundaries",
    "cbm",
    "vbm",
    "is_gap_direct",
    "is_metal",
    "es_source_calc_id",
    "bandstructure",
    "dos",
    "dos_energy_up",
    "dos_energy_down",
    "is_magnetic",
    "ordering",
    "total_magnetization_normalized_vol",
    "total_magnetization_normalized_formula_units",
    "num_magnetic_sites",
    "num_unique_magnetic_sites",
    "types_of_magnetic_species",
    "bulk_modulus",
    "shear_modulus",
    "universal_anisotropy",
    "homogeneous_poisson",
    "e_total",
    "e_ionic",
    "e_electronic",
    "n",
    "e_ij_max",
    "weighted_surface_energy_EV_PER_ANG2",
    "weighted_surface_energy",
    "weighted_work_function",
    "surface_anisotropy",
    "shape_factor",
    "has_reconstructed",
    "possible_species",
    "has_props",
    "theoretical",
    "database_IDs"
  ]
}
