{
  "builder_meta": null,
  "nsites": null,
  "elements": null,
  "nelements": null,
  "composition": null,
  "composition_reduced": null,
  "formula_pretty": "Ti3Nb",
  "formula_anonymous": "AB3",
  "chemsys": null,
  "volume": 70.04371384599699,
  "density": 5.606923483422004,
  "density_atomic": 17.510928461499248,
  "symmetry": null,
  "property_name": null,
  "material_id": "mp-1217091",
  "deprecated": null,
  "deprecation_reasons": null,
  "last_updated": null,
  "origins": null,
  "warnings": null,
  "structure": {
    "@module": "pymatgen.core.structure",
    "@class": "Structure",
    "charge": 0,
    "lattice": {
      "matrix": [
        [1.60600415, -2.41039641, 0.0],
        [1.60600415, 2.41039641, 0.0],
        [0.0, 0.0, 9.04698842]
      ],
      "pbc": [true, true, true],
      "a": 2.896421962207529,
      "b": 2.896421962207529,
      "c": 9.04698842,
      "alpha": 90.0,
      "beta": 90.0,
      "gamma": 112.65037350871127,
      "volume": 70.04371384599699
    },
    "properties": {},
    "sites": [
      {
        "species": [{ "element": "Ti", "occu": 1 }],
        "abc": [0.18266749000000002, 0.8173325100000001, -0.0],
        "properties": { "magmom": -0.0 },
        "label": "Ti",
        "xyz": [1.6060041500000002, 1.5297942857605784, 0.0]
      },
      {
        "species": [{ "element": "Ti", "occu": 1 }],
        "abc": [0.79134423, 0.20865577000000002, 0.751552],
        "properties": { "magmom": 0.0 },
        "label": "Ti",
        "xyz": [1.60600415, -1.4045101721324285, 6.79928224102784]
      },
      {
        "species": [{ "element": "Ti", "occu": 1 }],
        "abc": [0.79134423, 0.20865577000000002, 0.248448],
        "properties": { "magmom": 0.0 },
        "label": "Ti",
        "xyz": [1.60600415, -1.4045101721324285, 2.24770617897216]
      },
      {
        "species": [{ "element": "Nb", "occu": 1 }],
        "abc": [0.23464405, 0.76535595, 0.5],
        "properties": { "magmom": -0.0 },
        "label": "Nb",
        "xyz": [1.60600415, 1.2792260585042792, 4.52349421]
      }
    ]
  },
  "task_ids": null,
  "uncorrected_energy_per_atom": null,
  "energy_per_atom": -15.82004503,
  "formation_energy_per_atom": 0.0667913925,
  "energy_above_hull": 0.0667913925,
  "is_stable": false,
  "equilibrium_reaction_energy_per_atom": null,
  "decomposes_to": null,
  "xas": null,
  "grain_boundaries": null,
  "band_gap": 0.0,
  "cbm": null,
  "vbm": null,
  "efermi": 5.5489427,
  "is_gap_direct": null,
  "is_metal": null,
  "es_source_calc_id": null,
  "bandstructure": null,
  "dos": null,
  "dos_energy_up": null,
  "dos_energy_down": null,
  "is_magnetic": null,
  "ordering": null,
  "total_magnetization": 1.3100000000000002e-5,
  "total_magnetization_normalized_vol": null,
  "total_magnetization_normalized_formula_units": null,
  "num_magnetic_sites": null,
  "num_unique_magnetic_sites": null,
  "types_of_magnetic_species": null,
  "bulk_modulus": null,
  "shear_modulus": null,
  "universal_anisotropy": null,
  "homogeneous_poisson": null,
  "e_total": null,
  "e_ionic": null,
  "e_electronic": null,
  "n": null,
  "e_ij_max": null,
  "weighted_surface_energy_EV_PER_ANG2": null,
  "weighted_surface_energy": null,
  "weighted_work_function": null,
  "surface_anisotropy": null,
  "shape_factor": null,
  "has_reconstructed": null,
  "possible_species": null,
  "has_props": null,
  "theoretical": null,
  "database_IDs": null,
  "fields_not_requested": [
    "builder_meta",
    "nsites",
    "elements",
    "nelements",
    "composition",
    "composition_reduced",
    "chemsys",
    "symmetry",
    "property_name",
    "deprecated",
    "deprecation_reasons",
    "last_updated",
    "origins",
    "warnings",
    "task_ids",
    "uncorrected_energy_per_atom",
    "equilibrium_reaction_energy_per_atom",
    "decomposes_to",
    "xas",
    "grain_boundaries",
    "cbm",
    "vbm",
    "is_gap_direct",
    "is_metal",
    "es_source_calc_id",
    "bandstructure",
    "dos",
    "dos_energy_up",
    "dos_energy_down",
    "is_magnetic",
    "ordering",
    "total_magnetization_normalized_vol",
    "total_magnetization_normalized_formula_units",
    "num_magnetic_sites",
    "num_unique_magnetic_sites",
    "types_of_magnetic_species",
    "bulk_modulus",
    "shear_modulus",
    "universal_anisotropy",
    "homogeneous_poisson",
    "e_total",
    "e_ionic",
    "e_electronic",
    "n",
    "e_ij_max",
    "weighted_surface_energy_EV_PER_ANG2",
    "weighted_surface_energy",
    "weighted_work_function",
    "surface_anisotropy",
    "shape_factor",
    "has_reconstructed",
    "possible_species",
    "has_props",
    "theoretical",
    "database_IDs"
  ]
}
