{"builder_meta": null, "nsites": null, "elements": null, "nelements": null, "composition": null, "composition_reduced": null, "formula_pretty": "Ti3Ni4", "formula_anonymous": "A3B4", "chemsys": null, "volume": 180.23709625747745, "density": 6.971992094364225, "density_atomic": 12.874078304105533, "symmetry": null, "property_name": null, "material_id": "mp-567653", "deprecated": null, "deprecation_reasons": null, "last_updated": null, "origins": null, "warnings": null, "structure": {"@module": "pymatgen.core.structure", "@class": "Structure", "charge": 0, "lattice": {"matrix": [[6.08685945, -0.01124542, -2.69475475], [-4.13679129, 4.46501764, -2.69486227], [-0.00497151, -0.01119439, 6.6566922900000005]], "pbc": [true, true, true], "a": 6.656702455884058, "b": 6.656703940900525, "c": 6.656703559121782, "alpha": 113.92230740170551, "beta": 113.92231621192602, "gamma": 113.92231063429769, "volume": 180.23709625747748}, "properties": {}, "sites": [{"species": [{"element": "Ti", "occu": 1}], "abc": [0.49797352, 0.8940993500000001, 0.76043256], "properties": {"magmom": 0.0}, "label": "Ti", "xyz": [-0.6713880754892629, 3.9780568696359175, 1.3105744468762186]}, {"species": [{"element": "Ti", "occu": 1}], "abc": [0.23956744, 0.50202648, 0.10590065], "properties": {"magmom": 0.0}, "label": "Ti", "xyz": [-0.6190919198775326, 2.2376775592886293, -1.2935196760172611]}, {"species": [{"element": "Ti", "occu": 1}], "abc": [0.50202648, 0.10590065, 0.23956744], "properties": {"magmom": 0.0}, "label": "Ti", "xyz": [2.6164847254892636, 0.4645209603640828, -0.04349917687621785]}, {"species": [{"element": "Ti", "occu": 1}], "abc": [0.10590065, 0.23956744, 0.50202648], "properties": {"magmom": 0.0}, "label": "Ti", "xyz": [-0.3489339566115397, 1.0628620680746714, 2.4108582639997636]}, {"species": [{"element": "Ti", "occu": 1}], "abc": [0.8940993500000001, 0.76043256, 0.49797352], "properties": {"magmom": 0.0}, "label": "Ti", "xyz": [2.2940306066115412, 3.3797157619253286, -1.1437829939997624]}, {"species": [{"element": "Ti", "occu": 1}], "abc": [0.76043256, 0.49797352, 0.8940993500000001], "properties": {"magmom": 0.0}, "label": "Ti", "xyz": [2.5641885698775333, 2.2049002707113714, 2.560594946017262]}, {"species": [{"element": "Ni", "occu": 1}], "abc": [0.58135014, 0.74086847, 0.05836492], "properties": {"magmom": -0.0}, "label": "Ni", "xyz": [0.47348819790276786, 3.3007999013016533, -3.174617225043325]}, {"species": [{"element": "Ni", "occu": 1}], "abc": [0.41864986, 0.25913153, 0.9416350800000001], "properties": {"magmom": -0.0}, "label": "Ni", "xyz": [1.4716084520972326, 1.141777928698347, 4.441692495043325]}, {"species": [{"element": "Ni", "occu": 1}], "abc": [0.74086847, 0.05836492, 0.58135014], "properties": {"magmom": -0.0}, "label": "Ni", "xyz": [4.265228567094483, 0.24576116005356682, 1.7161247452711201]}, {"species": [{"element": "Ni", "occu": 1}], "abc": [0.05836492, 0.58135014, 0.74086847], "properties": {"magmom": -0.0}, "label": "Ni", "xyz": [-2.053348365749076, 2.5867887214859198, 3.207795728804509]}, {"species": [{"element": "Ni", "occu": 1}], "abc": [0.25913153, 0.9416350800000001, 0.41864986], "properties": {"magmom": -0.0}, "label": "Ni", "xyz": [-2.320131917094483, 4.1968166699464335, -0.44904947527111894]}, {"species": [{"element": "Ni", "occu": 1}], "abc": [0.0, 0.0, 0.0], "properties": {"magmom": -0.0}, "label": "Ni", "xyz": [0.0, 0.0, 0.0]}, {"species": [{"element": "Ni", "occu": 1}], "abc": [0.9416350800000001, 0.41864986, 0.25913153], "properties": {"magmom": -0.0}, "label": "Ni", "xyz": [3.998445015749078, 1.85578910851408, -1.9407204588045088]}, {"species": [{"element": "Ni", "occu": 1}], "abc": [0.5, 0.5, 0.5], "properties": {"magmom": 0.0}, "label": "Ni", "xyz": [0.9725483250000003, 2.221288915, 0.6335376350000006]}]}, "task_ids": null, "uncorrected_energy_per_atom": null, "energy_per_atom": -7.099715671428571, "formation_energy_per_atom": -0.41299813285714204, "energy_above_hull": 0.007696926964285001, "is_stable": false, "equilibrium_reaction_energy_per_atom": null, "decomposes_to": null, "xas": null, "grain_boundaries": null, "band_gap": 0.0, "cbm": null, "vbm": null, "efermi": 7.31273236, "is_gap_direct": null, "is_metal": null, "es_source_calc_id": null, "bandstructure": null, "dos": null, "dos_energy_up": null, "dos_energy_down": null, "is_magnetic": null, "ordering": null, "total_magnetization": 1e-07, "total_magnetization_normalized_vol": null, "total_magnetization_normalized_formula_units": null, "num_magnetic_sites": null, "num_unique_magnetic_sites": null, "types_of_magnetic_species": null, "bulk_modulus": null, "shear_modulus": null, "universal_anisotropy": null, "homogeneous_poisson": null, "e_total": null, "e_ionic": null, "e_electronic": null, "n": null, "e_ij_max": null, "weighted_surface_energy_EV_PER_ANG2": null, "weighted_surface_energy": null, "weighted_work_function": null, "surface_anisotropy": null, "shape_factor": null, "has_reconstructed": null, "possible_species": null, "has_props": null, "theoretical": null, "database_IDs": null, "fields_not_requested": ["builder_meta", "nsites", "elements", "nelements", "composition", "composition_reduced", "chemsys", "symmetry", "property_name", "deprecated", "deprecation_reasons", "last_updated", "origins", "warnings", "task_ids", "uncorrected_energy_per_atom", "equilibrium_reaction_energy_per_atom", "decomposes_to", "xas", "grain_boundaries", "cbm", "vbm", "is_gap_direct", "is_metal", "es_source_calc_id", "bandstructure", "dos", "dos_energy_up", "dos_energy_down", "is_magnetic", "ordering", "total_magnetization_normalized_vol", "total_magnetization_normalized_formula_units", "num_magnetic_sites", "num_unique_magnetic_sites", "types_of_magnetic_species", "bulk_modulus", "shear_modulus", "universal_anisotropy", "homogeneous_poisson", "e_total", "e_ionic", "e_electronic", "n", "e_ij_max", "weighted_surface_energy_EV_PER_ANG2", "weighted_surface_energy", "weighted_work_function", "surface_anisotropy", "shape_factor", "has_reconstructed", "possible_species", "has_props", "theoretical", "database_IDs"]}