{"builder_meta": null, "nsites": null, "elements": null, "nelements": null, "composition": null, "composition_reduced": null, "formula_pretty": "Ti3Os", "formula_anonymous": "AB3", "chemsys": null, "volume": 63.047241130145764, "density": 8.792445271282292, "density_atomic": 15.761810282536441, "symmetry": null, "property_name": null, "material_id": "mp-865899", "deprecated": null, "deprecation_reasons": null, "last_updated": null, "origins": null, "warnings": null, "structure": {"@module": "pymatgen.core.structure", "@class": "Structure", "charge": 0, "lattice": {"matrix": [[-1.05e-06, 3.15896952, 3.15896847], [3.15896743, -1.05e-06, 3.15896847], [3.15896743, 3.15896952, -1.05e-06]], "pbc": [true, true, true], "a": 4.46745679584529, "b": 4.467455317992117, "c": 4.467456060454421, "alpha": 60.000038378741245, "beta": 60.00000554999063, "gamma": 60.00002204290361, "volume": 63.047241130145764}, "properties": {}, "sites": [{"species": [{"element": "Ti", "occu": 1}], "abc": [-0.0, -0.0, 0.0], "properties": {"magmom": -0.651}, "label": "Ti", "xyz": [0.0, 0.0, 0.0]}, {"species": [{"element": "Ti", "occu": 1}], "abc": [0.5, 0.5, 0.5], "properties": {"magmom": -0.651}, "label": "Ti", "xyz": [3.158966905, 3.158968995, 3.158967945]}, {"species": [{"element": "Ti", "occu": 1}], "abc": [0.250001, 0.250001, 0.250001], "properties": {"magmom": -1.311}, "label": "Ti", "xyz": [1.5794897704338098, 1.5794908154379899, 1.5794902904358898]}, {"species": [{"element": "Os", "occu": 1}], "abc": [0.75, 0.75, 0.75], "properties": {"magmom": 0.365}, "label": "Os", "xyz": [4.7384503575, 4.7384534925, 4.7384519175]}]}, "task_ids": null, "uncorrected_energy_per_atom": null, "energy_per_atom": -23.390124625, "formation_energy_per_atom": -0.440499652499998, "energy_above_hull": 0.0, "is_stable": true, "equilibrium_reaction_energy_per_atom": null, "decomposes_to": null, "xas": null, "grain_boundaries": null, "band_gap": 0.0, "cbm": null, "vbm": null, "efermi": 6.63357574, "is_gap_direct": null, "is_metal": null, "es_source_calc_id": null, "bandstructure": null, "dos": null, "dos_energy_up": null, "dos_energy_down": null, "is_magnetic": null, "ordering": null, "total_magnetization": 2.7904051, "total_magnetization_normalized_vol": null, "total_magnetization_normalized_formula_units": null, "num_magnetic_sites": null, "num_unique_magnetic_sites": null, "types_of_magnetic_species": null, "bulk_modulus": null, "shear_modulus": null, "universal_anisotropy": null, "homogeneous_poisson": null, "e_total": null, "e_ionic": null, "e_electronic": null, "n": null, "e_ij_max": null, "weighted_surface_energy_EV_PER_ANG2": null, "weighted_surface_energy": null, "weighted_work_function": null, "surface_anisotropy": null, "shape_factor": null, "has_reconstructed": null, "possible_species": null, "has_props": null, "theoretical": null, "database_IDs": null, "fields_not_requested": ["builder_meta", "nsites", "elements", "nelements", "composition", "composition_reduced", "chemsys", "symmetry", "property_name", "deprecated", "deprecation_reasons", "last_updated", "origins", "warnings", "task_ids", "uncorrected_energy_per_atom", "equilibrium_reaction_energy_per_atom", "decomposes_to", "xas", "grain_boundaries", "cbm", "vbm", "is_gap_direct", "is_metal", "es_source_calc_id", "bandstructure", "dos", "dos_energy_up", "dos_energy_down", "is_magnetic", "ordering", "total_magnetization_normalized_vol", "total_magnetization_normalized_formula_units", "num_magnetic_sites", "num_unique_magnetic_sites", "types_of_magnetic_species", "bulk_modulus", "shear_modulus", "universal_anisotropy", "homogeneous_poisson", "e_total", "e_ionic", "e_electronic", "n", "e_ij_max", "weighted_surface_energy_EV_PER_ANG2", "weighted_surface_energy", "weighted_work_function", "surface_anisotropy", "shape_factor", "has_reconstructed", "possible_species", "has_props", "theoretical", "database_IDs"]}