{"builder_meta": null, "nsites": null, "elements": null, "nelements": null, "composition": null, "composition_reduced": null, "formula_pretty": "Ti3O5", "formula_anonymous": "A3B5", "chemsys": null, "volume": 185.54518943603145, "density": 4.002186371332832, "density_atomic": 11.596574339751966, "symmetry": null, "property_name": null, "material_id": "mp-8057", "deprecated": null, "deprecation_reasons": null, "last_updated": null, "origins": null, "warnings": null, "structure": {"@module": "pymatgen.core.structure", "@class": "Structure", "charge": 0, "lattice": {"matrix": [[3.77145258, -0.00046193, 7.15e-06], [-1.8863279, 4.91430055, 1.0500000000000001e-05], [1.8010000000000002e-05, 2.9800000000000003e-05, 10.01151384]], "pbc": [true, true, true], "a": 3.771452608295523, "b": 5.2638942658604915, "c": 10.01151384006055, "alpha": 89.99976342807145, "beta": 89.99978832730831, "gamma": 111.00604882140676, "volume": 185.54518943603148}, "properties": {}, "sites": [{"species": [{"element": "Ti", "occu": 1}], "abc": [0.30071156, 0.60129938, 0.24998441000000002], "properties": {"magmom": 0.6980000000000001}, "label": "Ti", "xyz": [-0.0001239057296531516, 2.9548344156931665, 2.502730844230378]}, {"species": [{"element": "Ti", "occu": 1}], "abc": [0.69928944, 0.39870062, 0.7500155900000001], "properties": {"magmom": 0.6980000000000001}, "label": "Ti", "xyz": [1.8852703671822333, 1.959034003844904, 7.5088006457767715]}, {"species": [{"element": "Ti", "occu": 1}], "abc": [0.63011082, 0.2604283, 0.05809173], "properties": {"magmom": 0.59}, "label": "Ti", "xyz": [1.8851809557674026, 1.2795336019680366, 0.5815933986740561]}, {"species": [{"element": "Ti", "occu": 1}], "abc": [0.36988918, 0.739571699999999, 0.94190827], "properties": {"magmom": 0.59}, "label": "Ti", "xyz": [-3.82657674010593e-05, 3.6343348180319586, 9.429938091325944]}, {"species": [{"element": "Ti", "occu": 1}], "abc": [0.36989855, 0.73959301, 0.55809392], "properties": {"magmom": 0.591}, "label": "Ti", "xyz": [-5.003740072076006e-05, 3.63442809978077, 5.587375414601089]}, {"species": [{"element": "Ti", "occu": 1}], "abc": [0.6301014500000001, 0.26040699, 0.44190608000000003], "properties": {"magmom": 0.591}, "label": "Ti", "xyz": [1.8851927274007212, 1.27944032021923, 4.424156075398909]}, {"species": [{"element": "O", "occu": 1}], "abc": [0.27090936, 0.54186656, 0.75003584], "properties": {"magmom": 0.003}, "label": "O", "xyz": [-0.00040269734139686513, 2.6627923437419754, 7.509001819256829]}, {"species": [{"element": "O", "occu": 1}], "abc": [0.72909064, 0.45813344, 0.24996416000000002], "properties": {"magmom": 0.003}, "label": "O", "xyz": [1.8855453873413968, 2.251076076258025, 2.5025296707431703]}, {"species": [{"element": "O", "occu": 1}], "abc": [0.55205096, 0.1042429, 0.87741181], "properties": {"magmom": -0.032}, "label": "O", "xyz": [1.8854135289232647, 0.5120520787755802, 8.784225520909265]}, {"species": [{"element": "O", "occu": 1}], "abc": [0.44794904, 0.8957571, 0.12258819], "properties": {"magmom": -0.032}, "label": "O", "xyz": [-0.0002708389232646845, 4.40181634122442, 1.2273059690907353]}, {"species": [{"element": "O", "occu": 1}], "abc": [0.44792671, 0.89569968, 0.37741848], "properties": {"magmom": -0.032}, "label": "O", "xyz": [-0.00024215301783530213, 4.401541766344378, 3.7785429435143794]}, {"species": [{"element": "O", "occu": 1}], "abc": [0.55207329, 0.10430032, 0.62258152], "properties": {"magmom": -0.032}, "label": "O", "xyz": [1.8853848430178357, 0.5123266536556222, 6.232988546485619]}, {"species": [{"element": "O", "occu": 1}], "abc": [0.18274553000000002, 0.36554207, 0.43223848000000004], "properties": {"magmom": -0.004}, "label": "O", "xyz": [-0.0003083200477607324, 1.7963120607131695, 4.327366669522838]}, {"species": [{"element": "O", "occu": 1}], "abc": [0.8172544700000001, 0.6344579300000001, 0.56776152], "properties": {"magmom": -0.004}, "label": "O", "xyz": [1.8854510100477608, 3.117556359286831, 5.684164820477162]}, {"species": [{"element": "O", "occu": 1}], "abc": [0.81726801, 0.63447924, 0.9322894700000001], "properties": {"magmom": -0.004}, "label": "O", "xyz": [1.885468443016525, 3.1176719397099286, 9.333641437289558]}, {"species": [{"element": "O", "occu": 1}], "abc": [0.18273199, 0.36552076, 0.06771053], "properties": {"magmom": -0.004}, "label": "O", "xyz": [-0.0003257530165244074, 1.7961964802900714, 0.6778900527104437]}]}, "task_ids": null, "uncorrected_energy_per_atom": null, "energy_per_atom": -9.4354188725, "formation_energy_per_atom": -3.382133738125, "energy_above_hull": 0.0, "is_stable": true, "equilibrium_reaction_energy_per_atom": null, "decomposes_to": null, "xas": null, "grain_boundaries": null, "band_gap": 0.0, "cbm": null, "vbm": null, "efermi": 5.55285299, "is_gap_direct": null, "is_metal": null, "es_source_calc_id": null, "bandstructure": null, "dos": null, "dos_energy_up": null, "dos_energy_down": null, "is_magnetic": null, "ordering": null, "total_magnetization": 3.9989908, "total_magnetization_normalized_vol": null, "total_magnetization_normalized_formula_units": null, "num_magnetic_sites": null, "num_unique_magnetic_sites": null, "types_of_magnetic_species": null, "bulk_modulus": null, "shear_modulus": null, "universal_anisotropy": null, "homogeneous_poisson": null, "e_total": null, "e_ionic": null, "e_electronic": null, "n": null, "e_ij_max": null, "weighted_surface_energy_EV_PER_ANG2": null, "weighted_surface_energy": null, "weighted_work_function": null, "surface_anisotropy": null, "shape_factor": null, "has_reconstructed": null, "possible_species": null, "has_props": null, "theoretical": null, "database_IDs": null, "fields_not_requested": ["builder_meta", "nsites", "elements", "nelements", "composition", "composition_reduced", "chemsys", "symmetry", "property_name", "deprecated", "deprecation_reasons", "last_updated", "origins", "warnings", "task_ids", "uncorrected_energy_per_atom", "equilibrium_reaction_energy_per_atom", "decomposes_to", "xas", "grain_boundaries", "cbm", "vbm", "is_gap_direct", "is_metal", "es_source_calc_id", "bandstructure", "dos", "dos_energy_up", "dos_energy_down", "is_magnetic", "ordering", "total_magnetization_normalized_vol", "total_magnetization_normalized_formula_units", "num_magnetic_sites", "num_unique_magnetic_sites", "types_of_magnetic_species", "bulk_modulus", "shear_modulus", "universal_anisotropy", "homogeneous_poisson", "e_total", "e_ionic", "e_electronic", "n", "e_ij_max", "weighted_surface_energy_EV_PER_ANG2", "weighted_surface_energy", "weighted_work_function", "surface_anisotropy", "shape_factor", "has_reconstructed", "possible_species", "has_props", "theoretical", "database_IDs"]}