{
  "builder_meta": null,
  "nsites": null,
  "elements": null,
  "nelements": null,
  "composition": null,
  "composition_reduced": null,
  "formula_pretty": "Ti3O",
  "formula_anonymous": "AB3",
  "chemsys": null,
  "volume": 216.74345133600266,
  "density": 4.890993432307026,
  "density_atomic": 13.546465708500167,
  "symmetry": null,
  "property_name": null,
  "material_id": "mp-2591",
  "deprecated": null,
  "deprecation_reasons": null,
  "last_updated": null,
  "origins": null,
  "warnings": null,
  "structure": {
    "@module": "pymatgen.core.structure",
    "@class": "Structure",
    "charge": 0,
    "lattice": {
      "matrix": [
        [5.13734626, -1.4100000000000002e-5, 3.479999999999999e-6],
        [-2.56868373, 4.44904755, -4.8200000000000004e-6],
        [5.7e-6, -7.62e-6, 9.48289162]
      ],
      "pbc": [true, true, true],
      "a": 5.137346260020529,
      "b": 5.137330065992543,
      "c": 9.482891620004775,
      "alpha": 90.00011084837122,
      "beta": 89.9999267486512,
      "gamma": 120.00039803816489,
      "volume": 216.74345133600266
    },
    "properties": {},
    "sites": [
      {
        "species": [{ "element": "Ti", "occu": 1 }],
        "abc": [0.67200472, 0.005861799999999, 0.38296909],
        "properties": { "magmom": -0.0 },
        "label": "Ti",
        "xyz": [3.4372660076296486, 0.026067033437567753, 3.6316566846025755]
      },
      {
        "species": [{ "element": "Ti", "occu": 1 }],
        "abc": [0.33385925, 0.32799997000000003, 0.38297113],
        "properties": { "magmom": -0.0 },
        "label": "Ti",
        "xyz": [0.8726245659098578, 1.4592798372731381, 3.6316733002492656]
      },
      {
        "species": [{ "element": "Ti", "occu": 1 }],
        "abc": [0.6661425, 0.99414133, 0.8830103300000001],
        "properties": { "magmom": -0.0 },
        "label": "Ti",
        "xyz": [0.86857505446937, 4.422965927442277, 8.373488785145126]
      },
      {
        "species": [{ "element": "Ti", "occu": 1 }],
        "abc": [0.00585791, 0.67200065, 0.88300946],
        "properties": { "magmom": -0.0 },
        "label": "Ti",
        "xyz": [-1.696057991020586, 2.9897560343522915, 8.37347978995712]
      },
      {
        "species": [{ "element": "Ti", "occu": 1 }],
        "abc": [0.327992699999999, 0.3338558, 0.88300943],
        "properties": { "magmom": -0.0 },
        "label": "Ti",
        "xyz": [0.8274471421799141, 1.4853289758143635, 8.373482256357617]
      },
      {
        "species": [{ "element": "Ti", "occu": 1 }],
        "abc": [0.00586213, 0.33385835, 0.6170101],
        "properties": { "magmom": -0.0 },
        "label": "Ti",
        "xyz": [-0.8274572031809418, 1.4853468898415478, 5.851038317948328]
      },
      {
        "species": [{ "element": "Ti", "occu": 1 }],
        "abc": [0.32799694, 0.99414157, 0.6170103],
        "properties": { "magmom": -0.0 },
        "label": "Ti",
        "xyz": [-0.8685979062165019, 4.422973789986314, 5.85103815299067]
      },
      {
        "species": [{ "element": "Ti", "occu": 1 }],
        "abc": [0.6661405, 0.67199739, 0.6170095600000001],
        "properties": { "magmom": -0.0 },
        "label": "Ti",
        "xyz": [1.6960491609685575, 2.989734247391998, 5.851033865125408]
      },
      {
        "species": [{ "element": "Ti", "occu": 1 }],
        "abc": [0.99413692, 0.66614038, 0.38297004],
        "properties": { "magmom": -0.0 },
        "label": "Ti",
        "xyz": [3.39612381481713, 2.9636732900327925, 3.631663631826915]
      },
      {
        "species": [{ "element": "Ti", "occu": 1 }],
        "abc": [0.67200693, 0.6661431600000001, 0.11701456],
        "properties": { "magmom": -0.0 },
        "label": "Ti",
        "xyz": [1.7412218585697867, 2.963692226998598, 1.1096355182160724]
      },
      {
        "species": [{ "element": "Ti", "occu": 1 }],
        "abc": [0.99414137, 0.32799909, 0.11701518],
        "properties": { "magmom": -0.0 },
        "label": "Ti",
        "xyz": [4.264723190129496, 1.4592686387177412, 1.1096441484911455]
      },
      {
        "species": [{ "element": "Ti", "occu": 1 }],
        "abc": [0.3338585, 0.00585901, 0.11701349],
        "properties": { "magmom": -0.0 },
        "label": "Ti",
        "xyz": [1.7000974396601958, 0.026061415038281705, 1.1096273773351055]
      },
      {
        "species": [{ "element": "O", "occu": 1 }],
        "abc": [0.33333441, 0.66666776, 0.75000763],
        "properties": { "magmom": 0.0 },
        "label": "O",
        "xyz": [-6.884124713385185e-8, 2.966026149218667, 7.112239016128204]
      },
      {
        "species": [{ "element": "O", "occu": 1 }],
        "abc": [0.66666359, 0.3333335, 0.24998604],
        "properties": { "magmom": 0.0 },
        "label": "O",
        "xyz": [2.5686547875711465, 1.4830052866576813, 2.3705912371548084]
      },
      {
        "species": [{ "element": "O", "occu": 1 }],
        "abc": [0.99999242, 0.9999953300000001, 0.75000745],
        "properties": { "magmom": 0.0 },
        "label": "O",
        "xyz": [2.568639859710833, 4.4490069579980505, 7.1122380225387]
      },
      {
        "species": [{ "element": "O", "occu": 1 }],
        "abc": [9.22e-6, 4.91e-6, 0.24998621000000001],
        "properties": { "magmom": 0.0 },
        "label": "O",
        "xyz": [3.61790167999e-5, 1.99397985483e-5, 2.37059213593298]
      }
    ]
  },
  "task_ids": null,
  "uncorrected_energy_per_atom": null,
  "energy_per_atom": -8.72852322625,
  "formation_energy_per_atom": -1.569913962499999,
  "energy_above_hull": 0.0,
  "is_stable": true,
  "equilibrium_reaction_energy_per_atom": null,
  "decomposes_to": null,
  "xas": null,
  "grain_boundaries": null,
  "band_gap": 0.0,
  "cbm": null,
  "vbm": null,
  "efermi": 6.72735872,
  "is_gap_direct": null,
  "is_metal": null,
  "es_source_calc_id": null,
  "bandstructure": null,
  "dos": null,
  "dos_energy_up": null,
  "dos_energy_down": null,
  "is_magnetic": null,
  "ordering": null,
  "total_magnetization": 0.0002262,
  "total_magnetization_normalized_vol": null,
  "total_magnetization_normalized_formula_units": null,
  "num_magnetic_sites": null,
  "num_unique_magnetic_sites": null,
  "types_of_magnetic_species": null,
  "bulk_modulus": null,
  "shear_modulus": null,
  "universal_anisotropy": null,
  "homogeneous_poisson": null,
  "e_total": null,
  "e_ionic": null,
  "e_electronic": null,
  "n": null,
  "e_ij_max": null,
  "weighted_surface_energy_EV_PER_ANG2": null,
  "weighted_surface_energy": null,
  "weighted_work_function": null,
  "surface_anisotropy": null,
  "shape_factor": null,
  "has_reconstructed": null,
  "possible_species": null,
  "has_props": null,
  "theoretical": null,
  "database_IDs": null,
  "fields_not_requested": [
    "builder_meta",
    "nsites",
    "elements",
    "nelements",
    "composition",
    "composition_reduced",
    "chemsys",
    "symmetry",
    "property_name",
    "deprecated",
    "deprecation_reasons",
    "last_updated",
    "origins",
    "warnings",
    "task_ids",
    "uncorrected_energy_per_atom",
    "equilibrium_reaction_energy_per_atom",
    "decomposes_to",
    "xas",
    "grain_boundaries",
    "cbm",
    "vbm",
    "is_gap_direct",
    "is_metal",
    "es_source_calc_id",
    "bandstructure",
    "dos",
    "dos_energy_up",
    "dos_energy_down",
    "is_magnetic",
    "ordering",
    "total_magnetization_normalized_vol",
    "total_magnetization_normalized_formula_units",
    "num_magnetic_sites",
    "num_unique_magnetic_sites",
    "types_of_magnetic_species",
    "bulk_modulus",
    "shear_modulus",
    "universal_anisotropy",
    "homogeneous_poisson",
    "e_total",
    "e_ionic",
    "e_electronic",
    "n",
    "e_ij_max",
    "weighted_surface_energy_EV_PER_ANG2",
    "weighted_surface_energy",
    "weighted_work_function",
    "surface_anisotropy",
    "shape_factor",
    "has_reconstructed",
    "possible_species",
    "has_props",
    "theoretical",
    "database_IDs"
  ]
}
