{
  "builder_meta": null,
  "nsites": null,
  "elements": null,
  "nelements": null,
  "composition": null,
  "composition_reduced": null,
  "formula_pretty": "Ti3O4",
  "formula_anonymous": "A3B4",
  "chemsys": null,
  "volume": 69.80936068096659,
  "density": 4.9380997348892155,
  "density_atomic": 9.972765811566656,
  "symmetry": null,
  "property_name": null,
  "material_id": "mp-1217157",
  "deprecated": null,
  "deprecation_reasons": null,
  "last_updated": null,
  "origins": null,
  "warnings": null,
  "structure": {
    "@module": "pymatgen.core.structure",
    "@class": "Structure",
    "charge": 0,
    "lattice": {
      "matrix": [
        [-2.06590889, 2.06590889, 4.08913398],
        [2.06590889, -2.06590889, 4.08913398],
        [2.06590889, 2.06590889, -4.08913398]
      ],
      "pbc": [true, true, true],
      "a": 5.02563187966973,
      "b": 5.02563187966973,
      "c": 5.02563187966973,
      "alpha": 131.45530335419483,
      "beta": 131.45530335419483,
      "gamma": 71.09068856646216,
      "volume": 69.80936068096659
    },
    "properties": {},
    "sites": [
      {
        "species": [{ "element": "Ti", "occu": 1 }],
        "abc": [0.25, 0.75, 0.5],
        "properties": { "magmom": -0.0 },
        "label": "Ti",
        "xyz": [2.06590889, 0.0, 2.04456699]
      },
      {
        "species": [{ "element": "Ti", "occu": 1 }],
        "abc": [0.5, 0.5, 0.0],
        "properties": { "magmom": 0.0 },
        "label": "Ti",
        "xyz": [0.0, 0.0, 4.08913398]
      },
      {
        "species": [{ "element": "Ti", "occu": 1 }],
        "abc": [0.75, 0.25, 0.5],
        "properties": { "magmom": -0.0 },
        "label": "Ti",
        "xyz": [0.0, 2.06590889, 2.04456699]
      },
      {
        "species": [{ "element": "O", "occu": 1 }],
        "abc": [0.0, 0.5, 0.5],
        "properties": { "magmom": -0.0 },
        "label": "O",
        "xyz": [2.06590889, 0.0, 0.0]
      },
      {
        "species": [{ "element": "O", "occu": 1 }],
        "abc": [0.24411514, 0.24411514, -0.0],
        "properties": { "magmom": -0.0 },
        "label": "O",
        "xyz": [0.0, 0.0, 1.9964390280129143]
      },
      {
        "species": [{ "element": "O", "occu": 1 }],
        "abc": [0.5, 0.0, 0.5],
        "properties": { "magmom": -0.0 },
        "label": "O",
        "xyz": [0.0, 2.06590889, 0.0]
      },
      {
        "species": [{ "element": "O", "occu": 1 }],
        "abc": [0.75588486, 0.75588486, 0.0],
        "properties": { "magmom": -0.0 },
        "label": "O",
        "xyz": [0.0, 0.0, 6.181828931987085]
      }
    ]
  },
  "task_ids": null,
  "uncorrected_energy_per_atom": null,
  "energy_per_atom": -9.375010398571431,
  "formation_energy_per_atom": -3.16382181714286,
  "energy_above_hull": 0.026622572857140002,
  "is_stable": false,
  "equilibrium_reaction_energy_per_atom": null,
  "decomposes_to": null,
  "xas": null,
  "grain_boundaries": null,
  "band_gap": 0.0,
  "cbm": null,
  "vbm": null,
  "efermi": 7.69621201,
  "is_gap_direct": null,
  "is_metal": null,
  "es_source_calc_id": null,
  "bandstructure": null,
  "dos": null,
  "dos_energy_up": null,
  "dos_energy_down": null,
  "is_magnetic": null,
  "ordering": null,
  "total_magnetization": 1e-7,
  "total_magnetization_normalized_vol": null,
  "total_magnetization_normalized_formula_units": null,
  "num_magnetic_sites": null,
  "num_unique_magnetic_sites": null,
  "types_of_magnetic_species": null,
  "bulk_modulus": null,
  "shear_modulus": null,
  "universal_anisotropy": null,
  "homogeneous_poisson": null,
  "e_total": null,
  "e_ionic": null,
  "e_electronic": null,
  "n": null,
  "e_ij_max": null,
  "weighted_surface_energy_EV_PER_ANG2": null,
  "weighted_surface_energy": null,
  "weighted_work_function": null,
  "surface_anisotropy": null,
  "shape_factor": null,
  "has_reconstructed": null,
  "possible_species": null,
  "has_props": null,
  "theoretical": null,
  "database_IDs": null,
  "fields_not_requested": [
    "builder_meta",
    "nsites",
    "elements",
    "nelements",
    "composition",
    "composition_reduced",
    "chemsys",
    "symmetry",
    "property_name",
    "deprecated",
    "deprecation_reasons",
    "last_updated",
    "origins",
    "warnings",
    "task_ids",
    "uncorrected_energy_per_atom",
    "equilibrium_reaction_energy_per_atom",
    "decomposes_to",
    "xas",
    "grain_boundaries",
    "cbm",
    "vbm",
    "is_gap_direct",
    "is_metal",
    "es_source_calc_id",
    "bandstructure",
    "dos",
    "dos_energy_up",
    "dos_energy_down",
    "is_magnetic",
    "ordering",
    "total_magnetization_normalized_vol",
    "total_magnetization_normalized_formula_units",
    "num_magnetic_sites",
    "num_unique_magnetic_sites",
    "types_of_magnetic_species",
    "bulk_modulus",
    "shear_modulus",
    "universal_anisotropy",
    "homogeneous_poisson",
    "e_total",
    "e_ionic",
    "e_electronic",
    "n",
    "e_ij_max",
    "weighted_surface_energy_EV_PER_ANG2",
    "weighted_surface_energy",
    "weighted_work_function",
    "surface_anisotropy",
    "shape_factor",
    "has_reconstructed",
    "possible_species",
    "has_props",
    "theoretical",
    "database_IDs"
  ]
}
