{"builder_meta": null, "nsites": null, "elements": null, "nelements": null, "composition": null, "composition_reduced": null, "formula_pretty": "Ti3O2", "formula_anonymous": "A2B3", "chemsys": null, "volume": 111.68602130432724, "density": 5.221608301232395, "density_atomic": 11.168602130432724, "symmetry": null, "property_name": null, "material_id": "mp-978968", "deprecated": null, "deprecation_reasons": null, "last_updated": null, "origins": null, "warnings": null, "structure": {"@module": "pymatgen.core.structure", "@class": "Structure", "charge": 0, "lattice": {"matrix": [[-5.10178254, -6.673e-05, 0.00017915], [2.55082912, -4.41911751, 1.807e-05], [-2.55102613, 1.47283282, 4.9538489]], "pbc": [true, true, true], "a": 5.101782543581848, "b": 5.10248260819722, "c": 5.763470287564874, "alpha": 116.26941069289259, "beta": 63.727129816325515, "gamma": 119.99390626746825, "volume": 111.68602130432724}, "properties": {}, "sites": [{"species": [{"element": "Ti", "occu": 1}], "abc": [0.58087511, 0.74997892, 0.25002431], "properties": {"magmom": 0.0}, "label": "Ti", "xyz": [-1.6882489735416497, -2.9460397297331253, 1.2387002689617999]}, {"species": [{"element": "Ti", "occu": 1}], "abc": [0.91901853, 0.41914387000000003, 0.25014049], "properties": {"magmom": -0.0}, "label": "Ti", "xyz": [-4.257583227385976, -1.483892217949789, 1.2393304073313414]}, {"species": [{"element": "Ti", "occu": 1}], "abc": [0.25000724, 0.08080928, 0.24984099], "properties": {"magmom": 0.0}, "label": "Ti", "xyz": [-1.7067028011504248, 0.010851622651673831, 1.2377207625071465]}, {"species": [{"element": "Ti", "occu": 1}], "abc": [0.75001055, 0.9192045600000001, 0.7501553200000001], "properties": {"magmom": 0.0}, "label": "Ti", "xyz": [-3.395322792799522, -2.9572696391782447, 3.71630708122758]}, {"species": [{"element": "Ti", "occu": 1}], "abc": [0.08097491, 0.58084181, 0.74986673], "properties": {"magmom": -0.0}, "label": "Ti", "xyz": [-0.8444178012022192, -1.4623852859967588, 3.71475147802373]}, {"species": [{"element": "Ti", "occu": 1}], "abc": [0.41911193, 0.25002522, 0.74997664], "properties": {"magmom": 0.0}, "label": "Ti", "xyz": [-3.413656320398899, -0.00032858535736624006, 3.71535055494768]}, {"species": [{"element": "O", "occu": 1}], "abc": [0.66273454, 0.33752432, 0.01225073], "properties": {"magmom": -0.0}, "label": "O", "xyz": [-2.551412573004308, -1.473560579625739, 0.06081309329200039]}, {"species": [{"element": "O", "occu": 1}], "abc": [0.8374754600000001, 0.16247687, 0.48774217000000003], "properties": {"magmom": -0.0}, "label": "O", "xyz": [-5.102409968556916, 0.00030240974957995714, 2.416353982023813]}, {"species": [{"element": "O", "occu": 1}], "abc": [0.16252622, 0.83750937, 0.5122476300000001], "properties": {"magmom": 0.0}, "label": "O", "xyz": [0.00041276862008343684, -2.946608045699513, 2.5376416087697358]}, {"species": [{"element": "O", "occu": 1}], "abc": [0.33726152, 0.66248777, 0.98776299], "properties": {"magmom": 0.0}, "label": "O", "xyz": [-2.550551036526927, -1.4728240599757507, 4.893300993027522]}]}, "task_ids": null, "uncorrected_energy_per_atom": null, "energy_per_atom": -9.069092864000002, "formation_energy_per_atom": -2.352613252000002, "energy_above_hull": 0.031906659999998005, "is_stable": false, "equilibrium_reaction_energy_per_atom": null, "decomposes_to": null, "xas": null, "grain_boundaries": null, "band_gap": 0.0, "cbm": null, "vbm": null, "efermi": 7.82822397, "is_gap_direct": null, "is_metal": null, "es_source_calc_id": null, "bandstructure": null, "dos": null, "dos_energy_up": null, "dos_energy_down": null, "is_magnetic": null, "ordering": null, "total_magnetization": 0.0, "total_magnetization_normalized_vol": null, "total_magnetization_normalized_formula_units": null, "num_magnetic_sites": null, "num_unique_magnetic_sites": null, "types_of_magnetic_species": null, "bulk_modulus": null, "shear_modulus": null, "universal_anisotropy": null, "homogeneous_poisson": null, "e_total": null, "e_ionic": null, "e_electronic": null, "n": null, "e_ij_max": null, "weighted_surface_energy_EV_PER_ANG2": null, "weighted_surface_energy": null, "weighted_work_function": null, "surface_anisotropy": null, "shape_factor": null, "has_reconstructed": null, "possible_species": null, "has_props": null, "theoretical": null, "database_IDs": null, "fields_not_requested": ["builder_meta", "nsites", "elements", "nelements", "composition", "composition_reduced", "chemsys", "symmetry", "property_name", "deprecated", "deprecation_reasons", "last_updated", "origins", "warnings", "task_ids", "uncorrected_energy_per_atom", "equilibrium_reaction_energy_per_atom", "decomposes_to", "xas", "grain_boundaries", "cbm", "vbm", "is_gap_direct", "is_metal", "es_source_calc_id", "bandstructure", "dos", "dos_energy_up", "dos_energy_down", "is_magnetic", "ordering", "total_magnetization_normalized_vol", "total_magnetization_normalized_formula_units", "num_magnetic_sites", "num_unique_magnetic_sites", "types_of_magnetic_species", "bulk_modulus", "shear_modulus", "universal_anisotropy", "homogeneous_poisson", "e_total", "e_ionic", "e_electronic", "n", "e_ij_max", "weighted_surface_energy_EV_PER_ANG2", "weighted_surface_energy", "weighted_work_function", "surface_anisotropy", "shape_factor", "has_reconstructed", "possible_species", "has_props", "theoretical", "database_IDs"]}