{"builder_meta": null, "nsites": null, "elements": null, "nelements": null, "composition": null, "composition_reduced": null, "formula_pretty": "Ti3O7", "formula_anonymous": "A3B7", "chemsys": null, "volume": 606.2082837484971, "density": 1.400272754682558, "density_atomic": 30.310414187424858, "symmetry": null, "property_name": null, "material_id": "mp-1179358", "deprecated": null, "deprecation_reasons": null, "last_updated": null, "origins": null, "warnings": null, "structure": {"@module": "pymatgen.core.structure", "@class": "Structure", "charge": 0, "lattice": {"matrix": [[1.853561, 17.397772, 0.0], [-1.853561, 17.397772, 0.0], [0.0, 1.359528, 9.39921]], "pbc": [true, true, true], "a": 17.496232707206, "b": 17.496232707206, "c": 9.497024007913428, "alpha": 81.81629375004661, "beta": 81.81629375004661, "gamma": 12.162719917964687, "volume": 606.2082837484971}, "properties": {}, "sites": [{"species": [{"element": "Ti", "occu": 1}], "abc": [0.23307000000000003, 0.23307000000000003, 0.777481], "properties": {"magmom": -0.014}, "label": "Ti", "xyz": [0.0, 9.166804629048002, 7.3077071900099995]}, {"species": [{"element": "Ti", "occu": 1}], "abc": [0.7669300000000001, 0.7669300000000001, 0.222519], "properties": {"magmom": -0.014}, "label": "Ti", "xyz": [0.0, 26.988267370952002, 2.09150280999]}, {"species": [{"element": "Ti", "occu": 1}], "abc": [0.213839, 0.213839, 0.470562999999999], "properties": {"magmom": 0.011}, "label": "Ti", "xyz": [0.0, 8.080387907679999, 4.422920455229991]}, {"species": [{"element": "Ti", "occu": 1}], "abc": [0.786161, 0.786161, 0.529436999999999], "properties": {"magmom": 0.011}, "label": "Ti", "xyz": [0.0, 28.07468409232, 4.976289544769991]}, {"species": [{"element": "Ti", "occu": 1}], "abc": [0.19374000000000002, 0.19374000000000002, 0.159027], "properties": {"magmom": -0.136}, "label": "Ti", "xyz": [0.0, 6.9574903538160005, 1.49472816867]}, {"species": [{"element": "Ti", "occu": 1}], "abc": [0.8062600000000001, 0.8062600000000001, 0.840973], "properties": {"magmom": -0.136}, "label": "Ti", "xyz": [0.0, 29.197581646184002, 7.90448183133]}, {"species": [{"element": "O", "occu": 1}], "abc": [0.206236, 0.206236, 0.957353], "properties": {"magmom": 0.23900000000000002}, "label": "O", "xyz": [0.0, 8.477642021768, 8.998361891130001]}, {"species": [{"element": "O", "occu": 1}], "abc": [0.793763999999999, 0.793763999999999, 0.042647], "properties": {"magmom": 0.23900000000000002}, "label": "O", "xyz": [0.0, 27.677429978231963, 0.40084810887]}, {"species": [{"element": "O", "occu": 1}], "abc": [0.19535000000000002, 0.19535000000000002, 0.659513], "properties": {"magmom": 0.02}, "label": "O", "xyz": [0.0, 7.693935910264001, 6.19890118473]}, {"species": [{"element": "O", "occu": 1}], "abc": [0.8046500000000001, 0.8046500000000001, 0.340487], "properties": {"magmom": 0.02}, "label": "O", "xyz": [0.0, 28.461136089736005, 3.2003088152699997]}, {"species": [{"element": "O", "occu": 1}], "abc": [0.17509000000000002, 0.17509000000000002, 0.358786], "properties": {"magmom": 0.20500000000000002}, "label": "O", "xyz": [0.0, 6.580131411968001, 3.37230495906]}, {"species": [{"element": "O", "occu": 1}], "abc": [0.82491, 0.82491, 0.641214], "properties": {"magmom": 0.20500000000000002}, "label": "O", "xyz": [0.0, 29.574940588032, 6.02690504094]}, {"species": [{"element": "O", "occu": 1}], "abc": [0.140133999999999, 0.140133999999999, 0.133473999999999], "properties": {"magmom": 1.029}, "label": "O", "xyz": [0.0, 5.057500403167964, 1.2545501555399907]}, {"species": [{"element": "O", "occu": 1}], "abc": [0.859865999999999, 0.859865999999999, 0.866525999999999], "properties": {"magmom": 1.029}, "label": "O", "xyz": [0.0, 31.097571596831965, 8.14465984445999]}, {"species": [{"element": "O", "occu": 1}], "abc": [0.290336, 0.290336, 0.840144], "properties": {"magmom": 0.20400000000000001}, "label": "O", "xyz": [0.0, 11.244598354815999, 7.89668988624]}, {"species": [{"element": "O", "occu": 1}], "abc": [0.709664, 0.709664, 0.159856], "properties": {"magmom": 0.20400000000000001}, "label": "O", "xyz": [0.0, 24.910473645184, 1.50252011376]}, {"species": [{"element": "O", "occu": 1}], "abc": [0.26995399999999903, 0.26995399999999903, 0.553825999999999], "properties": {"magmom": 0.023}, "label": "O", "xyz": [0.0, 10.146138239103966, 5.205526877459991]}, {"species": [{"element": "O", "occu": 1}], "abc": [0.730046, 0.730046, 0.446173999999999], "properties": {"magmom": 0.023}, "label": "O", "xyz": [0.0, 26.008933760896, 4.193683122539991]}, {"species": [{"element": "O", "occu": 1}], "abc": [0.25098000000000004, 0.25098000000000004, 0.243965], "properties": {"magmom": 0.029}, "label": "O", "xyz": [0.0, 9.064662881640002, 2.29307826765]}, {"species": [{"element": "O", "occu": 1}], "abc": [0.74902, 0.74902, 0.756035], "properties": {"magmom": 0.029}, "label": "O", "xyz": [0.0, 27.09040911836, 7.10613173235]}]}, "task_ids": null, "uncorrected_energy_per_atom": null, "energy_per_atom": -8.745956431, "formation_energy_per_atom": -2.913736122499999, "energy_above_hull": 0.24351378425000003, "is_stable": false, "equilibrium_reaction_energy_per_atom": null, "decomposes_to": null, "xas": null, "grain_boundaries": null, "band_gap": 0.158699999999999, "cbm": null, "vbm": null, "efermi": -4.53195741, "is_gap_direct": null, "is_metal": null, "es_source_calc_id": null, "bandstructure": null, "dos": null, "dos_energy_up": null, "dos_energy_down": null, "is_magnetic": null, "ordering": null, "total_magnetization": 3.9999393, "total_magnetization_normalized_vol": null, "total_magnetization_normalized_formula_units": null, "num_magnetic_sites": null, "num_unique_magnetic_sites": null, "types_of_magnetic_species": null, "bulk_modulus": null, "shear_modulus": null, "universal_anisotropy": null, "homogeneous_poisson": null, "e_total": null, "e_ionic": null, "e_electronic": null, "n": null, "e_ij_max": null, "weighted_surface_energy_EV_PER_ANG2": null, "weighted_surface_energy": null, "weighted_work_function": null, "surface_anisotropy": null, "shape_factor": null, "has_reconstructed": null, "possible_species": null, "has_props": null, "theoretical": null, "database_IDs": null, "fields_not_requested": ["builder_meta", "nsites", "elements", "nelements", "composition", "composition_reduced", "chemsys", "symmetry", "property_name", "deprecated", "deprecation_reasons", "last_updated", "origins", "warnings", "task_ids", "uncorrected_energy_per_atom", "equilibrium_reaction_energy_per_atom", "decomposes_to", "xas", "grain_boundaries", "cbm", "vbm", "is_gap_direct", "is_metal", "es_source_calc_id", "bandstructure", "dos", "dos_energy_up", "dos_energy_down", "is_magnetic", "ordering", "total_magnetization_normalized_vol", "total_magnetization_normalized_formula_units", "num_magnetic_sites", "num_unique_magnetic_sites", "types_of_magnetic_species", "bulk_modulus", "shear_modulus", "universal_anisotropy", "homogeneous_poisson", "e_total", "e_ionic", "e_electronic", "n", "e_ij_max", "weighted_surface_energy_EV_PER_ANG2", "weighted_surface_energy", "weighted_work_function", "surface_anisotropy", "shape_factor", "has_reconstructed", "possible_species", "has_props", "theoretical", "database_IDs"]}