{"builder_meta": null, "nsites": null, "elements": null, "nelements": null, "composition": null, "composition_reduced": null, "formula_pretty": "Ti3O8", "formula_anonymous": "A3B8", "chemsys": null, "volume": 137.60792361818665, "density": 3.277399212064719, "density_atomic": 12.509811238016967, "symmetry": null, "property_name": null, "material_id": "mp-1217105", "deprecated": null, "deprecation_reasons": null, "last_updated": null, "origins": null, "warnings": null, "structure": {"@module": "pymatgen.core.structure", "@class": "Structure", "charge": 0, "lattice": {"matrix": [[3.782378999999999, 0.0, 0.0], [0.0, 3.782378999999999, 0.0], [0.0, 0.0, 9.618632999999999]], "pbc": [true, true, true], "a": 3.782378999999999, "b": 3.782378999999999, "c": 9.618632999999999, "alpha": 90.0, "beta": 90.0, "gamma": 90.0, "volume": 137.6079236181865}, "properties": {}, "sites": [{"species": [{"element": "Ti", "occu": 1}], "abc": [0.0, 0.0, 0.5], "properties": {"magmom": -0.03}, "label": "Ti", "xyz": [0.0, 0.0, 4.8093164999999996]}, {"species": [{"element": "Ti", "occu": 1}], "abc": [0.0, 0.5, 0.240103999999999], "properties": {"magmom": -0.122}, "label": "Ti", "xyz": [0.0, 1.8911894999999994, 2.3094722578319904]}, {"species": [{"element": "Ti", "occu": 1}], "abc": [0.5, 0.0, 0.759896], "properties": {"magmom": -0.122}, "label": "Ti", "xyz": [1.8911894999999994, 0.0, 7.309160742167999]}, {"species": [{"element": "O", "occu": 1}], "abc": [0.0, 0.5, 0.037531999999999004], "properties": {"magmom": 1.086}, "label": "O", "xyz": [0.0, 1.8911894999999994, 0.3610065337559904]}, {"species": [{"element": "O", "occu": 1}], "abc": [0.5, 0.0, 0.542144], "properties": {"magmom": 0.089}, "label": "O", "xyz": [1.8911894999999994, 0.0, 5.214684169151999]}, {"species": [{"element": "O", "occu": 1}], "abc": [0.0, 0.0, 0.289498], "properties": {"magmom": 0.122}, "label": "O", "xyz": [0.0, 0.0, 2.7845750162339997]}, {"species": [{"element": "O", "occu": 1}], "abc": [0.5, 0.5, 0.791466], "properties": {"magmom": 0.483}, "label": "O", "xyz": [1.8911894999999994, 1.8911894999999994, 7.612820985977999]}, {"species": [{"element": "O", "occu": 1}], "abc": [0.5, 0.5, 0.208534], "properties": {"magmom": 0.483}, "label": "O", "xyz": [1.8911894999999994, 1.8911894999999994, 2.0058120140219997]}, {"species": [{"element": "O", "occu": 1}], "abc": [0.0, 0.0, 0.710502], "properties": {"magmom": 0.122}, "label": "O", "xyz": [0.0, 0.0, 6.834057983765999]}, {"species": [{"element": "O", "occu": 1}], "abc": [0.5, 0.0, 0.962468], "properties": {"magmom": 1.086}, "label": "O", "xyz": [1.8911894999999994, 0.0, 9.257626466243998]}, {"species": [{"element": "O", "occu": 1}], "abc": [0.0, 0.5, 0.457856], "properties": {"magmom": 0.089}, "label": "O", "xyz": [0.0, 1.8911894999999994, 4.403948830847999]}]}, "task_ids": null, "uncorrected_energy_per_atom": null, "energy_per_atom": -8.244458465454544, "formation_energy_per_atom": -2.492625366363636, "energy_above_hull": 0.37760182159090705, "is_stable": false, "equilibrium_reaction_energy_per_atom": null, "decomposes_to": null, "xas": null, "grain_boundaries": null, "band_gap": 0.0, "cbm": null, "vbm": null, "efermi": 0.51918359, "is_gap_direct": null, "is_metal": null, "es_source_calc_id": null, "bandstructure": null, "dos": null, "dos_energy_up": null, "dos_energy_down": null, "is_magnetic": null, "ordering": null, "total_magnetization": 4.0011015, "total_magnetization_normalized_vol": null, "total_magnetization_normalized_formula_units": null, "num_magnetic_sites": null, "num_unique_magnetic_sites": null, "types_of_magnetic_species": null, "bulk_modulus": null, "shear_modulus": null, "universal_anisotropy": null, "homogeneous_poisson": null, "e_total": null, "e_ionic": null, "e_electronic": null, "n": null, "e_ij_max": null, "weighted_surface_energy_EV_PER_ANG2": null, "weighted_surface_energy": null, "weighted_work_function": null, "surface_anisotropy": null, "shape_factor": null, "has_reconstructed": null, "possible_species": null, "has_props": null, "theoretical": null, "database_IDs": null, "fields_not_requested": ["builder_meta", "nsites", "elements", "nelements", "composition", "composition_reduced", "chemsys", "symmetry", "property_name", "deprecated", "deprecation_reasons", "last_updated", "origins", "warnings", "task_ids", "uncorrected_energy_per_atom", "equilibrium_reaction_energy_per_atom", "decomposes_to", "xas", "grain_boundaries", "cbm", "vbm", "is_gap_direct", "is_metal", "es_source_calc_id", "bandstructure", "dos", "dos_energy_up", "dos_energy_down", "is_magnetic", "ordering", "total_magnetization_normalized_vol", "total_magnetization_normalized_formula_units", "num_magnetic_sites", "num_unique_magnetic_sites", "types_of_magnetic_species", "bulk_modulus", "shear_modulus", "universal_anisotropy", "homogeneous_poisson", "e_total", "e_ionic", "e_electronic", "n", "e_ij_max", "weighted_surface_energy_EV_PER_ANG2", "weighted_surface_energy", "weighted_work_function", "surface_anisotropy", "shape_factor", "has_reconstructed", "possible_species", "has_props", "theoretical", "database_IDs"]}