{
  "builder_meta": null,
  "nsites": null,
  "elements": null,
  "nelements": null,
  "composition": null,
  "composition_reduced": null,
  "formula_pretty": "Ti3Pd5",
  "formula_anonymous": "A3B5",
  "chemsys": null,
  "volume": 123.22267082184108,
  "density": 9.105693784733388,
  "density_atomic": 15.402833852730135,
  "symmetry": null,
  "property_name": null,
  "material_id": "mp-570199",
  "deprecated": null,
  "deprecation_reasons": null,
  "last_updated": null,
  "origins": null,
  "warnings": null,
  "structure": {
    "@module": "pymatgen.core.structure",
    "@class": "Structure",
    "charge": 0,
    "lattice": {
      "matrix": [
        [3.27980186, 0.0, -0.0],
        [0.0, 3.27980186, 0.0],
        [0.0, 0.0, 11.45500814]
      ],
      "pbc": [true, true, true],
      "a": 3.27980186,
      "b": 3.27980186,
      "c": 11.45500814,
      "alpha": 90.0,
      "beta": 90.0,
      "gamma": 90.0,
      "volume": 123.22267082184108
    },
    "properties": {},
    "sites": [
      {
        "species": [{ "element": "Ti", "occu": 1 }],
        "abc": [0.5, 0.5, 0.13784446],
        "properties": { "magmom": 0.0 },
        "label": "Ti",
        "xyz": [1.63990093, 1.63990093, 1.5790094113539044]
      },
      {
        "species": [{ "element": "Ti", "occu": 1 }],
        "abc": [0.5, 0.5, 0.8622294500000001],
        "properties": { "magmom": 0.0 },
        "label": "Ti",
        "xyz": [1.63990093, 1.63990093, 9.876845368297724]
      },
      {
        "species": [{ "element": "Ti", "occu": 1 }],
        "abc": [0.0, -0.0, 0.49999627],
        "properties": { "magmom": -0.0 },
        "label": "Ti",
        "xyz": [0.0, 0.0, 5.727461342819638]
      },
      {
        "species": [{ "element": "Pd", "occu": 1 }],
        "abc": [0.0, -0.0, 0.24233376],
        "properties": { "magmom": -0.0 },
        "label": "Pd",
        "xyz": [0.0, 0.0, 2.7759351933968066]
      },
      {
        "species": [{ "element": "Pd", "occu": 1 }],
        "abc": [0.5, 0.5, 0.61960923],
        "properties": { "magmom": -0.0 },
        "label": "Pd",
        "xyz": [1.63990093, 1.63990093, 7.0976287732691326]
      },
      {
        "species": [{ "element": "Pd", "occu": 1 }],
        "abc": [0.5, 0.5, 0.38030966],
        "properties": { "magmom": -0.0 },
        "label": "Pd",
        "xyz": [1.63990093, 1.63990093, 4.356450251020632]
      },
      {
        "species": [{ "element": "Pd", "occu": 1 }],
        "abc": [-0.0, -0.0, 0.75771973],
        "properties": { "magmom": -0.0 },
        "label": "Pd",
        "xyz": [0.0, 0.0, 8.679685674988603]
      },
      {
        "species": [{ "element": "Pd", "occu": 1 }],
        "abc": [0.0, -0.0, -4.2560000000000006e-5],
        "properties": { "magmom": 0.0 },
        "label": "Pd",
        "xyz": [0.0, 0.0, -0.0004875251464384001]
      }
    ]
  },
  "task_ids": null,
  "uncorrected_energy_per_atom": null,
  "energy_per_atom": -19.82866717,
  "formation_energy_per_atom": -0.6267247837499951,
  "energy_above_hull": 0.000825531250001,
  "is_stable": false,
  "equilibrium_reaction_energy_per_atom": null,
  "decomposes_to": null,
  "xas": null,
  "grain_boundaries": null,
  "band_gap": 0.0,
  "cbm": null,
  "vbm": null,
  "efermi": 5.63420611,
  "is_gap_direct": null,
  "is_metal": null,
  "es_source_calc_id": null,
  "bandstructure": null,
  "dos": null,
  "dos_energy_up": null,
  "dos_energy_down": null,
  "is_magnetic": null,
  "ordering": null,
  "total_magnetization": 0.0002511,
  "total_magnetization_normalized_vol": null,
  "total_magnetization_normalized_formula_units": null,
  "num_magnetic_sites": null,
  "num_unique_magnetic_sites": null,
  "types_of_magnetic_species": null,
  "bulk_modulus": null,
  "shear_modulus": null,
  "universal_anisotropy": null,
  "homogeneous_poisson": null,
  "e_total": null,
  "e_ionic": null,
  "e_electronic": null,
  "n": null,
  "e_ij_max": null,
  "weighted_surface_energy_EV_PER_ANG2": null,
  "weighted_surface_energy": null,
  "weighted_work_function": null,
  "surface_anisotropy": null,
  "shape_factor": null,
  "has_reconstructed": null,
  "possible_species": null,
  "has_props": null,
  "theoretical": null,
  "database_IDs": null,
  "fields_not_requested": [
    "builder_meta",
    "nsites",
    "elements",
    "nelements",
    "composition",
    "composition_reduced",
    "chemsys",
    "symmetry",
    "property_name",
    "deprecated",
    "deprecation_reasons",
    "last_updated",
    "origins",
    "warnings",
    "task_ids",
    "uncorrected_energy_per_atom",
    "equilibrium_reaction_energy_per_atom",
    "decomposes_to",
    "xas",
    "grain_boundaries",
    "cbm",
    "vbm",
    "is_gap_direct",
    "is_metal",
    "es_source_calc_id",
    "bandstructure",
    "dos",
    "dos_energy_up",
    "dos_energy_down",
    "is_magnetic",
    "ordering",
    "total_magnetization_normalized_vol",
    "total_magnetization_normalized_formula_units",
    "num_magnetic_sites",
    "num_unique_magnetic_sites",
    "types_of_magnetic_species",
    "bulk_modulus",
    "shear_modulus",
    "universal_anisotropy",
    "homogeneous_poisson",
    "e_total",
    "e_ionic",
    "e_electronic",
    "n",
    "e_ij_max",
    "weighted_surface_energy_EV_PER_ANG2",
    "weighted_surface_energy",
    "weighted_work_function",
    "surface_anisotropy",
    "shape_factor",
    "has_reconstructed",
    "possible_species",
    "has_props",
    "theoretical",
    "database_IDs"
  ]
}
