{"builder_meta": null, "nsites": null, "elements": null, "nelements": null, "composition": null, "composition_reduced": null, "formula_pretty": "Ti3P", "formula_anonymous": "AB3", "chemsys": null, "volume": 491.43476537477767, "density": 4.719050954766259, "density_atomic": 15.357336417961802, "symmetry": null, "property_name": null, "material_id": "mp-31214", "deprecated": null, "deprecation_reasons": null, "last_updated": null, "origins": null, "warnings": null, "structure": {"@module": "pymatgen.core.structure", "@class": "Structure", "charge": 0, "lattice": {"matrix": [[4.97516196, 0.0, -0.0], [-0.0, 9.93869416, -0.00026825], [-0.0, 0.00026825, 9.93869416]], "pbc": [true, true, true], "a": 4.97516196, "b": 9.938694163620097, "c": 9.938694163620097, "alpha": 90.0, "beta": 90.0, "gamma": 90.0, "volume": 491.43476537477767}, "properties": {}, "sites": [{"species": [{"element": "Ti", "occu": 1}], "abc": [0.53154537, 0.11035523, 0.22155339000000002], "properties": {"magmom": 0.0}, "label": "Ti", "xyz": [2.6445243048381255, 1.0968463116233242, 2.201921780530755]}, {"species": [{"element": "Ti", "occu": 1}], "abc": [0.03154537, 0.77844661, 0.61035523], "properties": {"magmom": 0.0}, "label": "Ti", "xyz": [0.15694332483812523, 7.736906504469245, 6.065925141623325]}, {"species": [{"element": "Ti", "occu": 1}], "abc": [0.03154537, 0.72155339, 0.88964477], "properties": {"magmom": 0.0}, "label": "Ti", "xyz": [0.15694332483812523, 7.171537110530755, 8.841713723376676]}, {"species": [{"element": "Ti", "occu": 1}], "abc": [0.53154537, 0.38964477000000003, 0.27844661], "properties": {"magmom": 0.0}, "label": "Ti", "xyz": [2.6445243048381255, 3.8726348933766763, 2.7672911744692454]}, {"species": [{"element": "Ti", "occu": 1}], "abc": [0.46845463, 0.88964477, 0.77844661], "properties": {"magmom": 0.0}, "label": "Ti", "xyz": [2.330637655161875, 8.842116098376676, 7.736504129469246]}, {"species": [{"element": "Ti", "occu": 1}], "abc": [0.96845463, 0.22155339000000002, 0.38964477000000003], "properties": {"magmom": 0.0}, "label": "Ti", "xyz": [4.818218635161875, 2.202055905530755, 3.8725007683766766]}, {"species": [{"element": "Ti", "occu": 1}], "abc": [0.96845463, 0.27844661, 0.11035523], "properties": {"magmom": 0.0}, "label": "Ti", "xyz": [4.818218635161875, 2.767425299469245, 1.0967121866233243]}, {"species": [{"element": "Ti", "occu": 1}], "abc": [0.46845463, 0.61035523, 0.72155339], "properties": {"magmom": 0.0}, "label": "Ti", "xyz": [2.330637655161875, 6.066327516623325, 7.171134735530756]}, {"species": [{"element": "Ti", "occu": 1}], "abc": [0.2600203, 0.53365515, 0.0687998], "properties": {"magmom": -0.0}, "label": "Ti", "xyz": [1.293643105387788, 5.303853778305274, 0.6836370174751805]}, {"species": [{"element": "Ti", "occu": 1}], "abc": [0.7600203, 0.931200199999999, 0.03365515], "properties": {"magmom": -0.0}, "label": "Ti", "xyz": [3.7812240853877883, 9.254923017524812, 0.33423844830527405]}, {"species": [{"element": "Ti", "occu": 1}], "abc": [0.7600203, 0.5687998, 0.46634485000000003], "properties": {"magmom": -0.0}, "label": "Ti", "xyz": [3.7812240853877883, 5.65325234747518, 4.634706256694727]}, {"species": [{"element": "Ti", "occu": 1}], "abc": [0.2600203, 0.96634485, 0.4312002], "properties": {"magmom": -0.0}, "label": "Ti", "xyz": [1.293643105387788, 9.604321586694727, 4.28530768752482]}, {"species": [{"element": "Ti", "occu": 1}], "abc": [0.7399797, 0.46634485000000003, 0.931200199999999], "properties": {"magmom": -0.0}, "label": "Ti", "xyz": [3.681518854612212, 4.6351086316947265, 9.254788892524811]}, {"species": [{"element": "Ti", "occu": 1}], "abc": [0.2399797, 0.0687998, 0.96634485], "properties": {"magmom": -0.0}, "label": "Ti", "xyz": [1.193937874612212, 0.6840393924751804, 9.604187461694726]}, {"species": [{"element": "Ti", "occu": 1}], "abc": [0.2399797, 0.4312002, 0.53365515], "properties": {"magmom": -0.0}, "label": "Ti", "xyz": [1.193937874612212, 4.28571006252482, 5.303719653305274]}, {"species": [{"element": "Ti", "occu": 1}], "abc": [0.7399797, 0.03365515, 0.5687998], "properties": {"magmom": -0.0}, "label": "Ti", "xyz": [3.681518854612212, 0.334640823305274, 5.65311822247518]}, {"species": [{"element": "Ti", "occu": 1}], "abc": [0.785001699999999, 0.64310223, 0.16685062], "properties": {"magmom": -0.0}, "label": "Ti", "xyz": [3.9055105963753274, 6.391641135262792, 1.658104770413182]}, {"species": [{"element": "Ti", "occu": 1}], "abc": [0.285001699999999, 0.83314938, 0.14310223], "properties": {"magmom": -0.0}, "label": "Ti", "xyz": [1.4179296163753272, 8.28045526458682, 1.4220258052627919]}, {"species": [{"element": "Ti", "occu": 1}], "abc": [0.285001699999999, 0.6668506200000001, 0.35689777], "properties": {"magmom": -0.0}, "label": "Ti", "xyz": [1.4179296163753272, 6.627720100413183, 3.5469188997372085]}, {"species": [{"element": "Ti", "occu": 1}], "abc": [0.785001699999999, 0.85689777, 0.33314938], "properties": {"magmom": -0.0}, "label": "Ti", "xyz": [3.9055105963753274, 8.516534229737209, 3.3108399345868187]}, {"species": [{"element": "Ti", "occu": 1}], "abc": [0.2149983, 0.35689777, 0.83314938], "properties": {"magmom": -0.0}, "label": "Ti", "xyz": [1.069651363624668, 3.5473212747372083, 8.28032113958682]}, {"species": [{"element": "Ti", "occu": 1}], "abc": [0.7149983, 0.16685062, 0.85689777], "properties": {"magmom": -0.0}, "label": "Ti", "xyz": [3.5572323436246682, 1.658507145413182, 8.51640010473721]}, {"species": [{"element": "Ti", "occu": 1}], "abc": [0.7149983, 0.33314938, 0.64310223], "properties": {"magmom": -0.0}, "label": "Ti", "xyz": [3.5572323436246682, 3.311242309586819, 6.391507010262792]}, {"species": [{"element": "Ti", "occu": 1}], "abc": [0.2149983, 0.14310223, 0.6668506200000001], "properties": {"magmom": -0.0}, "label": "Ti", "xyz": [1.069651363624668, 1.4224281802627918, 6.627585975413183]}, {"species": [{"element": "P", "occu": 1}], "abc": [0.96361761, 0.5434192, 0.70863877], "properties": {"magmom": 0.0}, "label": "P", "xyz": [4.794153677258116, 5.401067321821925, 7.042798232748183]}, {"species": [{"element": "P", "occu": 1}], "abc": [0.46361761, 0.29136123, 0.0434192], "properties": {"magmom": 0.0}, "label": "P", "xyz": [2.3065726972581158, 2.8957618022518172, 0.4314519918219245]}, {"species": [{"element": "P", "occu": 1}], "abc": [0.46361761, 0.20863877, 0.456580799999999], "properties": {"magmom": 0.0}, "label": "P", "xyz": [2.3065726972581158, 2.0737194027481833, 4.537760963178067]}, {"species": [{"element": "P", "occu": 1}], "abc": [0.96361761, 0.9565808, 0.79136123], "properties": {"magmom": 0.0}, "label": "P", "xyz": [4.794153677258116, 9.507376293178076, 7.864840632251818]}, {"species": [{"element": "P", "occu": 1}], "abc": [0.03638239, 0.456580799999999, 0.29136123], "properties": {"magmom": 0.0}, "label": "P", "xyz": [0.1810082827418844, 4.537895088178066, 2.895627677251817]}, {"species": [{"element": "P", "occu": 1}], "abc": [0.53638239, 0.70863877, 0.9565808], "properties": {"magmom": 0.0}, "label": "P", "xyz": [2.6685892627418846, 7.043200607748183, 9.506973918178076]}, {"species": [{"element": "P", "occu": 1}], "abc": [0.53638239, 0.79136123, 0.5434192], "properties": {"magmom": 0.0}, "label": "P", "xyz": [2.6685892627418846, 7.865243007251818, 5.400664946821925]}, {"species": [{"element": "P", "occu": 1}], "abc": [0.03638239, 0.0434192, 0.20863877], "properties": {"magmom": 0.0}, "label": "P", "xyz": [0.1810082827418844, 0.4315861168219245, 2.073585277748183]}]}, "task_ids": null, "uncorrected_energy_per_atom": null, "energy_per_atom": -12.8604844678125, "formation_energy_per_atom": -0.9066476298065461, "energy_above_hull": 0.0, "is_stable": true, "equilibrium_reaction_energy_per_atom": null, "decomposes_to": null, "xas": null, "grain_boundaries": null, "band_gap": 0.0, "cbm": null, "vbm": null, "efermi": 7.21922714, "is_gap_direct": null, "is_metal": null, "es_source_calc_id": null, "bandstructure": null, "dos": null, "dos_energy_up": null, "dos_energy_down": null, "is_magnetic": null, "ordering": null, "total_magnetization": 2e-07, "total_magnetization_normalized_vol": null, "total_magnetization_normalized_formula_units": null, "num_magnetic_sites": null, "num_unique_magnetic_sites": null, "types_of_magnetic_species": null, "bulk_modulus": null, "shear_modulus": null, "universal_anisotropy": null, "homogeneous_poisson": null, "e_total": null, "e_ionic": null, "e_electronic": null, "n": null, "e_ij_max": null, "weighted_surface_energy_EV_PER_ANG2": null, "weighted_surface_energy": null, "weighted_work_function": null, "surface_anisotropy": null, "shape_factor": null, "has_reconstructed": null, "possible_species": null, "has_props": null, "theoretical": null, "database_IDs": null, "fields_not_requested": ["builder_meta", "nsites", "elements", "nelements", "composition", "composition_reduced", "chemsys", "symmetry", "property_name", "deprecated", "deprecation_reasons", "last_updated", "origins", "warnings", "task_ids", "uncorrected_energy_per_atom", "equilibrium_reaction_energy_per_atom", "decomposes_to", "xas", "grain_boundaries", "cbm", "vbm", "is_gap_direct", "is_metal", "es_source_calc_id", "bandstructure", "dos", "dos_energy_up", "dos_energy_down", "is_magnetic", "ordering", "total_magnetization_normalized_vol", "total_magnetization_normalized_formula_units", "num_magnetic_sites", "num_unique_magnetic_sites", "types_of_magnetic_species", "bulk_modulus", "shear_modulus", "universal_anisotropy", "homogeneous_poisson", "e_total", "e_ionic", "e_electronic", "n", "e_ij_max", "weighted_surface_energy_EV_PER_ANG2", "weighted_surface_energy", "weighted_work_function", "surface_anisotropy", "shape_factor", "has_reconstructed", "possible_species", "has_props", "theoretical", "database_IDs"]}