{"builder_meta": null, "nsites": null, "elements": null, "nelements": null, "composition": null, "composition_reduced": null, "formula_pretty": "Ti3Pb", "formula_anonymous": "AB3", "chemsys": null, "volume": 147.59046818808545, "density": 7.893717965038228, "density_atomic": 18.44880852351068, "symmetry": null, "property_name": null, "material_id": "mp-866184", "deprecated": null, "deprecation_reasons": null, "last_updated": null, "origins": null, "warnings": null, "structure": {"@module": "pymatgen.core.structure", "@class": "Structure", "charge": 0, "lattice": {"matrix": [[5.95498301, 1e-08, 0.0], [-2.97749099, 5.15716677, -0.0], [0.0, -0.0, 4.80581012]], "pbc": [true, true, true], "a": 5.95498301, "b": 5.954982929372965, "c": 4.80581012, "alpha": 90.0, "beta": 90.0, "gamma": 119.99999463004978, "volume": 147.59046818808545}, "properties": {}, "sites": [{"species": [{"element": "Ti", "occu": 1}], "abc": [0.16163075, 0.3232635, 0.25], "properties": {"magmom": 0.023}, "label": "Ti", "xyz": [-5.788502307479959e-06, 1.6671237817702025, 1.20145253]}, {"species": [{"element": "Ti", "occu": 1}], "abc": [0.676735499999999, 0.8383692500000001, 0.25], "properties": {"magmom": 0.023}, "label": "Ti", "xyz": [1.5337115165957913, 4.323610043857178, 1.20145253]}, {"species": [{"element": "Ti", "occu": 1}], "abc": [0.16163275, 0.8383692500000001, 0.25], "properties": {"magmom": 0.023}, "label": "Ti", "xyz": [-1.5337166080584805, 4.323610038706151, 1.20145253]}, {"species": [{"element": "Ti", "occu": 1}], "abc": [0.83836825, 0.6767345, 0.75], "properties": {"magmom": 0.023}, "label": "Ti", "xyz": [2.977497808501278, 3.4900326838962474, 3.6043575900000002]}, {"species": [{"element": "Ti", "occu": 1}], "abc": [0.3232655, 0.16163275, 0.75], "properties": {"magmom": 0.023}, "label": "Ti", "xyz": [1.4437805034052325, 0.8335670504763725, 3.6043575900000002]}, {"species": [{"element": "Ti", "occu": 1}], "abc": [0.83836825, 0.16163275, 0.75], "properties": {"magmom": 0.023}, "label": "Ti", "xyz": [4.511208628059511, 0.8335670556274, 3.6043575900000002]}, {"species": [{"element": "Pb", "occu": 1}], "abc": [0.333333999999999, 0.666667, 0.75], "properties": {"magmom": -0.002}, "label": "Pb", "xyz": [3.320825004093919e-06, 3.4381129023889296, 3.6043575900000002]}, {"species": [{"element": "Pb", "occu": 1}], "abc": [0.666666, 0.333333, 0.25], "properties": {"magmom": -0.002}, "label": "Pb", "xyz": [2.97748869917499, 1.7190538776110698, 1.20145253]}]}, "task_ids": null, "uncorrected_energy_per_atom": null, "energy_per_atom": -23.876354945, "formation_energy_per_atom": -0.10175365749999701, "energy_above_hull": 0.0, "is_stable": true, "equilibrium_reaction_energy_per_atom": null, "decomposes_to": null, "xas": null, "grain_boundaries": null, "band_gap": 0.0, "cbm": null, "vbm": null, "efermi": 7.33551969, "is_gap_direct": null, "is_metal": null, "es_source_calc_id": null, "bandstructure": null, "dos": null, "dos_energy_up": null, "dos_energy_down": null, "is_magnetic": null, "ordering": null, "total_magnetization": 0.166204699999999, "total_magnetization_normalized_vol": null, "total_magnetization_normalized_formula_units": null, "num_magnetic_sites": null, "num_unique_magnetic_sites": null, "types_of_magnetic_species": null, "bulk_modulus": null, "shear_modulus": null, "universal_anisotropy": null, "homogeneous_poisson": null, "e_total": null, "e_ionic": null, "e_electronic": null, "n": null, "e_ij_max": null, "weighted_surface_energy_EV_PER_ANG2": null, "weighted_surface_energy": null, "weighted_work_function": null, "surface_anisotropy": null, "shape_factor": null, "has_reconstructed": null, "possible_species": null, "has_props": null, "theoretical": null, "database_IDs": null, "fields_not_requested": ["builder_meta", "nsites", "elements", "nelements", "composition", "composition_reduced", "chemsys", "symmetry", "property_name", "deprecated", "deprecation_reasons", "last_updated", "origins", "warnings", "task_ids", "uncorrected_energy_per_atom", "equilibrium_reaction_energy_per_atom", "decomposes_to", "xas", "grain_boundaries", "cbm", "vbm", "is_gap_direct", "is_metal", "es_source_calc_id", "bandstructure", "dos", "dos_energy_up", "dos_energy_down", "is_magnetic", "ordering", "total_magnetization_normalized_vol", "total_magnetization_normalized_formula_units", "num_magnetic_sites", "num_unique_magnetic_sites", "types_of_magnetic_species", "bulk_modulus", "shear_modulus", "universal_anisotropy", "homogeneous_poisson", "e_total", "e_ionic", "e_electronic", "n", "e_ij_max", "weighted_surface_energy_EV_PER_ANG2", "weighted_surface_energy", "weighted_work_function", "surface_anisotropy", "shape_factor", "has_reconstructed", "possible_species", "has_props", "theoretical", "database_IDs"]}