{
  "builder_meta": null,
  "nsites": null,
  "elements": null,
  "nelements": null,
  "composition": null,
  "composition_reduced": null,
  "formula_pretty": "Ti3Pt5",
  "formula_anonymous": "A3B5",
  "chemsys": null,
  "volume": 246.5587669134329,
  "density": 15.072902173445792,
  "density_atomic": 15.409922932089556,
  "symmetry": null,
  "property_name": null,
  "material_id": "mp-30851",
  "deprecated": null,
  "deprecation_reasons": null,
  "last_updated": null,
  "origins": null,
  "warnings": null,
  "structure": {
    "@module": "pymatgen.core.structure",
    "@class": "Structure",
    "charge": 0,
    "lattice": {
      "matrix": [
        [5.06648692, 1e-8, 2.01749431],
        [1.8124435700000001, 6.58294044, 2.81887505],
        [-0.00655418, -0.00957402, 7.38687862]
      ],
      "pbc": [true, true, true],
      "a": 5.453400132157319,
      "b": 7.3868879156607115,
      "c": 7.38688773203895,
      "alpha": 67.65194399019836,
      "beta": 68.33822142690852,
      "gamma": 68.33821103001118,
      "volume": 246.5587669134329
    },
    "properties": {},
    "sites": [
      {
        "species": [{ "element": "Ti", "occu": 1 }],
        "abc": [0.14643976, 0.64533954, 0.64533954],
        "properties": { "magmom": 0.0 },
        "label": "Ti",
        "xyz": [1.9073469568414199, 4.2420532631986445, 6.881617761308878]
      },
      {
        "species": [{ "element": "Ti", "occu": 1 }],
        "abc": [0.43711783, 0.8546604600000001, 0.8546604600000001],
        "properties": { "magmom": 0.0 },
        "label": "Ti",
        "xyz": [3.7580740249603033, 5.617996372636932, 9.604336861073435]
      },
      {
        "species": [{ "element": "Ti", "occu": 1 }],
        "abc": [0.85356024, 0.35466046, 0.35466046],
        "properties": { "magmom": 0.0 },
        "label": "Ti",
        "xyz": [4.965029353158581, 2.3313131668013556, 5.341630218691122]
      },
      {
        "species": [{ "element": "Ti", "occu": 1 }],
        "abc": [0.56288217, 0.14533954, 0.14533954],
        "properties": { "magmom": 0.0 },
        "label": "Ti",
        "xyz": [3.114302285039697, 0.9553700573630685, 2.6189111189265644]
      },
      {
        "species": [{ "element": "Ti", "occu": 1 }],
        "abc": [-0.0, 0.25, 0.75],
        "properties": { "magmom": -0.0 },
        "label": "Ti",
        "xyz": [0.44819525750000005, 1.638554595, 6.2448777275]
      },
      {
        "species": [{ "element": "Ti", "occu": 1 }],
        "abc": [-0.0, 0.75, 0.25],
        "properties": { "magmom": -0.0 },
        "label": "Ti",
        "xyz": [1.3576941325, 4.934811825, 3.9608759425000004]
      },
      {
        "species": [{ "element": "Pt", "occu": 1 }],
        "abc": [0.10852909000000001, 0.10295973, 0.10295973],
        "properties": { "magmom": 0.0 },
        "label": "Pt",
        "xyz": [0.7357950989287676, 0.6767920328795575, 1.269738463854187]
      },
      {
        "species": [{ "element": "Pt", "occu": 1 }],
        "abc": [0.31444556, 0.39704027000000003, 0.39704027000000003],
        "properties": { "magmom": 0.0 },
        "label": "Pt",
        "xyz": [2.3101451277878104, 2.6098911813501893, 4.686487320795055]
      },
      {
        "species": [{ "element": "Pt", "occu": 1 }],
        "abc": [0.89147091, 0.89704027, 0.89704027],
        "properties": { "magmom": 0.0 },
        "label": "Pt",
        "xyz": [6.136581211071232, 5.896574397120442, 10.953509516145813]
      },
      {
        "species": [{ "element": "Pt", "occu": 1 }],
        "abc": [0.68555544, 0.60295973, 0.60295973],
        "properties": { "magmom": 0.0 },
        "label": "Pt",
        "xyz": [4.562236248699111, 3.963475248649821, 7.536762676699256]
      },
      {
        "species": [{ "element": "Pt", "occu": 1 }],
        "abc": [0.7571534, 0.492846599999999, 0.992846599999999],
        "properties": { "magmom": -0.0 },
        "label": "Pt",
        "xyz": [4.7228571533711, 3.2348742882226995, 10.250862982994166]
      },
      {
        "species": [{ "element": "Pt", "occu": 1 }],
        "abc": [0.2428466, 0.0071534, 0.5071534],
        "properties": { "magmom": -0.0 },
        "label": "Pt",
        "xyz": [1.240020281628898, 0.04223491177729399, 4.256386782005824]
      },
      {
        "species": [{ "element": "Pt", "occu": 1 }],
        "abc": [0.2428466, 0.5071534, 0.0071534],
        "properties": { "magmom": -0.0 },
        "label": "Pt",
        "xyz": [2.149519156628898, 3.338492141777294, 1.9723849970058238]
      },
      {
        "species": [{ "element": "Pt", "occu": 1 }],
        "abc": [0.7571534, 0.992846599999999, 0.492846599999999],
        "properties": { "magmom": -0.0 },
        "label": "Pt",
        "xyz": [5.6323560283711, 6.531131518222699, 7.966861197994166]
      },
      {
        "species": [{ "element": "Pt", "occu": 1 }],
        "abc": [0.5, 0.75, 0.25],
        "properties": { "magmom": -0.0 },
        "label": "Pt",
        "xyz": [3.8909375925, 4.93481183, 4.9696230975]
      },
      {
        "species": [{ "element": "Pt", "occu": 1 }],
        "abc": [0.5, 0.25, 0.75],
        "properties": { "magmom": -0.0 },
        "label": "Pt",
        "xyz": [2.9814387175, 1.6385546, 7.2536248825]
      }
    ]
  },
  "task_ids": null,
  "uncorrected_energy_per_atom": null,
  "energy_per_atom": -38.0579977125,
  "formation_energy_per_atom": -1.026515769999996,
  "energy_above_hull": 0.0,
  "is_stable": true,
  "equilibrium_reaction_energy_per_atom": null,
  "decomposes_to": null,
  "xas": null,
  "grain_boundaries": null,
  "band_gap": 0.0,
  "cbm": null,
  "vbm": null,
  "efermi": 7.43142856,
  "is_gap_direct": null,
  "is_metal": null,
  "es_source_calc_id": null,
  "bandstructure": null,
  "dos": null,
  "dos_energy_up": null,
  "dos_energy_down": null,
  "is_magnetic": null,
  "ordering": null,
  "total_magnetization": 5e-7,
  "total_magnetization_normalized_vol": null,
  "total_magnetization_normalized_formula_units": null,
  "num_magnetic_sites": null,
  "num_unique_magnetic_sites": null,
  "types_of_magnetic_species": null,
  "bulk_modulus": null,
  "shear_modulus": null,
  "universal_anisotropy": null,
  "homogeneous_poisson": null,
  "e_total": null,
  "e_ionic": null,
  "e_electronic": null,
  "n": null,
  "e_ij_max": null,
  "weighted_surface_energy_EV_PER_ANG2": null,
  "weighted_surface_energy": null,
  "weighted_work_function": null,
  "surface_anisotropy": null,
  "shape_factor": null,
  "has_reconstructed": null,
  "possible_species": null,
  "has_props": null,
  "theoretical": null,
  "database_IDs": null,
  "fields_not_requested": [
    "builder_meta",
    "nsites",
    "elements",
    "nelements",
    "composition",
    "composition_reduced",
    "chemsys",
    "symmetry",
    "property_name",
    "deprecated",
    "deprecation_reasons",
    "last_updated",
    "origins",
    "warnings",
    "task_ids",
    "uncorrected_energy_per_atom",
    "equilibrium_reaction_energy_per_atom",
    "decomposes_to",
    "xas",
    "grain_boundaries",
    "cbm",
    "vbm",
    "is_gap_direct",
    "is_metal",
    "es_source_calc_id",
    "bandstructure",
    "dos",
    "dos_energy_up",
    "dos_energy_down",
    "is_magnetic",
    "ordering",
    "total_magnetization_normalized_vol",
    "total_magnetization_normalized_formula_units",
    "num_magnetic_sites",
    "num_unique_magnetic_sites",
    "types_of_magnetic_species",
    "bulk_modulus",
    "shear_modulus",
    "universal_anisotropy",
    "homogeneous_poisson",
    "e_total",
    "e_ionic",
    "e_electronic",
    "n",
    "e_ij_max",
    "weighted_surface_energy_EV_PER_ANG2",
    "weighted_surface_energy",
    "weighted_work_function",
    "surface_anisotropy",
    "shape_factor",
    "has_reconstructed",
    "possible_species",
    "has_props",
    "theoretical",
    "database_IDs"
  ]
}
