{
  "builder_meta": null,
  "nsites": null,
  "elements": null,
  "nelements": null,
  "composition": null,
  "composition_reduced": null,
  "formula_pretty": "Ti3Rh5",
  "formula_anonymous": "A3B5",
  "chemsys": null,
  "volume": 230.55847958411888,
  "density": 9.480007736554613,
  "density_atomic": 14.40990497400743,
  "symmetry": null,
  "property_name": null,
  "material_id": "mp-17413",
  "deprecated": null,
  "deprecation_reasons": null,
  "last_updated": null,
  "origins": null,
  "warnings": null,
  "structure": {
    "@module": "pymatgen.core.structure",
    "@class": "Structure",
    "charge": 0,
    "lattice": {
      "matrix": [
        [4.11055216, 0.0, 0.0],
        [0.0, 5.37826891, -0.0],
        [0.0, -0.0, 10.42889808]
      ],
      "pbc": [true, true, true],
      "a": 4.11055216,
      "b": 5.37826891,
      "c": 10.42889808,
      "alpha": 90.0,
      "beta": 90.0,
      "gamma": 90.0,
      "volume": 230.55847958411888
    },
    "properties": {},
    "sites": [
      {
        "species": [{ "element": "Ti", "occu": 1 }],
        "abc": [0.0, -0.0, -0.0],
        "properties": { "magmom": -0.0 },
        "label": "Ti",
        "xyz": [0.0, 0.0, 0.0]
      },
      {
        "species": [{ "element": "Ti", "occu": 1 }],
        "abc": [0.0, 0.5, 0.5],
        "properties": { "magmom": -0.0 },
        "label": "Ti",
        "xyz": [0.0, 2.689134455, 5.21444904]
      },
      {
        "species": [{ "element": "Ti", "occu": 1 }],
        "abc": [0.5, 0.33932374, 0.14378038],
        "properties": { "magmom": -0.0 },
        "label": "Ti",
        "xyz": [2.05527608, 1.8249743212669234, 1.4994709289236705]
      },
      {
        "species": [{ "element": "Ti", "occu": 1 }],
        "abc": [0.5, 0.66067626, 0.8562196200000001],
        "properties": { "magmom": -0.0 },
        "label": "Ti",
        "xyz": [2.05527608, 3.5532945887330767, 8.92942715107633]
      },
      {
        "species": [{ "element": "Ti", "occu": 1 }],
        "abc": [0.5, 0.83932374, 0.35621962],
        "properties": { "magmom": -0.0 },
        "label": "Ti",
        "xyz": [2.05527608, 4.514108776266923, 3.71497811107633]
      },
      {
        "species": [{ "element": "Ti", "occu": 1 }],
        "abc": [0.5, 0.16067626000000002, 0.64378038],
        "properties": { "magmom": -0.0 },
        "label": "Ti",
        "xyz": [2.05527608, 0.8641601337330767, 6.713919968923671]
      },
      {
        "species": [{ "element": "Rh", "occu": 1 }],
        "abc": [0.0, -0.0, 0.5],
        "properties": { "magmom": 0.0 },
        "label": "Rh",
        "xyz": [0.0, 0.0, 5.21444904]
      },
      {
        "species": [{ "element": "Rh", "occu": 1 }],
        "abc": [0.0, 0.5, -0.0],
        "properties": { "magmom": 0.0 },
        "label": "Rh",
        "xyz": [0.0, 2.689134455, 0.0]
      },
      {
        "species": [{ "element": "Rh", "occu": 1 }],
        "abc": [-0.0, 0.10507657000000001, 0.23528746],
        "properties": { "magmom": 0.0 },
        "label": "Rh",
        "xyz": [0.0, 0.5651300496004388, 2.453788939842077]
      },
      {
        "species": [{ "element": "Rh", "occu": 1 }],
        "abc": [0.0, 0.89492343, 0.76471254],
        "properties": { "magmom": 0.0 },
        "label": "Rh",
        "xyz": [0.0, 4.813138860399561, 7.975109140157923]
      },
      {
        "species": [{ "element": "Rh", "occu": 1 }],
        "abc": [0.0, 0.60507657, 0.26471254],
        "properties": { "magmom": 0.0 },
        "label": "Rh",
        "xyz": [0.0, 3.254264504600439, 2.760660100157923]
      },
      {
        "species": [{ "element": "Rh", "occu": 1 }],
        "abc": [-0.0, 0.39492343, 0.73528746],
        "properties": { "magmom": 0.0 },
        "label": "Rh",
        "xyz": [0.0, 2.1240044053995613, 7.668237979842076]
      },
      {
        "species": [{ "element": "Rh", "occu": 1 }],
        "abc": [0.5, 0.31252059, 0.39311353],
        "properties": { "magmom": 0.0 },
        "label": "Rh",
        "xyz": [2.05527608, 1.6808197729318568, 4.099740938239022]
      },
      {
        "species": [{ "element": "Rh", "occu": 1 }],
        "abc": [0.5, 0.68747941, 0.6068864700000001],
        "properties": { "magmom": 0.0 },
        "label": "Rh",
        "xyz": [2.05527608, 3.6974491370681433, 6.329157141760978]
      },
      {
        "species": [{ "element": "Rh", "occu": 1 }],
        "abc": [0.5, 0.81252059, 0.10688647],
        "properties": { "magmom": 0.0 },
        "label": "Rh",
        "xyz": [2.05527608, 4.369954227931857, 1.1147081017609775]
      },
      {
        "species": [{ "element": "Rh", "occu": 1 }],
        "abc": [0.5, 0.18747941, 0.89311353],
        "properties": { "magmom": 0.0 },
        "label": "Rh",
        "xyz": [2.05527608, 1.0083146820681432, 9.314189978239023]
      }
    ]
  },
  "task_ids": null,
  "uncorrected_energy_per_atom": null,
  "energy_per_atom": -8.339382123749992,
  "formation_energy_per_atom": -0.775880198749991,
  "energy_above_hull": 0.0,
  "is_stable": true,
  "equilibrium_reaction_energy_per_atom": null,
  "decomposes_to": null,
  "xas": null,
  "grain_boundaries": null,
  "band_gap": 0.0,
  "cbm": null,
  "vbm": null,
  "efermi": 6.87810804,
  "is_gap_direct": null,
  "is_metal": null,
  "es_source_calc_id": null,
  "bandstructure": null,
  "dos": null,
  "dos_energy_up": null,
  "dos_energy_down": null,
  "is_magnetic": null,
  "ordering": null,
  "total_magnetization": 1e-7,
  "total_magnetization_normalized_vol": null,
  "total_magnetization_normalized_formula_units": null,
  "num_magnetic_sites": null,
  "num_unique_magnetic_sites": null,
  "types_of_magnetic_species": null,
  "bulk_modulus": null,
  "shear_modulus": null,
  "universal_anisotropy": null,
  "homogeneous_poisson": null,
  "e_total": null,
  "e_ionic": null,
  "e_electronic": null,
  "n": null,
  "e_ij_max": null,
  "weighted_surface_energy_EV_PER_ANG2": null,
  "weighted_surface_energy": null,
  "weighted_work_function": null,
  "surface_anisotropy": null,
  "shape_factor": null,
  "has_reconstructed": null,
  "possible_species": null,
  "has_props": null,
  "theoretical": null,
  "database_IDs": null,
  "fields_not_requested": [
    "builder_meta",
    "nsites",
    "elements",
    "nelements",
    "composition",
    "composition_reduced",
    "chemsys",
    "symmetry",
    "property_name",
    "deprecated",
    "deprecation_reasons",
    "last_updated",
    "origins",
    "warnings",
    "task_ids",
    "uncorrected_energy_per_atom",
    "equilibrium_reaction_energy_per_atom",
    "decomposes_to",
    "xas",
    "grain_boundaries",
    "cbm",
    "vbm",
    "is_gap_direct",
    "is_metal",
    "es_source_calc_id",
    "bandstructure",
    "dos",
    "dos_energy_up",
    "dos_energy_down",
    "is_magnetic",
    "ordering",
    "total_magnetization_normalized_vol",
    "total_magnetization_normalized_formula_units",
    "num_magnetic_sites",
    "num_unique_magnetic_sites",
    "types_of_magnetic_species",
    "bulk_modulus",
    "shear_modulus",
    "universal_anisotropy",
    "homogeneous_poisson",
    "e_total",
    "e_ionic",
    "e_electronic",
    "n",
    "e_ij_max",
    "weighted_surface_energy_EV_PER_ANG2",
    "weighted_surface_energy",
    "weighted_work_function",
    "surface_anisotropy",
    "shape_factor",
    "has_reconstructed",
    "possible_species",
    "has_props",
    "theoretical",
    "database_IDs"
  ]
}
