{"builder_meta": null, "nsites": null, "elements": null, "nelements": null, "composition": null, "composition_reduced": null, "formula_pretty": "Ti3Se4", "formula_anonymous": "A3B4", "chemsys": null, "volume": 303.6260089026382, "density": 5.025391151799588, "density_atomic": 21.687572064474157, "symmetry": null, "property_name": null, "material_id": "mp-9227", "deprecated": null, "deprecation_reasons": null, "last_updated": null, "origins": null, "warnings": null, "structure": {"@module": "pymatgen.core.structure", "@class": "Structure", "charge": 0, "lattice": {"matrix": [[9.9011554, 0.00074317, -0.0], [-4.95122198, 8.57428038, -0.0], [-0.0, -0.0, 3.5763218]], "pbc": [true, true, true], "a": 9.901155427890767, "b": 9.9011556461904, "c": 3.5763218, "alpha": 90.0, "beta": 90.0, "gamma": 120.00000378709545, "volume": 303.6260089026382}, "properties": {}, "sites": [{"species": [{"element": "Ti", "occu": 1}], "abc": [0.51099701, 0.64221136, 0.75], "properties": {"magmom": 0.0}, "label": "Ti", "xyz": [1.879729803507661, 5.506880021509039, 2.68224135]}, {"species": [{"element": "Ti", "occu": 1}], "abc": [0.86878564, 0.51099701, 0.25], "properties": {"magmom": 0.0}, "label": "Ti", "xyz": [6.071922003302177, 4.382077292505742, 0.89408045]}, {"species": [{"element": "Ti", "occu": 1}], "abc": [0.64221136, 0.13121436, 0.25], "properties": {"magmom": 0.0}, "label": "Ti", "xyz": [5.708963051681712, 1.125545984738668, 0.89408045]}, {"species": [{"element": "Ti", "occu": 1}], "abc": [0.35778864, 0.86878564, 0.75], "properties": {"magmom": 0.0}, "label": "Ti", "xyz": [-0.7590296316817109, 7.449477565261331, 2.68224135]}, {"species": [{"element": "Ti", "occu": 1}], "abc": [0.13121436, 0.48900299, 0.75], "properties": {"magmom": 0.0}, "label": "Ti", "xyz": [-1.121988583302176, 4.192946257494257, 2.68224135]}, {"species": [{"element": "Ti", "occu": 1}], "abc": [0.48900299, 0.35778864, 0.25], "properties": {"magmom": 0.0}, "label": "Ti", "xyz": [3.07020361649234, 3.0681435284909613, 0.89408045]}, {"species": [{"element": "Se", "occu": 1}], "abc": [0.64809691, 0.9511967100000001, 0.75], "properties": {"magmom": -0.0}, "label": "Se", "xyz": [1.7073221623141288, 8.156308934254154, 2.68224135]}, {"species": [{"element": "Se", "occu": 1}], "abc": [0.696899199999999, 0.64809691, 0.25], "properties": {"magmom": -0.0}, "label": "Se", "xyz": [3.6912356113735894, 5.55748253433009, 0.89408045]}, {"species": [{"element": "Se", "occu": 1}], "abc": [0.9511967100000001, 0.3031008, 0.25], "properties": {"magmom": -0.0}, "label": "Se", "xyz": [7.917227098563151, 2.5995781434612746, 0.89408045]}, {"species": [{"element": "Se", "occu": 1}], "abc": [0.04880329, 0.696899199999999, 0.75], "properties": {"magmom": -0.0}, "label": "Se", "xyz": [-2.967293678563145, 5.975445406538717, 2.68224135]}, {"species": [{"element": "Se", "occu": 1}], "abc": [0.3031008, 0.35190309000000003, 0.75], "properties": {"magmom": -0.0}, "label": "Se", "xyz": [1.2586978086264018, 3.0175410156699103, 2.68224135]}, {"species": [{"element": "Se", "occu": 1}], "abc": [0.35190309000000003, 0.04880329, 0.25], "properties": {"magmom": -0.0}, "label": "Se", "xyz": [3.2426112576858723, 0.41871461574584545, 0.89408045]}, {"species": [{"element": "Se", "occu": 1}], "abc": [0.333333, 0.666667, 0.25], "properties": {"magmom": -0.0}, "label": "Se", "xyz": [-0.00043447079245995113, 5.71643750117907, 0.89408045]}, {"species": [{"element": "Se", "occu": 1}], "abc": [0.666667, 0.333333, 0.75], "properties": {"magmom": -0.0}, "label": "Se", "xyz": [4.95036789079246, 2.8585860488209294, 2.68224135]}]}, "task_ids": null, "uncorrected_energy_per_atom": null, "energy_per_atom": -6.8648796942857135, "formation_energy_per_atom": -1.483433699910714, "energy_above_hull": 0.0, "is_stable": true, "equilibrium_reaction_energy_per_atom": null, "decomposes_to": null, "xas": null, "grain_boundaries": null, "band_gap": 0.0, "cbm": null, "vbm": null, "efermi": 4.52779107, "is_gap_direct": null, "is_metal": null, "es_source_calc_id": null, "bandstructure": null, "dos": null, "dos_energy_up": null, "dos_energy_down": null, "is_magnetic": null, "ordering": null, "total_magnetization": 1e-07, "total_magnetization_normalized_vol": null, "total_magnetization_normalized_formula_units": null, "num_magnetic_sites": null, "num_unique_magnetic_sites": null, "types_of_magnetic_species": null, "bulk_modulus": null, "shear_modulus": null, "universal_anisotropy": null, "homogeneous_poisson": null, "e_total": null, "e_ionic": null, "e_electronic": null, "n": null, "e_ij_max": null, "weighted_surface_energy_EV_PER_ANG2": null, "weighted_surface_energy": null, "weighted_work_function": null, "surface_anisotropy": null, "shape_factor": null, "has_reconstructed": null, "possible_species": null, "has_props": null, "theoretical": null, "database_IDs": null, "fields_not_requested": ["builder_meta", "nsites", "elements", "nelements", "composition", "composition_reduced", "chemsys", "symmetry", "property_name", "deprecated", "deprecation_reasons", "last_updated", "origins", "warnings", "task_ids", "uncorrected_energy_per_atom", "equilibrium_reaction_energy_per_atom", "decomposes_to", "xas", "grain_boundaries", "cbm", "vbm", "is_gap_direct", "is_metal", "es_source_calc_id", "bandstructure", "dos", "dos_energy_up", "dos_energy_down", "is_magnetic", "ordering", "total_magnetization_normalized_vol", "total_magnetization_normalized_formula_units", "num_magnetic_sites", "num_unique_magnetic_sites", "types_of_magnetic_species", "bulk_modulus", "shear_modulus", "universal_anisotropy", "homogeneous_poisson", "e_total", "e_ionic", "e_electronic", "n", "e_ij_max", "weighted_surface_energy_EV_PER_ANG2", "weighted_surface_energy", "weighted_work_function", "surface_anisotropy", "shape_factor", "has_reconstructed", "possible_species", "has_props", "theoretical", "database_IDs"]}