{"builder_meta": null, "nsites": null, "elements": null, "nelements": null, "composition": null, "composition_reduced": null, "formula_pretty": "Ti3Sn", "formula_anonymous": "AB3", "chemsys": null, "volume": 142.66353162152458, "density": 6.106363106928639, "density_atomic": 17.832941452690573, "symmetry": null, "property_name": null, "material_id": "mp-1079460", "deprecated": null, "deprecation_reasons": null, "last_updated": null, "origins": null, "warnings": null, "structure": {"@module": "pymatgen.core.structure", "@class": "Structure", "charge": 0, "lattice": {"matrix": [[0.0, -0.0, -4.7414388800000005], [-5.7327565400000005, 2e-08, 0.0], [2.866376739999999, 5.24854971, 0.0]], "pbc": [true, true, true], "a": 4.7414388800000005, "b": 5.7327565400000005, "c": 5.980249967514243, "alpha": 118.64016233867895, "beta": 90.0, "gamma": 90.0, "volume": 142.6635316215246}, "properties": {}, "sites": [{"species": [{"element": "Ti", "occu": 1}], "abc": [0.75, 0.82093195, 0.64186389], "properties": {"magmom": -0.022}, "label": "Ti", "xyz": [-2.8663792807155355, 3.368854550137611, -3.5560791600000003]}, {"species": [{"element": "Ti", "occu": 1}], "abc": [0.25, 0.17906805, 0.35813611], "properties": {"magmom": -0.022}, "label": "Ti", "xyz": [-5.1928446609395e-07, 1.879695179862389, -1.1853597200000001]}, {"species": [{"element": "Ti", "occu": 1}], "abc": [0.75, 0.8320095, 0.14641367], "properties": {"magmom": 0.014}, "label": "Ti", "xyz": [-4.350031164361094, 0.7684594418587256, -3.5560791600000003]}, {"species": [{"element": "Ti", "occu": 1}], "abc": [0.25, 0.68559583, 0.8535863300000001], "properties": {"magmom": 0.014}, "label": "Ti", "xyz": [-1.483653976335265, 4.480090298493382, -1.1853597200000001]}, {"species": [{"element": "Ti", "occu": 1}], "abc": [0.25, 0.1679905, 0.8535863300000001], "properties": {"magmom": 0.014}, "label": "Ti", "xyz": [1.4836513643610936, 4.480090288141275, -1.1853597200000001]}, {"species": [{"element": "Ti", "occu": 1}], "abc": [0.75, 0.31440417, 0.14641367], "properties": {"magmom": 0.014}, "label": "Ti", "xyz": [-1.3827258236647362, 0.768459431506619, -3.5560791600000003]}, {"species": [{"element": "Sn", "occu": 1}], "abc": [0.75, 0.33269892, 0.66539885], "properties": {"magmom": 0.0}, "label": "Sn", "xyz": [1.8769818110886405e-06, 3.4923789478558116, -3.5560791600000003]}, {"species": [{"element": "Sn", "occu": 1}], "abc": [0.25, 0.66730108, 0.33460115], "properties": {"magmom": 0.0}, "label": "Sn", "xyz": [-2.866381676981813, 1.756170782144188, -1.1853597200000001]}]}, "task_ids": null, "uncorrected_energy_per_atom": null, "energy_per_atom": -16.20891817125, "formation_energy_per_atom": -0.319054466250001, "energy_above_hull": 0.0, "is_stable": true, "equilibrium_reaction_energy_per_atom": null, "decomposes_to": null, "xas": null, "grain_boundaries": null, "band_gap": 0.0, "cbm": null, "vbm": null, "efermi": 7.5564491700000005, "is_gap_direct": null, "is_metal": null, "es_source_calc_id": null, "bandstructure": null, "dos": null, "dos_energy_up": null, "dos_energy_down": null, "is_magnetic": null, "ordering": null, "total_magnetization": 0.0136744, "total_magnetization_normalized_vol": null, "total_magnetization_normalized_formula_units": null, "num_magnetic_sites": null, "num_unique_magnetic_sites": null, "types_of_magnetic_species": null, "bulk_modulus": null, "shear_modulus": null, "universal_anisotropy": null, "homogeneous_poisson": null, "e_total": null, "e_ionic": null, "e_electronic": null, "n": null, "e_ij_max": null, "weighted_surface_energy_EV_PER_ANG2": null, "weighted_surface_energy": null, "weighted_work_function": null, "surface_anisotropy": null, "shape_factor": null, "has_reconstructed": null, "possible_species": null, "has_props": null, "theoretical": null, "database_IDs": null, "fields_not_requested": ["builder_meta", "nsites", "elements", "nelements", "composition", "composition_reduced", "chemsys", "symmetry", "property_name", "deprecated", "deprecation_reasons", "last_updated", "origins", "warnings", "task_ids", "uncorrected_energy_per_atom", "equilibrium_reaction_energy_per_atom", "decomposes_to", "xas", "grain_boundaries", "cbm", "vbm", "is_gap_direct", "is_metal", "es_source_calc_id", "bandstructure", "dos", "dos_energy_up", "dos_energy_down", "is_magnetic", "ordering", "total_magnetization_normalized_vol", "total_magnetization_normalized_formula_units", "num_magnetic_sites", "num_unique_magnetic_sites", "types_of_magnetic_species", "bulk_modulus", "shear_modulus", "universal_anisotropy", "homogeneous_poisson", "e_total", "e_ionic", "e_electronic", "n", "e_ij_max", "weighted_surface_energy_EV_PER_ANG2", "weighted_surface_energy", "weighted_work_function", "surface_anisotropy", "shape_factor", "has_reconstructed", "possible_species", "has_props", "theoretical", "database_IDs"]}