{
  "builder_meta": null,
  "nsites": null,
  "elements": null,
  "nelements": null,
  "composition": null,
  "composition_reduced": null,
  "formula_pretty": "Ti3S4",
  "formula_anonymous": "A3B4",
  "chemsys": null,
  "volume": 121.36253896456145,
  "density": 3.7197294571825372,
  "density_atomic": 17.337505566365923,
  "symmetry": null,
  "property_name": null,
  "material_id": "mp-1217101",
  "deprecated": null,
  "deprecation_reasons": null,
  "last_updated": null,
  "origins": null,
  "warnings": null,
  "structure": {
    "@module": "pymatgen.core.structure",
    "@class": "Structure",
    "charge": 0,
    "lattice": {
      "matrix": [
        [1.722192, -2.9829239999999992, 0.0],
        [1.722192, 2.9829239999999992, 0.0],
        [0.0, 0.0, 11.812203]
      ],
      "pbc": [true, true, true],
      "a": 3.4443839615582923,
      "b": 3.4443839615582923,
      "c": 11.812203,
      "alpha": 90.0,
      "beta": 90.0,
      "gamma": 119.99999926161458,
      "volume": 121.36253896456142
    },
    "properties": {},
    "sites": [
      {
        "species": [{ "element": "Ti", "occu": 1 }],
        "abc": [0.333333, 0.666667, 0.384893999999999],
        "properties": { "magmom": 0.001 },
        "label": "Ti",
        "xyz": [1.722192, 0.9943099886159997, 4.546446061481989]
      },
      {
        "species": [{ "element": "Ti", "occu": 1 }],
        "abc": [0.333333, 0.666667, 0.11136000000000001],
        "properties": { "magmom": 0.001 },
        "label": "Ti",
        "xyz": [1.722192, 0.9943099886159997, 1.31540692608]
      },
      {
        "species": [{ "element": "Ti", "occu": 1 }],
        "abc": [0.666667, 0.333333, 0.877197999999999],
        "properties": { "magmom": -0.001 },
        "label": "Ti",
        "xyz": [1.722192, -0.9943099886159997, 10.36164084719399]
      },
      {
        "species": [{ "element": "S", "occu": 1 }],
        "abc": [0.666667, 0.333333, 0.250907999999999],
        "properties": { "magmom": -0.0 },
        "label": "S",
        "xyz": [1.722192, -0.9943099886159997, 2.9637762303239885]
      },
      {
        "species": [{ "element": "S", "occu": 1 }],
        "abc": [0.333333, 0.666667, 0.758841],
        "properties": { "magmom": 0.0 },
        "label": "S",
        "xyz": [1.722192, 0.9943099886159997, 8.963583936723]
      },
      {
        "species": [{ "element": "S", "occu": 1 }],
        "abc": [0.0, 0.0, 0.501455],
        "properties": { "magmom": -0.0 },
        "label": "S",
        "xyz": [0.0, 0.0, 5.923288255365]
      },
      {
        "species": [{ "element": "S", "occu": 1 }],
        "abc": [0.0, 0.0, 0.00034399999999900005],
        "properties": { "magmom": -0.0 },
        "label": "S",
        "xyz": [0.0, 0.0, 0.004063397831988188]
      }
    ]
  },
  "task_ids": null,
  "uncorrected_energy_per_atom": null,
  "energy_per_atom": -7.35508069,
  "formation_energy_per_atom": -1.606521501428571,
  "energy_above_hull": 0.10292915214285601,
  "is_stable": false,
  "equilibrium_reaction_energy_per_atom": null,
  "decomposes_to": null,
  "xas": null,
  "grain_boundaries": null,
  "band_gap": 0.0,
  "cbm": null,
  "vbm": null,
  "efermi": 6.48696697,
  "is_gap_direct": null,
  "is_metal": null,
  "es_source_calc_id": null,
  "bandstructure": null,
  "dos": null,
  "dos_energy_up": null,
  "dos_energy_down": null,
  "is_magnetic": null,
  "ordering": null,
  "total_magnetization": 0.0025555,
  "total_magnetization_normalized_vol": null,
  "total_magnetization_normalized_formula_units": null,
  "num_magnetic_sites": null,
  "num_unique_magnetic_sites": null,
  "types_of_magnetic_species": null,
  "bulk_modulus": null,
  "shear_modulus": null,
  "universal_anisotropy": null,
  "homogeneous_poisson": null,
  "e_total": null,
  "e_ionic": null,
  "e_electronic": null,
  "n": null,
  "e_ij_max": null,
  "weighted_surface_energy_EV_PER_ANG2": null,
  "weighted_surface_energy": null,
  "weighted_work_function": null,
  "surface_anisotropy": null,
  "shape_factor": null,
  "has_reconstructed": null,
  "possible_species": null,
  "has_props": null,
  "theoretical": null,
  "database_IDs": null,
  "fields_not_requested": [
    "builder_meta",
    "nsites",
    "elements",
    "nelements",
    "composition",
    "composition_reduced",
    "chemsys",
    "symmetry",
    "property_name",
    "deprecated",
    "deprecation_reasons",
    "last_updated",
    "origins",
    "warnings",
    "task_ids",
    "uncorrected_energy_per_atom",
    "equilibrium_reaction_energy_per_atom",
    "decomposes_to",
    "xas",
    "grain_boundaries",
    "cbm",
    "vbm",
    "is_gap_direct",
    "is_metal",
    "es_source_calc_id",
    "bandstructure",
    "dos",
    "dos_energy_up",
    "dos_energy_down",
    "is_magnetic",
    "ordering",
    "total_magnetization_normalized_vol",
    "total_magnetization_normalized_formula_units",
    "num_magnetic_sites",
    "num_unique_magnetic_sites",
    "types_of_magnetic_species",
    "bulk_modulus",
    "shear_modulus",
    "universal_anisotropy",
    "homogeneous_poisson",
    "e_total",
    "e_ionic",
    "e_electronic",
    "n",
    "e_ij_max",
    "weighted_surface_energy_EV_PER_ANG2",
    "weighted_surface_energy",
    "weighted_work_function",
    "surface_anisotropy",
    "shape_factor",
    "has_reconstructed",
    "possible_species",
    "has_props",
    "theoretical",
    "database_IDs"
  ]
}
