{
  "builder_meta": null,
  "nsites": null,
  "elements": null,
  "nelements": null,
  "composition": null,
  "composition_reduced": null,
  "formula_pretty": "Ti3Sb",
  "formula_anonymous": "AB3",
  "chemsys": null,
  "volume": 143.13436942932628,
  "density": 6.157044028053836,
  "density_atomic": 17.891796178665786,
  "symmetry": null,
  "property_name": null,
  "material_id": "mp-1412",
  "deprecated": null,
  "deprecation_reasons": null,
  "last_updated": null,
  "origins": null,
  "warnings": null,
  "structure": {
    "@module": "pymatgen.core.structure",
    "@class": "Structure",
    "charge": 0,
    "lattice": {
      "matrix": [
        [5.23097607, 0.0, 0.0],
        [0.0, 5.23094826, 0.0],
        [0.0, 0.0, 5.23095244]
      ],
      "pbc": [true, true, true],
      "a": 5.23097607,
      "b": 5.23094826,
      "c": 5.23095244,
      "alpha": 90.0,
      "beta": 90.0,
      "gamma": 90.0,
      "volume": 143.13436942932628
    },
    "properties": {},
    "sites": [
      {
        "species": [{ "element": "Ti", "occu": 1 }],
        "abc": [0.5, 0.24999757, -0.0],
        "properties": { "magmom": 0.646 },
        "label": "Ti",
        "xyz": [2.615488035, 1.3077243537957282, 0.0]
      },
      {
        "species": [{ "element": "Ti", "occu": 1 }],
        "abc": [0.5, 0.75000243, 0.0],
        "properties": { "magmom": 0.646 },
        "label": "Ti",
        "xyz": [2.615488035, 3.9232239062042717, 0.0]
      },
      {
        "species": [{ "element": "Ti", "occu": 1 }],
        "abc": [0.250001, -0.0, 0.5],
        "properties": { "magmom": 0.646 },
        "label": "Ti",
        "xyz": [1.3077492484760698, 0.0, 2.61547622]
      },
      {
        "species": [{ "element": "Ti", "occu": 1 }],
        "abc": [0.749999, -0.0, 0.5],
        "properties": { "magmom": 0.646 },
        "label": "Ti",
        "xyz": [3.9232268215239294, 0.0, 2.61547622]
      },
      {
        "species": [{ "element": "Ti", "occu": 1 }],
        "abc": [-0.0, 0.5, 0.25000243],
        "properties": { "magmom": 0.646 },
        "label": "Ti",
        "xyz": [0.0, 2.61547413, 1.3077508212144293]
      },
      {
        "species": [{ "element": "Ti", "occu": 1 }],
        "abc": [-0.0, 0.5, 0.74999757],
        "properties": { "magmom": 0.646 },
        "label": "Ti",
        "xyz": [0.0, 2.61547413, 3.923201618785571]
      },
      {
        "species": [{ "element": "Sb", "occu": 1 }],
        "abc": [0.5, 0.5, 0.5],
        "properties": { "magmom": -0.063 },
        "label": "Sb",
        "xyz": [2.615488035, 2.61547413, 2.61547622]
      },
      {
        "species": [{ "element": "Sb", "occu": 1 }],
        "abc": [-0.0, -0.0, 0.0],
        "properties": { "magmom": -0.063 },
        "label": "Sb",
        "xyz": [0.0, 0.0, 0.0]
      }
    ]
  },
  "task_ids": null,
  "uncorrected_energy_per_atom": null,
  "energy_per_atom": -16.5624529625,
  "formation_energy_per_atom": -0.432556269999999,
  "energy_above_hull": 0.0,
  "is_stable": true,
  "equilibrium_reaction_energy_per_atom": null,
  "decomposes_to": null,
  "xas": null,
  "grain_boundaries": null,
  "band_gap": 0.0,
  "cbm": null,
  "vbm": null,
  "efermi": 7.8993664599999995,
  "is_gap_direct": null,
  "is_metal": null,
  "es_source_calc_id": null,
  "bandstructure": null,
  "dos": null,
  "dos_energy_up": null,
  "dos_energy_down": null,
  "is_magnetic": null,
  "ordering": null,
  "total_magnetization": 4.9264211,
  "total_magnetization_normalized_vol": null,
  "total_magnetization_normalized_formula_units": null,
  "num_magnetic_sites": null,
  "num_unique_magnetic_sites": null,
  "types_of_magnetic_species": null,
  "bulk_modulus": null,
  "shear_modulus": null,
  "universal_anisotropy": null,
  "homogeneous_poisson": null,
  "e_total": null,
  "e_ionic": null,
  "e_electronic": null,
  "n": null,
  "e_ij_max": null,
  "weighted_surface_energy_EV_PER_ANG2": null,
  "weighted_surface_energy": null,
  "weighted_work_function": null,
  "surface_anisotropy": null,
  "shape_factor": null,
  "has_reconstructed": null,
  "possible_species": null,
  "has_props": null,
  "theoretical": null,
  "database_IDs": null,
  "fields_not_requested": [
    "builder_meta",
    "nsites",
    "elements",
    "nelements",
    "composition",
    "composition_reduced",
    "chemsys",
    "symmetry",
    "property_name",
    "deprecated",
    "deprecation_reasons",
    "last_updated",
    "origins",
    "warnings",
    "task_ids",
    "uncorrected_energy_per_atom",
    "equilibrium_reaction_energy_per_atom",
    "decomposes_to",
    "xas",
    "grain_boundaries",
    "cbm",
    "vbm",
    "is_gap_direct",
    "is_metal",
    "es_source_calc_id",
    "bandstructure",
    "dos",
    "dos_energy_up",
    "dos_energy_down",
    "is_magnetic",
    "ordering",
    "total_magnetization_normalized_vol",
    "total_magnetization_normalized_formula_units",
    "num_magnetic_sites",
    "num_unique_magnetic_sites",
    "types_of_magnetic_species",
    "bulk_modulus",
    "shear_modulus",
    "universal_anisotropy",
    "homogeneous_poisson",
    "e_total",
    "e_ionic",
    "e_electronic",
    "n",
    "e_ij_max",
    "weighted_surface_energy_EV_PER_ANG2",
    "weighted_surface_energy",
    "weighted_work_function",
    "surface_anisotropy",
    "shape_factor",
    "has_reconstructed",
    "possible_species",
    "has_props",
    "theoretical",
    "database_IDs"
  ]
}
