{"builder_meta": null, "nsites": null, "elements": null, "nelements": null, "composition": null, "composition_reduced": null, "formula_pretty": "Ti3Te", "formula_anonymous": "AB3", "chemsys": null, "volume": 141.3186220430189, "density": 6.373397205414277, "density_atomic": 17.664827755377363, "symmetry": null, "property_name": null, "material_id": "mp-1187477", "deprecated": null, "deprecation_reasons": null, "last_updated": null, "origins": null, "warnings": null, "structure": {"@module": "pymatgen.core.structure", "@class": "Structure", "charge": 0, "lattice": {"matrix": [[2.909589, -5.039557, 0.0], [2.909589, 5.039557, 0.0], [0.0, 0.0, 4.818872]], "pbc": [true, true, true], "a": 5.819178885819716, "b": 5.819178885819716, "c": 4.818872, "alpha": 90.0, "beta": 90.0, "gamma": 120.00001007107024, "volume": 141.3186220430189}, "properties": {}, "sites": [{"species": [{"element": "Ti", "occu": 1}], "abc": [0.161108, 0.322215, 0.25], "properties": {"magmom": -0.006}, "label": "Ti", "xyz": [1.406271284247, 0.8119079095989999, 1.204718]}, {"species": [{"element": "Ti", "occu": 1}], "abc": [0.677785, 0.838892, 0.25], "properties": {"magmom": -0.006}, "label": "Ti", "xyz": [4.4129067157529995, 0.8119079095989998, 1.204718]}, {"species": [{"element": "Ti", "occu": 1}], "abc": [0.161108, 0.838892, 0.25], "properties": {"magmom": -0.006}, "label": "Ti", "xyz": [2.909589, 3.415731101688, 1.204718]}, {"species": [{"element": "Ti", "occu": 1}], "abc": [0.838892, 0.677785, 0.75], "properties": {"magmom": 0.01}, "label": "Ti", "xyz": [4.4129067157529995, -0.8119079095989998, 3.614154]}, {"species": [{"element": "Ti", "occu": 1}], "abc": [0.322215, 0.161108, 0.75], "properties": {"magmom": 0.01}, "label": "Ti", "xyz": [1.406271284247, -0.8119079095989999, 3.614154]}, {"species": [{"element": "Ti", "occu": 1}], "abc": [0.838892, 0.161108, 0.75], "properties": {"magmom": 0.01}, "label": "Ti", "xyz": [2.909589, -3.415731101688, 3.614154]}, {"species": [{"element": "Te", "occu": 1}], "abc": [0.333333, 0.666667, 0.75], "properties": {"magmom": -0.0}, "label": "Te", "xyz": [2.909589, 1.6798556930380002, 3.614154]}, {"species": [{"element": "Te", "occu": 1}], "abc": [0.666667, 0.333333, 0.25], "properties": {"magmom": 0.0}, "label": "Te", "xyz": [2.909589, -1.6798556930380002, 1.204718]}]}, "task_ids": null, "uncorrected_energy_per_atom": null, "energy_per_atom": -16.356400799791665, "formation_energy_per_atom": -0.298776962291665, "energy_above_hull": 0.127476194791668, "is_stable": false, "equilibrium_reaction_energy_per_atom": null, "decomposes_to": null, "xas": null, "grain_boundaries": null, "band_gap": 0.0, "cbm": null, "vbm": null, "efermi": 8.53052524, "is_gap_direct": null, "is_metal": null, "es_source_calc_id": null, "bandstructure": null, "dos": null, "dos_energy_up": null, "dos_energy_down": null, "is_magnetic": null, "ordering": null, "total_magnetization": 0.0179982, "total_magnetization_normalized_vol": null, "total_magnetization_normalized_formula_units": null, "num_magnetic_sites": null, "num_unique_magnetic_sites": null, "types_of_magnetic_species": null, "bulk_modulus": null, "shear_modulus": null, "universal_anisotropy": null, "homogeneous_poisson": null, "e_total": null, "e_ionic": null, "e_electronic": null, "n": null, "e_ij_max": null, "weighted_surface_energy_EV_PER_ANG2": null, "weighted_surface_energy": null, "weighted_work_function": null, "surface_anisotropy": null, "shape_factor": null, "has_reconstructed": null, "possible_species": null, "has_props": null, "theoretical": null, "database_IDs": null, "fields_not_requested": ["builder_meta", "nsites", "elements", "nelements", "composition", "composition_reduced", "chemsys", "symmetry", "property_name", "deprecated", "deprecation_reasons", "last_updated", "origins", "warnings", "task_ids", "uncorrected_energy_per_atom", "equilibrium_reaction_energy_per_atom", "decomposes_to", "xas", "grain_boundaries", "cbm", "vbm", "is_gap_direct", "is_metal", "es_source_calc_id", "bandstructure", "dos", "dos_energy_up", "dos_energy_down", "is_magnetic", "ordering", "total_magnetization_normalized_vol", "total_magnetization_normalized_formula_units", "num_magnetic_sites", "num_unique_magnetic_sites", "types_of_magnetic_species", "bulk_modulus", "shear_modulus", "universal_anisotropy", "homogeneous_poisson", "e_total", "e_ionic", "e_electronic", "n", "e_ij_max", "weighted_surface_energy_EV_PER_ANG2", "weighted_surface_energy", "weighted_work_function", "surface_anisotropy", "shape_factor", "has_reconstructed", "possible_species", "has_props", "theoretical", "database_IDs"]}