{
  "builder_meta": null,
  "nsites": null,
  "elements": null,
  "nelements": null,
  "composition": null,
  "composition_reduced": null,
  "formula_pretty": "Ti3Te4",
  "formula_anonymous": "A3B4",
  "chemsys": null,
  "volume": 175.39717053894142,
  "density": 6.191629014074407,
  "density_atomic": 25.056738648420204,
  "symmetry": null,
  "property_name": null,
  "material_id": "mp-15669",
  "deprecated": null,
  "deprecation_reasons": null,
  "last_updated": null,
  "origins": null,
  "warnings": null,
  "structure": {
    "@module": "pymatgen.core.structure",
    "@class": "Structure",
    "charge": 0,
    "lattice": {
      "matrix": [
        [3.75156841, -0.0, -1.00243953],
        [-0.86099099, 6.21031295, -3.22220833],
        [0.00569588, -0.0283887, 7.54254715]
      ],
      "pbc": [true, true, true],
      "a": 3.8831881935101404,
      "b": 7.0492495305330385,
      "c": 7.542602725273935,
      "alpha": 117.41964751483914,
      "beta": 104.9168579640216,
      "gamma": 89.99999496710748,
      "volume": 175.39717053894142
    },
    "properties": {},
    "sites": [
      {
        "species": [{ "element": "Ti", "occu": 1 }],
        "abc": [0.0, 0.0, 0.0],
        "properties": { "magmom": -0.92 },
        "label": "Ti",
        "xyz": [0.0, 0.0, 0.0]
      },
      {
        "species": [{ "element": "Ti", "occu": 1 }],
        "abc": [0.75074655, 0.70385023, 0.50149211],
        "properties": { "magmom": 0.872 },
        "label": "Ti",
        "xyz": [2.213324773436565, 4.356893489166321, 0.7619977921184491]
      },
      {
        "species": [{ "element": "Ti", "occu": 1 }],
        "abc": [0.24925345000000002, 0.29614977, 0.49850789],
        "properties": { "magmom": 0.872 },
        "label": "Ti",
        "xyz": [0.6829485265634354, 1.8250307608336782, 2.5559014978815506]
      },
      {
        "species": [{ "element": "Te", "occu": 1 }],
        "abc": [0.63544924, 0.96658995, 0.27089748],
        "properties": { "magmom": -0.012 },
        "label": "Te",
        "xyz": [1.5532490565063406, 5.9951356565343765, -1.708296610352558]
      },
      {
        "species": [{ "element": "Te", "occu": 1 }],
        "abc": [0.36455076000000003, 0.033410050000000004, 0.72910252],
        "properties": { "magmom": -0.012 },
        "label": "Te",
        "xyz": [1.34302424349366, 0.1867885934656235, 5.026195900352559]
      },
      {
        "species": [{ "element": "Te", "occu": 1 }],
        "abc": [0.10992316, 0.45167662000000003, 0.21984833],
        "properties": { "magmom": -0.038 },
        "label": "Te",
        "xyz": [0.024746984075602215, 2.798811954112358, 0.09262890659700007]
      },
      {
        "species": [{ "element": "Te", "occu": 1 }],
        "abc": [0.89007684, 0.54832338, 0.78015167],
        "properties": { "magmom": -0.038 },
        "label": "Te",
        "xyz": [2.8715263159243976, 3.383112295887642, 3.225270383402999]
      }
    ]
  },
  "task_ids": null,
  "uncorrected_energy_per_atom": null,
  "energy_per_atom": -20.925332528571428,
  "formation_energy_per_atom": -0.856451345714284,
  "energy_above_hull": 0.0,
  "is_stable": true,
  "equilibrium_reaction_energy_per_atom": null,
  "decomposes_to": null,
  "xas": null,
  "grain_boundaries": null,
  "band_gap": 0.0,
  "cbm": null,
  "vbm": null,
  "efermi": 7.22397722,
  "is_gap_direct": null,
  "is_metal": null,
  "es_source_calc_id": null,
  "bandstructure": null,
  "dos": null,
  "dos_energy_up": null,
  "dos_energy_down": null,
  "is_magnetic": null,
  "ordering": null,
  "total_magnetization": 0.8947073,
  "total_magnetization_normalized_vol": null,
  "total_magnetization_normalized_formula_units": null,
  "num_magnetic_sites": null,
  "num_unique_magnetic_sites": null,
  "types_of_magnetic_species": null,
  "bulk_modulus": null,
  "shear_modulus": null,
  "universal_anisotropy": null,
  "homogeneous_poisson": null,
  "e_total": null,
  "e_ionic": null,
  "e_electronic": null,
  "n": null,
  "e_ij_max": null,
  "weighted_surface_energy_EV_PER_ANG2": null,
  "weighted_surface_energy": null,
  "weighted_work_function": null,
  "surface_anisotropy": null,
  "shape_factor": null,
  "has_reconstructed": null,
  "possible_species": null,
  "has_props": null,
  "theoretical": null,
  "database_IDs": null,
  "fields_not_requested": [
    "builder_meta",
    "nsites",
    "elements",
    "nelements",
    "composition",
    "composition_reduced",
    "chemsys",
    "symmetry",
    "property_name",
    "deprecated",
    "deprecation_reasons",
    "last_updated",
    "origins",
    "warnings",
    "task_ids",
    "uncorrected_energy_per_atom",
    "equilibrium_reaction_energy_per_atom",
    "decomposes_to",
    "xas",
    "grain_boundaries",
    "cbm",
    "vbm",
    "is_gap_direct",
    "is_metal",
    "es_source_calc_id",
    "bandstructure",
    "dos",
    "dos_energy_up",
    "dos_energy_down",
    "is_magnetic",
    "ordering",
    "total_magnetization_normalized_vol",
    "total_magnetization_normalized_formula_units",
    "num_magnetic_sites",
    "num_unique_magnetic_sites",
    "types_of_magnetic_species",
    "bulk_modulus",
    "shear_modulus",
    "universal_anisotropy",
    "homogeneous_poisson",
    "e_total",
    "e_ionic",
    "e_electronic",
    "n",
    "e_ij_max",
    "weighted_surface_energy_EV_PER_ANG2",
    "weighted_surface_energy",
    "weighted_work_function",
    "surface_anisotropy",
    "shape_factor",
    "has_reconstructed",
    "possible_species",
    "has_props",
    "theoretical",
    "database_IDs"
  ]
}
