{"builder_meta": null, "nsites": null, "elements": null, "nelements": null, "composition": null, "composition_reduced": null, "formula_pretty": "Ti4As3", "formula_anonymous": "A3B4", "chemsys": null, "volume": 225.51196943546904, "density": 6.129792817033467, "density_atomic": 16.107997816819218, "symmetry": null, "property_name": null, "material_id": "mp-567082", "deprecated": null, "deprecation_reasons": null, "last_updated": null, "origins": null, "warnings": null, "structure": {"@module": "pymatgen.core.structure", "@class": "Structure", "charge": 0, "lattice": {"matrix": [[6.26163864, -1.0600000000000002e-05, -2.21383275], [-3.13083033, 5.42273052, -2.21383257], [-7.129999999999999e-06, -1.2270000000000001e-05, 6.64147672]], "pbc": [true, true, true], "a": 6.641473774925712, "b": 6.641472690283398, "c": 6.641476720015161, "alpha": 109.47135786286717, "beta": 109.47135679581545, "gamma": 109.47132401749408, "volume": 225.51196943546904}, "properties": {}, "sites": [{"species": [{"element": "Ti", "occu": 1}], "abc": [-9.649999999999996e-06, 0.35038492, 0.49999096], "properties": {"magmom": 0.0}, "label": "Ti", "xyz": [-1.0970597244590443, 1.900036864644969, 2.5450061366036443]}, {"species": [{"element": "Ti", "occu": 1}], "abc": [0.5000044, 1.254e-05, 0.35039377], "properties": {"magmom": 0.0}, "label": "Ti", "xyz": [3.130805112290098, 5.84016625229e-05, 1.2201781889635066]}, {"species": [{"element": "Ti", "occu": 1}], "abc": [0.85042068, 0.49999571000000004, 0.99999392], "properties": {"magmom": 0.0}, "label": "Ti", "xyz": [3.7596181264485415, 2.711320712101463, 3.6518403995019977]}, {"species": [{"element": "Ti", "occu": 1}], "abc": [0.1496084, 0.1496091, 0.14961904], "properties": {"magmom": 0.0}, "label": "Ti", "xyz": [0.4683919636008178, 0.8112864109650711, 0.3312738970852618]}, {"species": [{"element": "Ti", "occu": 1}], "abc": [0.50001225, 6.73e-06, 0.85042505], "properties": {"magmom": 0.0}, "label": "Ti", "xyz": [3.1308688910546127, 2.07601311861e-05, 4.541119778135453]}, {"species": [{"element": "Ti", "occu": 1}], "abc": [0.64958053, 0.64957424, 0.64958576], "properties": {"magmom": 0.0}, "label": "Ti", "xyz": [2.033727182714511, 3.522451200282912, 1.438097442462153]}, {"species": [{"element": "Ti", "occu": 1}], "abc": [-9.1e-07, 0.85041623, 0.49999306], "properties": {"magmom": 0.0}, "label": "Ti", "xyz": [-2.6625181890499365, 4.611571910219139, 1.4380151347087544]}, {"species": [{"element": "Ti", "occu": 1}], "abc": [0.35038589000000003, 0.50000228, -1.91e-06], "properties": {"magmom": 0.0}, "label": "Ti", "xyz": [0.6285675244552554, 2.7113739097585876, -1.8826297761786923]}, {"species": [{"element": "As", "occu": 1}], "abc": [0.7499993500000001, 0.87501097, 0.12501606], "properties": {"magmom": -0.0}, "label": "As", "xyz": [1.9567131346116564, 4.744939208413638, -2.767209655885882]}, {"species": [{"element": "As", "occu": 1}], "abc": [0.875014499999999, 0.12500735, 0.74999802], "properties": {"magmom": -0.0}, "label": "As", "xyz": [5.0876424534214655, 0.6778626944399166, 2.7672132901318323]}, {"species": [{"element": "As", "occu": 1}], "abc": [0.6249801500000001, 0.37498703, 0.24999744000000002], "properties": {"magmom": -0.0}, "label": "As", "xyz": [2.7393773071106295, 2.033443919926977, -0.5534078466918828]}, {"species": [{"element": "As", "occu": 1}], "abc": [0.25000245, 0.62499008, 0.37498612000000003], "properties": {"magmom": -0.0}, "label": "As", "xyz": [-0.39131557104949416, 3.389145530407579, 0.5533745798819836]}, {"species": [{"element": "As", "occu": 1}], "abc": [0.12501777, 0.75000281, 0.87501304], "properties": {"magmom": -0.0}, "label": "As", "xyz": [-1.5653216846575697, 4.067051066274399, 3.874229652928939]}, {"species": [{"element": "As", "occu": 1}], "abc": [0.37498418, 0.25000001, 0.62498966], "properties": {"magmom": -0.0}, "label": "As", "xyz": [1.5653033608921363, 1.3556710407718688, 2.7672438540764945]}]}, "task_ids": null, "uncorrected_energy_per_atom": null, "energy_per_atom": -14.678426228571428, "formation_energy_per_atom": -0.982194654880952, "energy_above_hull": 0.022464771249999002, "is_stable": false, "equilibrium_reaction_energy_per_atom": null, "decomposes_to": null, "xas": null, "grain_boundaries": null, "band_gap": 0.0, "cbm": null, "vbm": null, "efermi": 7.42472984, "is_gap_direct": null, "is_metal": null, "es_source_calc_id": null, "bandstructure": null, "dos": null, "dos_energy_up": null, "dos_energy_down": null, "is_magnetic": null, "ordering": null, "total_magnetization": 6.27e-05, "total_magnetization_normalized_vol": null, "total_magnetization_normalized_formula_units": null, "num_magnetic_sites": null, "num_unique_magnetic_sites": null, "types_of_magnetic_species": null, "bulk_modulus": null, "shear_modulus": null, "universal_anisotropy": null, "homogeneous_poisson": null, "e_total": null, "e_ionic": null, "e_electronic": null, "n": null, "e_ij_max": null, "weighted_surface_energy_EV_PER_ANG2": null, "weighted_surface_energy": null, "weighted_work_function": null, "surface_anisotropy": null, "shape_factor": null, "has_reconstructed": null, "possible_species": null, "has_props": null, "theoretical": null, "database_IDs": null, "fields_not_requested": ["builder_meta", "nsites", "elements", "nelements", "composition", "composition_reduced", "chemsys", "symmetry", "property_name", "deprecated", "deprecation_reasons", "last_updated", "origins", "warnings", "task_ids", "uncorrected_energy_per_atom", "equilibrium_reaction_energy_per_atom", "decomposes_to", "xas", "grain_boundaries", "cbm", "vbm", "is_gap_direct", "is_metal", "es_source_calc_id", "bandstructure", "dos", "dos_energy_up", "dos_energy_down", "is_magnetic", "ordering", "total_magnetization_normalized_vol", "total_magnetization_normalized_formula_units", "num_magnetic_sites", "num_unique_magnetic_sites", "types_of_magnetic_species", "bulk_modulus", "shear_modulus", "universal_anisotropy", "homogeneous_poisson", "e_total", "e_ionic", "e_electronic", "n", "e_ij_max", "weighted_surface_energy_EV_PER_ANG2", "weighted_surface_energy", "weighted_work_function", "surface_anisotropy", "shape_factor", "has_reconstructed", "possible_species", "has_props", "theoretical", "database_IDs"]}