{
  "builder_meta": null,
  "nsites": null,
  "elements": null,
  "nelements": null,
  "composition": null,
  "composition_reduced": null,
  "formula_pretty": "Ti4Co",
  "formula_anonymous": "AB4",
  "chemsys": null,
  "volume": 178.10095316357223,
  "density": 4.669272783048418,
  "density_atomic": 17.810095316357224,
  "symmetry": null,
  "property_name": null,
  "material_id": "mp-1208254",
  "deprecated": null,
  "deprecation_reasons": null,
  "last_updated": null,
  "origins": null,
  "warnings": null,
  "structure": {
    "@module": "pymatgen.core.structure",
    "@class": "Structure",
    "charge": 0,
    "lattice": {
      "matrix": [
        [-4.465589, -4.465589, 0.0],
        [-4.465589, 0.0, -4.465589],
        [0.0, -4.465589, -4.465589]
      ],
      "pbc": [true, true, true],
      "a": 6.315296527784107,
      "b": 6.315296527784107,
      "c": 6.315296527784107,
      "alpha": 60.00000000000001,
      "beta": 60.00000000000001,
      "gamma": 60.00000000000001,
      "volume": 178.10095316357223
    },
    "properties": {},
    "sites": [
      {
        "species": [{ "element": "Ti", "occu": 1 }],
        "abc": [0.608567, 0.608567, 0.608567],
        "properties": { "magmom": -0.0 },
        "label": "Ti",
        "xyz": [-5.435220201926, -5.435220201926, -5.435220201926]
      },
      {
        "species": [{ "element": "Ti", "occu": 1 }],
        "abc": [0.174297999999999, 0.608567, 0.608567],
        "properties": { "magmom": -0.0 },
        "label": "Ti",
        "xyz": [-3.495953332484995, -3.495953332484995, -5.435220201926]
      },
      {
        "species": [{ "element": "Ti", "occu": 1 }],
        "abc": [0.608567, 0.174297999999999, 0.608567],
        "properties": { "magmom": -0.0 },
        "label": "Ti",
        "xyz": [-3.495953332484995, -5.435220201926, -3.495953332484995]
      },
      {
        "species": [{ "element": "Ti", "occu": 1 }],
        "abc": [0.575701999999999, 0.141433, 0.141433],
        "properties": { "magmom": -0.0 },
        "label": "Ti",
        "xyz": [-3.2024301675149953, -3.2024301675149953, -1.263163298074]
      },
      {
        "species": [{ "element": "Ti", "occu": 1 }],
        "abc": [0.141433, 0.141433, 0.141433],
        "properties": { "magmom": -0.0 },
        "label": "Ti",
        "xyz": [-1.263163298074, -1.263163298074, -1.263163298074]
      },
      {
        "species": [{ "element": "Ti", "occu": 1 }],
        "abc": [0.608567, 0.608567, 0.174297999999999],
        "properties": { "magmom": -0.0 },
        "label": "Ti",
        "xyz": [-5.435220201926, -3.495953332484995, -3.495953332484995]
      },
      {
        "species": [{ "element": "Ti", "occu": 1 }],
        "abc": [0.141433, 0.575701999999999, 0.141433],
        "properties": { "magmom": -0.0 },
        "label": "Ti",
        "xyz": [-3.2024301675149953, -1.263163298074, -3.2024301675149953]
      },
      {
        "species": [{ "element": "Ti", "occu": 1 }],
        "abc": [0.141433, 0.141433, 0.575701999999999],
        "properties": { "magmom": -0.0 },
        "label": "Ti",
        "xyz": [-1.263163298074, -3.2024301675149953, -3.2024301675149953]
      },
      {
        "species": [{ "element": "Co", "occu": 1 }],
        "abc": [0.0, 0.0, 0.0],
        "properties": { "magmom": 0.0 },
        "label": "Co",
        "xyz": [0.0, 0.0, 0.0]
      },
      {
        "species": [{ "element": "Co", "occu": 1 }],
        "abc": [0.75, 0.75, 0.75],
        "properties": { "magmom": 0.0 },
        "label": "Co",
        "xyz": [-6.698383499999999, -6.698383499999999, -6.698383499999999]
      }
    ]
  },
  "task_ids": null,
  "uncorrected_energy_per_atom": null,
  "energy_per_atom": -12.496343988833331,
  "formation_energy_per_atom": 0.500707847833336,
  "energy_above_hull": 0.663550245166668,
  "is_stable": false,
  "equilibrium_reaction_energy_per_atom": null,
  "decomposes_to": null,
  "xas": null,
  "grain_boundaries": null,
  "band_gap": 0.0,
  "cbm": null,
  "vbm": null,
  "efermi": 4.96942328,
  "is_gap_direct": null,
  "is_metal": null,
  "es_source_calc_id": null,
  "bandstructure": null,
  "dos": null,
  "dos_energy_up": null,
  "dos_energy_down": null,
  "is_magnetic": null,
  "ordering": null,
  "total_magnetization": 0.00042439999999900006,
  "total_magnetization_normalized_vol": null,
  "total_magnetization_normalized_formula_units": null,
  "num_magnetic_sites": null,
  "num_unique_magnetic_sites": null,
  "types_of_magnetic_species": null,
  "bulk_modulus": null,
  "shear_modulus": null,
  "universal_anisotropy": null,
  "homogeneous_poisson": null,
  "e_total": null,
  "e_ionic": null,
  "e_electronic": null,
  "n": null,
  "e_ij_max": null,
  "weighted_surface_energy_EV_PER_ANG2": null,
  "weighted_surface_energy": null,
  "weighted_work_function": null,
  "surface_anisotropy": null,
  "shape_factor": null,
  "has_reconstructed": null,
  "possible_species": null,
  "has_props": null,
  "theoretical": null,
  "database_IDs": null,
  "fields_not_requested": [
    "builder_meta",
    "nsites",
    "elements",
    "nelements",
    "composition",
    "composition_reduced",
    "chemsys",
    "symmetry",
    "property_name",
    "deprecated",
    "deprecation_reasons",
    "last_updated",
    "origins",
    "warnings",
    "task_ids",
    "uncorrected_energy_per_atom",
    "equilibrium_reaction_energy_per_atom",
    "decomposes_to",
    "xas",
    "grain_boundaries",
    "cbm",
    "vbm",
    "is_gap_direct",
    "is_metal",
    "es_source_calc_id",
    "bandstructure",
    "dos",
    "dos_energy_up",
    "dos_energy_down",
    "is_magnetic",
    "ordering",
    "total_magnetization_normalized_vol",
    "total_magnetization_normalized_formula_units",
    "num_magnetic_sites",
    "num_unique_magnetic_sites",
    "types_of_magnetic_species",
    "bulk_modulus",
    "shear_modulus",
    "universal_anisotropy",
    "homogeneous_poisson",
    "e_total",
    "e_ionic",
    "e_electronic",
    "n",
    "e_ij_max",
    "weighted_surface_energy_EV_PER_ANG2",
    "weighted_surface_energy",
    "weighted_work_function",
    "surface_anisotropy",
    "shape_factor",
    "has_reconstructed",
    "possible_species",
    "has_props",
    "theoretical",
    "database_IDs"
  ]
}
