{"builder_meta": null, "nsites": null, "elements": null, "nelements": null, "composition": null, "composition_reduced": null, "formula_pretty": "Ti4Cr", "formula_anonymous": "AB4", "chemsys": null, "volume": 79.9402050620978, "density": 5.057300629271113, "density_atomic": 15.988041012419561, "symmetry": null, "property_name": null, "material_id": "mp-1217156", "deprecated": null, "deprecation_reasons": null, "last_updated": null, "origins": null, "warnings": null, "structure": {"@module": "pymatgen.core.structure", "@class": "Structure", "charge": 0, "lattice": {"matrix": [[0.0, 2.347534, 11.103857], [1.533379, 0.0, 11.103857], [1.533379, 2.347534, 0.0]], "pbc": [true, true, true], "a": 11.349297606354545, "b": 11.209232419487519, "c": 2.803955605710797, "alpha": 85.70977017559414, "beta": 80.02756368907089, "gamma": 14.262666135335015, "volume": 79.94020506209779}, "properties": {}, "sites": [{"species": [{"element": "Ti", "occu": 1}], "abc": [0.413827, 0.413827, 0.5861729999999991], "properties": {"magmom": -0.0}, "label": "Ti", "xyz": [1.5333789999999987, 2.347533999999998, 9.190151661478]}, {"species": [{"element": "Ti", "occu": 1}], "abc": [0.803412, 0.803412, 0.196587999999999], "properties": {"magmom": 0.004}, "label": "Ti", "xyz": [1.5333789999999987, 2.347533999999998, 17.841943920168]}, {"species": [{"element": "Ti", "occu": 1}], "abc": [0.196587999999999, 0.196587999999999, 0.803412], "properties": {"magmom": 0.004}, "label": "Ti", "xyz": [1.5333789999999987, 2.347533999999998, 4.365770079831978]}, {"species": [{"element": "Ti", "occu": 1}], "abc": [0.5861729999999991, 0.5861729999999991, 0.413827], "properties": {"magmom": -0.0}, "label": "Ti", "xyz": [1.5333789999999987, 2.347533999999998, 13.017562338521978]}, {"species": [{"element": "Cr", "occu": 1}], "abc": [0.0, 0.0, 0.0], "properties": {"magmom": 0.002}, "label": "Cr", "xyz": [0.0, 0.0, 0.0]}]}, "task_ids": null, "uncorrected_energy_per_atom": null, "energy_per_atom": -13.241447876500004, "formation_energy_per_atom": 0.12342621216666301, "energy_above_hull": 0.12342621216666401, "is_stable": false, "equilibrium_reaction_energy_per_atom": null, "decomposes_to": null, "xas": null, "grain_boundaries": null, "band_gap": 0.0, "cbm": null, "vbm": null, "efermi": 5.97176683, "is_gap_direct": null, "is_metal": null, "es_source_calc_id": null, "bandstructure": null, "dos": null, "dos_energy_up": null, "dos_energy_down": null, "is_magnetic": null, "ordering": null, "total_magnetization": 0.014617, "total_magnetization_normalized_vol": null, "total_magnetization_normalized_formula_units": null, "num_magnetic_sites": null, "num_unique_magnetic_sites": null, "types_of_magnetic_species": null, "bulk_modulus": null, "shear_modulus": null, "universal_anisotropy": null, "homogeneous_poisson": null, "e_total": null, "e_ionic": null, "e_electronic": null, "n": null, "e_ij_max": null, "weighted_surface_energy_EV_PER_ANG2": null, "weighted_surface_energy": null, "weighted_work_function": null, "surface_anisotropy": null, "shape_factor": null, "has_reconstructed": null, "possible_species": null, "has_props": null, "theoretical": null, "database_IDs": null, "fields_not_requested": ["builder_meta", "nsites", "elements", "nelements", "composition", "composition_reduced", "chemsys", "symmetry", "property_name", "deprecated", "deprecation_reasons", "last_updated", "origins", "warnings", "task_ids", "uncorrected_energy_per_atom", "equilibrium_reaction_energy_per_atom", "decomposes_to", "xas", "grain_boundaries", "cbm", "vbm", "is_gap_direct", "is_metal", "es_source_calc_id", "bandstructure", "dos", "dos_energy_up", "dos_energy_down", "is_magnetic", "ordering", "total_magnetization_normalized_vol", "total_magnetization_normalized_formula_units", "num_magnetic_sites", "num_unique_magnetic_sites", "types_of_magnetic_species", "bulk_modulus", "shear_modulus", "universal_anisotropy", "homogeneous_poisson", "e_total", "e_ionic", "e_electronic", "n", "e_ij_max", "weighted_surface_energy_EV_PER_ANG2", "weighted_surface_energy", "weighted_work_function", "surface_anisotropy", "shape_factor", "has_reconstructed", "possible_species", "has_props", "theoretical", "database_IDs"]}