{
  "builder_meta": null,
  "nsites": null,
  "elements": null,
  "nelements": null,
  "composition": null,
  "composition_reduced": null,
  "formula_pretty": "Ti4Fe",
  "formula_anonymous": "AB4",
  "chemsys": null,
  "volume": 79.29576794318773,
  "density": 5.179001462881053,
  "density_atomic": 15.859153588637545,
  "symmetry": null,
  "property_name": null,
  "material_id": "mp-1217161",
  "deprecated": null,
  "deprecation_reasons": null,
  "last_updated": null,
  "origins": null,
  "warnings": null,
  "structure": {
    "@module": "pymatgen.core.structure",
    "@class": "Structure",
    "charge": 0,
    "lattice": {
      "matrix": [
        [0.0, 2.294965, 10.51207],
        [1.643447, 0.0, 10.51207],
        [1.643447, 2.294965, 0.0]
      ],
      "pbc": [true, true, true],
      "a": 10.759669141573314,
      "b": 10.639761920583984,
      "c": 2.8227260570296226,
      "alpha": 84.84034644174771,
      "beta": 80.01361647251362,
      "gamma": 15.14603708573867,
      "volume": 79.29576794318773
    },
    "properties": {},
    "sites": [
      {
        "species": [{ "element": "Ti", "occu": 1 }],
        "abc": [0.416977999999999, 0.416977999999999, 0.583021999999999],
        "properties": { "magmom": -0.016 },
        "label": "Ti",
        "xyz": [1.643446999999997, 2.2949649999999955, 8.76660384891998]
      },
      {
        "species": [{ "element": "Ti", "occu": 1 }],
        "abc": [0.803435, 0.803435, 0.196565],
        "properties": { "magmom": 0.005 },
        "label": "Ti",
        "xyz": [1.643447, 2.294965, 16.8915299209]
      },
      {
        "species": [{ "element": "Ti", "occu": 1 }],
        "abc": [0.196565, 0.196565, 0.803435],
        "properties": { "magmom": 0.005 },
        "label": "Ti",
        "xyz": [1.643447, 2.294965, 4.1326100791]
      },
      {
        "species": [{ "element": "Ti", "occu": 1 }],
        "abc": [0.583021999999999, 0.583021999999999, 0.416977999999999],
        "properties": { "magmom": -0.016 },
        "label": "Ti",
        "xyz": [1.643446999999997, 2.2949649999999955, 12.257536151079979]
      },
      {
        "species": [{ "element": "Fe", "occu": 1 }],
        "abc": [0.0, 0.0, 0.0],
        "properties": { "magmom": 0.074 },
        "label": "Fe",
        "xyz": [0.0, 0.0, 0.0]
      }
    ]
  },
  "task_ids": null,
  "uncorrected_energy_per_atom": null,
  "energy_per_atom": -8.014011864,
  "formation_energy_per_atom": -0.0036140086666660003,
  "energy_above_hull": 0.164718051999997,
  "is_stable": false,
  "equilibrium_reaction_energy_per_atom": null,
  "decomposes_to": null,
  "xas": null,
  "grain_boundaries": null,
  "band_gap": 0.0,
  "cbm": null,
  "vbm": null,
  "efermi": 5.84209097,
  "is_gap_direct": null,
  "is_metal": null,
  "es_source_calc_id": null,
  "bandstructure": null,
  "dos": null,
  "dos_energy_up": null,
  "dos_energy_down": null,
  "is_magnetic": null,
  "ordering": null,
  "total_magnetization": 0.0356886,
  "total_magnetization_normalized_vol": null,
  "total_magnetization_normalized_formula_units": null,
  "num_magnetic_sites": null,
  "num_unique_magnetic_sites": null,
  "types_of_magnetic_species": null,
  "bulk_modulus": null,
  "shear_modulus": null,
  "universal_anisotropy": null,
  "homogeneous_poisson": null,
  "e_total": null,
  "e_ionic": null,
  "e_electronic": null,
  "n": null,
  "e_ij_max": null,
  "weighted_surface_energy_EV_PER_ANG2": null,
  "weighted_surface_energy": null,
  "weighted_work_function": null,
  "surface_anisotropy": null,
  "shape_factor": null,
  "has_reconstructed": null,
  "possible_species": null,
  "has_props": null,
  "theoretical": null,
  "database_IDs": null,
  "fields_not_requested": [
    "builder_meta",
    "nsites",
    "elements",
    "nelements",
    "composition",
    "composition_reduced",
    "chemsys",
    "symmetry",
    "property_name",
    "deprecated",
    "deprecation_reasons",
    "last_updated",
    "origins",
    "warnings",
    "task_ids",
    "uncorrected_energy_per_atom",
    "equilibrium_reaction_energy_per_atom",
    "decomposes_to",
    "xas",
    "grain_boundaries",
    "cbm",
    "vbm",
    "is_gap_direct",
    "is_metal",
    "es_source_calc_id",
    "bandstructure",
    "dos",
    "dos_energy_up",
    "dos_energy_down",
    "is_magnetic",
    "ordering",
    "total_magnetization_normalized_vol",
    "total_magnetization_normalized_formula_units",
    "num_magnetic_sites",
    "num_unique_magnetic_sites",
    "types_of_magnetic_species",
    "bulk_modulus",
    "shear_modulus",
    "universal_anisotropy",
    "homogeneous_poisson",
    "e_total",
    "e_ionic",
    "e_electronic",
    "n",
    "e_ij_max",
    "weighted_surface_energy_EV_PER_ANG2",
    "weighted_surface_energy",
    "weighted_work_function",
    "surface_anisotropy",
    "shape_factor",
    "has_reconstructed",
    "possible_species",
    "has_props",
    "theoretical",
    "database_IDs"
  ]
}
