{
  "builder_meta": null,
  "nsites": null,
  "elements": null,
  "nelements": null,
  "composition": null,
  "composition_reduced": null,
  "formula_pretty": "Ti4H5",
  "formula_anonymous": "A4B5",
  "chemsys": null,
  "volume": 81.18674246093093,
  "density": 4.019236427606892,
  "density_atomic": 9.020749162325659,
  "symmetry": null,
  "property_name": null,
  "material_id": "mp-1095024",
  "deprecated": null,
  "deprecation_reasons": null,
  "last_updated": null,
  "origins": null,
  "warnings": null,
  "structure": {
    "@module": "pymatgen.core.structure",
    "@class": "Structure",
    "charge": 0,
    "lattice": {
      "matrix": [
        [4.24643939, -1.5e-7, -2.7590000000000002e-5],
        [-1.5e-7, 4.24644043, -3.364e-5],
        [-4.101e-5, -4.3120000000000014e-5, 4.50230747]
      ],
      "pbc": [true, true, true],
      "a": 4.246439390089631,
      "b": 4.246440430133249,
      "c": 4.5023074703932595,
      "alpha": 90.00100263259827,
      "beta": 90.00089415050613,
      "gamma": 90.00000404484963,
      "volume": 81.18674246093093
    },
    "properties": {},
    "sites": [
      {
        "species": [{ "element": "Ti", "occu": 1 }],
        "abc": [0.24354284, 0.25645716, 0.25443405],
        "properties": { "magmom": -0.0 },
        "label": "Ti",
        "xyz": [1.034179436119503, 1.0890190450593167, 1.1455249773715357]
      },
      {
        "species": [{ "element": "Ti", "occu": 1 }],
        "abc": [0.75645616, 0.7435438400000001, 0.25443505],
        "properties": { "magmom": -0.0 },
        "label": "Ti",
        "xyz": [3.2122346887191657, 3.157403538945671, 1.1454989428045914]
      },
      {
        "species": [{ "element": "Ti", "occu": 1 }],
        "abc": [0.75645336, 0.25645436, 0.74556466],
        "properties": { "magmom": 0.0 },
        "label": "Ti",
        "xyz": [3.2122027305269896, 1.0889859005376314, 3.356731840413137]
      },
      {
        "species": [{ "element": "Ti", "occu": 1 }],
        "abc": [0.2435444, 0.7435444, 0.74556739],
        "properties": { "magmom": 0.0 },
        "label": "Ti",
        "xyz": [1.0341658461235923, 3.157384816262575, 3.3567418971617915]
      },
      {
        "species": [{ "element": "H", "occu": 1 }],
        "abc": [0.99999437, 0.99999337, 2.859999999999999e-6],
        "properties": { "magmom": -0.0 },
        "label": "H",
        "xyz": [4.24641533242994, 4.24641212597747, -4.83530222709e-5]
      },
      {
        "species": [{ "element": "H", "occu": 1 }],
        "abc": [1.3830000000000001e-5, 2.18e-6, 0.5000053],
        "properties": { "magmom": -0.0 },
        "label": "H",
        "xyz": [3.822303908370001e-5, -1.2302990473100009e-5, 2.251177596774686]
      },
      {
        "species": [{ "element": "H", "occu": 1 }],
        "abc": [0.49999237, 0.49999537, 3.859999999999999e-6],
        "properties": { "magmom": -0.0 },
        "label": "H",
        "xyz": [2.12318721950985, 2.12320047881551, -1.3235726900900011e-5]
      },
      {
        "species": [{ "element": "H", "occu": 1 }],
        "abc": [0.50000218, 0.50001283, 0.5000053],
        "properties": { "magmom": -0.0 },
        "label": "H",
        "xyz": [2.1232083720185924, 2.123253061601854, 2.2511469817378433]
      },
      {
        "species": [{ "element": "H", "occu": 1 }],
        "abc": [0.49999748, -1.519999999999999e-6, 0.9999835300000001],
        "properties": { "magmom": -0.0 },
        "label": "H",
        "xyz": [2.1231679846483993, -4.9648878889200014e-5, 4.502219522116629]
      }
    ]
  },
  "task_ids": null,
  "uncorrected_energy_per_atom": null,
  "energy_per_atom": -8.111192182222222,
  "formation_energy_per_atom": -0.441571064490741,
  "energy_above_hull": 0.009859256388889001,
  "is_stable": false,
  "equilibrium_reaction_energy_per_atom": null,
  "decomposes_to": null,
  "xas": null,
  "grain_boundaries": null,
  "band_gap": 0.0,
  "cbm": null,
  "vbm": null,
  "efermi": 5.29838451,
  "is_gap_direct": null,
  "is_metal": null,
  "es_source_calc_id": null,
  "bandstructure": null,
  "dos": null,
  "dos_energy_up": null,
  "dos_energy_down": null,
  "is_magnetic": null,
  "ordering": null,
  "total_magnetization": 2.86e-5,
  "total_magnetization_normalized_vol": null,
  "total_magnetization_normalized_formula_units": null,
  "num_magnetic_sites": null,
  "num_unique_magnetic_sites": null,
  "types_of_magnetic_species": null,
  "bulk_modulus": null,
  "shear_modulus": null,
  "universal_anisotropy": null,
  "homogeneous_poisson": null,
  "e_total": null,
  "e_ionic": null,
  "e_electronic": null,
  "n": null,
  "e_ij_max": null,
  "weighted_surface_energy_EV_PER_ANG2": null,
  "weighted_surface_energy": null,
  "weighted_work_function": null,
  "surface_anisotropy": null,
  "shape_factor": null,
  "has_reconstructed": null,
  "possible_species": null,
  "has_props": null,
  "theoretical": null,
  "database_IDs": null,
  "fields_not_requested": [
    "builder_meta",
    "nsites",
    "elements",
    "nelements",
    "composition",
    "composition_reduced",
    "chemsys",
    "symmetry",
    "property_name",
    "deprecated",
    "deprecation_reasons",
    "last_updated",
    "origins",
    "warnings",
    "task_ids",
    "uncorrected_energy_per_atom",
    "equilibrium_reaction_energy_per_atom",
    "decomposes_to",
    "xas",
    "grain_boundaries",
    "cbm",
    "vbm",
    "is_gap_direct",
    "is_metal",
    "es_source_calc_id",
    "bandstructure",
    "dos",
    "dos_energy_up",
    "dos_energy_down",
    "is_magnetic",
    "ordering",
    "total_magnetization_normalized_vol",
    "total_magnetization_normalized_formula_units",
    "num_magnetic_sites",
    "num_unique_magnetic_sites",
    "types_of_magnetic_species",
    "bulk_modulus",
    "shear_modulus",
    "universal_anisotropy",
    "homogeneous_poisson",
    "e_total",
    "e_ionic",
    "e_electronic",
    "n",
    "e_ij_max",
    "weighted_surface_energy_EV_PER_ANG2",
    "weighted_surface_energy",
    "weighted_work_function",
    "surface_anisotropy",
    "shape_factor",
    "has_reconstructed",
    "possible_species",
    "has_props",
    "theoretical",
    "database_IDs"
  ]
}
