{
  "builder_meta": null,
  "nsites": null,
  "elements": null,
  "nelements": null,
  "composition": null,
  "composition_reduced": null,
  "formula_pretty": "Ti4H3",
  "formula_anonymous": "A3B4",
  "chemsys": null,
  "volume": 77.84421704379417,
  "density": 4.148815127300224,
  "density_atomic": 11.12060243482774,
  "symmetry": null,
  "property_name": null,
  "material_id": "mp-1078123",
  "deprecated": null,
  "deprecation_reasons": null,
  "last_updated": null,
  "origins": null,
  "warnings": null,
  "structure": {
    "@module": "pymatgen.core.structure",
    "@class": "Structure",
    "charge": 0,
    "lattice": {
      "matrix": [
        [4.22111007, 0.0, 0.0],
        [0.0, 4.22111007, 0.0],
        [0.0, 0.0, 4.36890902]
      ],
      "pbc": [true, true, true],
      "a": 4.22111007,
      "b": 4.22111007,
      "c": 4.36890902,
      "alpha": 90.0,
      "beta": 90.0,
      "gamma": 90.0,
      "volume": 77.84421704379417
    },
    "properties": {},
    "sites": [
      {
        "species": [{ "element": "Ti", "occu": 1 }],
        "abc": [0.25549103, 0.25549103, 0.25972063],
        "properties": { "magmom": 0.0 },
        "label": "Ti",
        "xyz": [1.078455759527672, 1.078455759527672, 1.1346958030870826]
      },
      {
        "species": [{ "element": "Ti", "occu": 1 }],
        "abc": [0.74450897, 0.74450897, 0.25972063],
        "properties": { "magmom": 0.0 },
        "label": "Ti",
        "xyz": [3.142654310472328, 3.142654310472328, 1.1346958030870826]
      },
      {
        "species": [{ "element": "Ti", "occu": 1 }],
        "abc": [0.74450897, 0.25549103, 0.74027937],
        "properties": { "magmom": 0.0 },
        "label": "Ti",
        "xyz": [3.142654310472328, 1.078455759527672, 3.2342132169129174]
      },
      {
        "species": [{ "element": "Ti", "occu": 1 }],
        "abc": [0.25549103, 0.74450897, 0.74027937],
        "properties": { "magmom": 0.0 },
        "label": "Ti",
        "xyz": [1.078455759527672, 3.142654310472328, 3.2342132169129174]
      },
      {
        "species": [{ "element": "H", "occu": 1 }],
        "abc": [0.0, -0.0, -0.0],
        "properties": { "magmom": 0.0 },
        "label": "H",
        "xyz": [0.0, 0.0, 0.0]
      },
      {
        "species": [{ "element": "H", "occu": 1 }],
        "abc": [0.0, -0.0, 0.5],
        "properties": { "magmom": -0.0 },
        "label": "H",
        "xyz": [0.0, 0.0, 2.18445451]
      },
      {
        "species": [{ "element": "H", "occu": 1 }],
        "abc": [0.5, 0.5, -0.0],
        "properties": { "magmom": -0.0 },
        "label": "H",
        "xyz": [2.110555035, 2.110555035, 0.0]
      }
    ]
  },
  "task_ids": null,
  "uncorrected_energy_per_atom": null,
  "energy_per_atom": -9.183677521428573,
  "formation_energy_per_atom": -0.30991105613095205,
  "energy_above_hull": 0.041702858690475006,
  "is_stable": false,
  "equilibrium_reaction_energy_per_atom": null,
  "decomposes_to": null,
  "xas": null,
  "grain_boundaries": null,
  "band_gap": 0.0,
  "cbm": null,
  "vbm": null,
  "efermi": 5.29813477,
  "is_gap_direct": null,
  "is_metal": null,
  "es_source_calc_id": null,
  "bandstructure": null,
  "dos": null,
  "dos_energy_up": null,
  "dos_energy_down": null,
  "is_magnetic": null,
  "ordering": null,
  "total_magnetization": 1.04e-5,
  "total_magnetization_normalized_vol": null,
  "total_magnetization_normalized_formula_units": null,
  "num_magnetic_sites": null,
  "num_unique_magnetic_sites": null,
  "types_of_magnetic_species": null,
  "bulk_modulus": null,
  "shear_modulus": null,
  "universal_anisotropy": null,
  "homogeneous_poisson": null,
  "e_total": null,
  "e_ionic": null,
  "e_electronic": null,
  "n": null,
  "e_ij_max": null,
  "weighted_surface_energy_EV_PER_ANG2": null,
  "weighted_surface_energy": null,
  "weighted_work_function": null,
  "surface_anisotropy": null,
  "shape_factor": null,
  "has_reconstructed": null,
  "possible_species": null,
  "has_props": null,
  "theoretical": null,
  "database_IDs": null,
  "fields_not_requested": [
    "builder_meta",
    "nsites",
    "elements",
    "nelements",
    "composition",
    "composition_reduced",
    "chemsys",
    "symmetry",
    "property_name",
    "deprecated",
    "deprecation_reasons",
    "last_updated",
    "origins",
    "warnings",
    "task_ids",
    "uncorrected_energy_per_atom",
    "equilibrium_reaction_energy_per_atom",
    "decomposes_to",
    "xas",
    "grain_boundaries",
    "cbm",
    "vbm",
    "is_gap_direct",
    "is_metal",
    "es_source_calc_id",
    "bandstructure",
    "dos",
    "dos_energy_up",
    "dos_energy_down",
    "is_magnetic",
    "ordering",
    "total_magnetization_normalized_vol",
    "total_magnetization_normalized_formula_units",
    "num_magnetic_sites",
    "num_unique_magnetic_sites",
    "types_of_magnetic_species",
    "bulk_modulus",
    "shear_modulus",
    "universal_anisotropy",
    "homogeneous_poisson",
    "e_total",
    "e_ionic",
    "e_electronic",
    "n",
    "e_ij_max",
    "weighted_surface_energy_EV_PER_ANG2",
    "weighted_surface_energy",
    "weighted_work_function",
    "surface_anisotropy",
    "shape_factor",
    "has_reconstructed",
    "possible_species",
    "has_props",
    "theoretical",
    "database_IDs"
  ]
}
