{
  "builder_meta": null,
  "nsites": null,
  "elements": null,
  "nelements": null,
  "composition": null,
  "composition_reduced": null,
  "formula_pretty": "Ti4O5",
  "formula_anonymous": "A4B5",
  "chemsys": null,
  "volume": 90.73767653519478,
  "density": 4.967927931675921,
  "density_atomic": 10.081964059466086,
  "symmetry": null,
  "property_name": null,
  "material_id": "mp-10734",
  "deprecated": null,
  "deprecation_reasons": null,
  "last_updated": null,
  "origins": null,
  "warnings": null,
  "structure": {
    "@module": "pymatgen.core.structure",
    "@class": "Structure",
    "charge": 0,
    "lattice": {
      "matrix": [
        [3.794710369999999, 0.0, 1.68149115],
        [1.897367899999999, 4.67562732, 0.84071733],
        [0.00315124, 3.1e-5, 5.11549538]
      ],
      "pbc": [true, true, true],
      "a": 4.150570958279578,
      "b": 5.115496203932041,
      "c": 5.115496350704971,
      "alpha": 80.52709570883806,
      "beta": 66.06587874529853,
      "gamma": 66.06587168735533,
      "volume": 90.73767653519474
    },
    "properties": {},
    "sites": [
      {
        "species": [{ "element": "Ti", "occu": 1 }],
        "abc": [0.60869852, 0.17475297, 0.6078479999999991],
        "properties": { "magmom": 0.0 },
        "label": "Ti",
        "xyz": [2.6433207366868343, 0.8170986040711404, 4.279882660488303]
      },
      {
        "species": [{ "element": "Ti", "occu": 1 }],
        "abc": [0.21654852, 0.392152, 0.17475297],
        "properties": { "magmom": 0.0 },
        "label": "Ti",
        "xyz": [1.5663462197221347, 1.8335620221347102, 1.5877614129960365]
      },
      {
        "species": [{ "element": "Ti", "occu": 1 }],
        "abc": [0.78345148, 0.6078479999999991, 0.82524703],
        "properties": { "magmom": 0.0 },
        "label": "Ti",
        "xyz": [4.128883290277862, 2.8420962978652855, 6.049942447003962]
      },
      {
        "species": [{ "element": "Ti", "occu": 1 }],
        "abc": [0.39130148000000003, 0.82524703, 0.392152],
        "properties": { "magmom": 0.0 },
        "label": "Ti",
        "xyz": [3.0519087733131633, 3.85855971592886, 3.3578211995116916]
      },
      {
        "species": [{ "element": "O", "occu": 1 }],
        "abc": [0.90887114, 0.78037822, 0.40187749],
        "properties": { "magmom": 0.0 },
        "label": "O",
        "xyz": [4.930833736860446, 3.6487701835671604, 4.240138715329961]
      },
      {
        "species": [{ "element": "O", "occu": 1 }],
        "abc": [0.31074963, 0.59812251, 0.78037822],
        "properties": { "magmom": 0.0 },
        "label": "O",
        "xyz": [2.3165224532380844, 2.7966221401877935, 5.017395891393496]
      },
      {
        "species": [{ "element": "O", "occu": 1 }],
        "abc": [0.68925037, 0.40187749, 0.21962178000000002],
        "properties": { "magmom": 0.0 },
        "label": "O",
        "xyz": [3.3787070567619137, 1.879036179812207, 2.620307968606504]
      },
      {
        "species": [{ "element": "O", "occu": 1 }],
        "abc": [0.09112886, 0.21962178000000002, 0.59812251],
        "properties": { "magmom": 0.0 },
        "label": "O",
        "xyz": [0.7643957731395523, 1.0268881364328397, 3.39756514467004]
      },
      {
        "species": [{ "element": "O", "occu": 1 }],
        "abc": [0.5, 0.0, 0.0],
        "properties": { "magmom": -0.0 },
        "label": "O",
        "xyz": [1.8973551849999994, 0.0, 0.840745575]
      }
    ]
  },
  "task_ids": null,
  "uncorrected_energy_per_atom": null,
  "energy_per_atom": -9.349034620000001,
  "formation_energy_per_atom": -3.091059832037038,
  "energy_above_hull": 0.036609422222221,
  "is_stable": false,
  "equilibrium_reaction_energy_per_atom": null,
  "decomposes_to": null,
  "xas": null,
  "grain_boundaries": null,
  "band_gap": 0.0,
  "cbm": null,
  "vbm": null,
  "efermi": 7.98100221,
  "is_gap_direct": null,
  "is_metal": null,
  "es_source_calc_id": null,
  "bandstructure": null,
  "dos": null,
  "dos_energy_up": null,
  "dos_energy_down": null,
  "is_magnetic": null,
  "ordering": null,
  "total_magnetization": 0.0,
  "total_magnetization_normalized_vol": null,
  "total_magnetization_normalized_formula_units": null,
  "num_magnetic_sites": null,
  "num_unique_magnetic_sites": null,
  "types_of_magnetic_species": null,
  "bulk_modulus": null,
  "shear_modulus": null,
  "universal_anisotropy": null,
  "homogeneous_poisson": null,
  "e_total": null,
  "e_ionic": null,
  "e_electronic": null,
  "n": null,
  "e_ij_max": null,
  "weighted_surface_energy_EV_PER_ANG2": null,
  "weighted_surface_energy": null,
  "weighted_work_function": null,
  "surface_anisotropy": null,
  "shape_factor": null,
  "has_reconstructed": null,
  "possible_species": null,
  "has_props": null,
  "theoretical": null,
  "database_IDs": null,
  "fields_not_requested": [
    "builder_meta",
    "nsites",
    "elements",
    "nelements",
    "composition",
    "composition_reduced",
    "chemsys",
    "symmetry",
    "property_name",
    "deprecated",
    "deprecation_reasons",
    "last_updated",
    "origins",
    "warnings",
    "task_ids",
    "uncorrected_energy_per_atom",
    "equilibrium_reaction_energy_per_atom",
    "decomposes_to",
    "xas",
    "grain_boundaries",
    "cbm",
    "vbm",
    "is_gap_direct",
    "is_metal",
    "es_source_calc_id",
    "bandstructure",
    "dos",
    "dos_energy_up",
    "dos_energy_down",
    "is_magnetic",
    "ordering",
    "total_magnetization_normalized_vol",
    "total_magnetization_normalized_formula_units",
    "num_magnetic_sites",
    "num_unique_magnetic_sites",
    "types_of_magnetic_species",
    "bulk_modulus",
    "shear_modulus",
    "universal_anisotropy",
    "homogeneous_poisson",
    "e_total",
    "e_ionic",
    "e_electronic",
    "n",
    "e_ij_max",
    "weighted_surface_energy_EV_PER_ANG2",
    "weighted_surface_energy",
    "weighted_work_function",
    "surface_anisotropy",
    "shape_factor",
    "has_reconstructed",
    "possible_species",
    "has_props",
    "theoretical",
    "database_IDs"
  ]
}
