{
  "builder_meta": null,
  "nsites": null,
  "elements": null,
  "nelements": null,
  "composition": null,
  "composition_reduced": null,
  "formula_pretty": "Ti4P3",
  "formula_anonymous": "A3B4",
  "chemsys": null,
  "volume": 203.8856600720415,
  "density": 4.632395621728551,
  "density_atomic": 14.56326143371725,
  "symmetry": null,
  "property_name": null,
  "material_id": "mp-567920",
  "deprecated": null,
  "deprecation_reasons": null,
  "last_updated": null,
  "origins": null,
  "warnings": null,
  "structure": {
    "@module": "pymatgen.core.structure",
    "@class": "Structure",
    "charge": 0,
    "lattice": {
      "matrix": [
        [6.05470879, 0.0, -2.14066275],
        [-3.02735389, 5.24353106, -2.14066275],
        [0.0, 1e-8, 6.42198928]
      ],
      "pbc": [true, true, true],
      "a": 6.421988441358396,
      "b": 6.421987742258655,
      "c": 6.42198928,
      "alpha": 109.47122215881313,
      "beta": 109.47122003088178,
      "gamma": 109.4712189377802,
      "volume": 203.8856600720415
    },
    "properties": {},
    "sites": [
      {
        "species": [{ "element": "Ti", "occu": 1 }],
        "abc": [0.36307163000000003, 0.5, -0.0],
        "properties": { "magmom": 0.0 },
        "label": "Ti",
        "xyz": [0.684616044560628, 2.62176553, -1.8475452889227828]
      },
      {
        "species": [{ "element": "Ti", "occu": 1 }],
        "abc": [0.86307163, 0.5, -0.0],
        "properties": { "magmom": 0.0 },
        "label": "Ti",
        "xyz": [3.711970439560628, 2.62176553, -2.9178766639227827]
      },
      {
        "species": [{ "element": "Ti", "occu": 1 }],
        "abc": [0.63692837, 0.63692837, 0.63692837],
        "properties": { "magmom": 0.0 },
        "label": "Ti",
        "xyz": [1.9282082218685133, 3.339753697459456, 1.3634494921134381]
      },
      {
        "species": [{ "element": "Ti", "occu": 1 }],
        "abc": [0.5, 0.0, 0.36307163000000003],
        "properties": { "magmom": 0.0 },
        "label": "Ti",
        "xyz": [3.027354395, 3.6307163000000005e-9, 1.2613107407321265]
      },
      {
        "species": [{ "element": "Ti", "occu": 1 }],
        "abc": [0.13692837, 0.13692837, 0.13692837],
        "properties": { "magmom": 0.0 },
        "label": "Ti",
        "xyz": [0.41453077186851306, 0.7179881624594558, 0.2931176021134385]
      },
      {
        "species": [{ "element": "Ti", "occu": 1 }],
        "abc": [-0.0, 0.86307163, 0.5],
        "properties": { "magmom": 0.0 },
        "label": "Ti",
        "xyz": [-2.6128232564291407, 4.525542903909828, 1.3634493510772174]
      },
      {
        "species": [{ "element": "Ti", "occu": 1 }],
        "abc": [0.5, 0.0, 0.86307163],
        "properties": { "magmom": 0.0 },
        "label": "Ti",
        "xyz": [3.027354395, 8.6307163e-9, 4.472305380732126]
      },
      {
        "species": [{ "element": "Ti", "occu": 1 }],
        "abc": [-0.0, 0.36307163000000003, 0.5],
        "properties": { "magmom": 0.0 },
        "label": "Ti",
        "xyz": [-1.0991463114291409, 1.9037773739098278, 2.4337807260772175]
      },
      {
        "species": [{ "element": "P", "occu": 1 }],
        "abc": [0.875, 0.125, 0.75],
        "properties": { "magmom": -0.0 },
        "label": "P",
        "xyz": [4.919450955, 0.6554413899999999, 2.6758292100000003]
      },
      {
        "species": [{ "element": "P", "occu": 1 }],
        "abc": [0.75, 0.875, 0.125],
        "properties": { "magmom": -0.0 },
        "label": "P",
        "xyz": [1.8920969387500004, 4.588089678749999, -2.67582830875]
      },
      {
        "species": [{ "element": "P", "occu": 1 }],
        "abc": [0.25, 0.625, 0.375],
        "properties": { "magmom": -0.0 },
        "label": "P",
        "xyz": [-0.37841898375000005, 3.2772069162499995, 0.5351660737500001]
      },
      {
        "species": [{ "element": "P", "occu": 1 }],
        "abc": [0.625, 0.375, 0.25],
        "properties": { "magmom": -0.0 },
        "label": "P",
        "xyz": [2.6489352850000003, 1.96632415, -0.5351654300000002]
      },
      {
        "species": [{ "element": "P", "occu": 1 }],
        "abc": [0.125, 0.75, 0.875],
        "properties": { "magmom": -0.0 },
        "label": "P",
        "xyz": [-1.51367681875, 3.9326483037499997, 3.74616071375]
      },
      {
        "species": [{ "element": "P", "occu": 1 }],
        "abc": [0.375, 0.25, 0.625],
        "properties": { "magmom": -0.0 },
        "label": "P",
        "xyz": [1.51367732375, 1.31088277125, 2.67582908125]
      }
    ]
  },
  "task_ids": null,
  "uncorrected_energy_per_atom": null,
  "energy_per_atom": -12.469676992142857,
  "formation_energy_per_atom": -1.218640279370747,
  "energy_above_hull": 0.022924354404763002,
  "is_stable": false,
  "equilibrium_reaction_energy_per_atom": null,
  "decomposes_to": null,
  "xas": null,
  "grain_boundaries": null,
  "band_gap": 0.0,
  "cbm": null,
  "vbm": null,
  "efermi": 8.51170812,
  "is_gap_direct": null,
  "is_metal": null,
  "es_source_calc_id": null,
  "bandstructure": null,
  "dos": null,
  "dos_energy_up": null,
  "dos_energy_down": null,
  "is_magnetic": null,
  "ordering": null,
  "total_magnetization": 1e-7,
  "total_magnetization_normalized_vol": null,
  "total_magnetization_normalized_formula_units": null,
  "num_magnetic_sites": null,
  "num_unique_magnetic_sites": null,
  "types_of_magnetic_species": null,
  "bulk_modulus": null,
  "shear_modulus": null,
  "universal_anisotropy": null,
  "homogeneous_poisson": null,
  "e_total": null,
  "e_ionic": null,
  "e_electronic": null,
  "n": null,
  "e_ij_max": null,
  "weighted_surface_energy_EV_PER_ANG2": null,
  "weighted_surface_energy": null,
  "weighted_work_function": null,
  "surface_anisotropy": null,
  "shape_factor": null,
  "has_reconstructed": null,
  "possible_species": null,
  "has_props": null,
  "theoretical": null,
  "database_IDs": null,
  "fields_not_requested": [
    "builder_meta",
    "nsites",
    "elements",
    "nelements",
    "composition",
    "composition_reduced",
    "chemsys",
    "symmetry",
    "property_name",
    "deprecated",
    "deprecation_reasons",
    "last_updated",
    "origins",
    "warnings",
    "task_ids",
    "uncorrected_energy_per_atom",
    "equilibrium_reaction_energy_per_atom",
    "decomposes_to",
    "xas",
    "grain_boundaries",
    "cbm",
    "vbm",
    "is_gap_direct",
    "is_metal",
    "es_source_calc_id",
    "bandstructure",
    "dos",
    "dos_energy_up",
    "dos_energy_down",
    "is_magnetic",
    "ordering",
    "total_magnetization_normalized_vol",
    "total_magnetization_normalized_formula_units",
    "num_magnetic_sites",
    "num_unique_magnetic_sites",
    "types_of_magnetic_species",
    "bulk_modulus",
    "shear_modulus",
    "universal_anisotropy",
    "homogeneous_poisson",
    "e_total",
    "e_ionic",
    "e_electronic",
    "n",
    "e_ij_max",
    "weighted_surface_energy_EV_PER_ANG2",
    "weighted_surface_energy",
    "weighted_work_function",
    "surface_anisotropy",
    "shape_factor",
    "has_reconstructed",
    "possible_species",
    "has_props",
    "theoretical",
    "database_IDs"
  ]
}
