{"builder_meta": null, "nsites": null, "elements": null, "nelements": null, "composition": null, "composition_reduced": null, "formula_pretty": "Ti4Ru", "formula_anonymous": "AB4", "chemsys": null, "volume": 81.66149296197065, "density": 5.9485904536579035, "density_atomic": 16.33229859239413, "symmetry": null, "property_name": null, "material_id": "mp-1217110", "deprecated": null, "deprecation_reasons": null, "last_updated": null, "origins": null, "warnings": null, "structure": {"@module": "pymatgen.core.structure", "@class": "Structure", "charge": 0, "lattice": {"matrix": [[0.0, 2.372711, 11.053935], [1.556773999999999, 0.0, 11.053935], [1.556773999999999, 2.372711, 0.0]], "pbc": [true, true, true], "a": 11.30571698185241, "b": 11.163020391959382, "c": 2.8378341700312575, "alpha": 85.61237408320859, "beta": 79.89394994987691, "gamma": 14.493675966914486, "volume": 81.66149296197058}, "properties": {}, "sites": [{"species": [{"element": "Ti", "occu": 1}], "abc": [0.409616, 0.409616, 0.590384], "properties": {"magmom": 0.0}, "label": "Ti", "xyz": [1.556773999999999, 2.372711, 9.055737277919999]}, {"species": [{"element": "Ti", "occu": 1}], "abc": [0.803074, 0.803074, 0.196926], "properties": {"magmom": 0.0}, "label": "Ti", "xyz": [1.556773999999999, 2.372711, 17.754255592379998]}, {"species": [{"element": "Ti", "occu": 1}], "abc": [0.196926, 0.196926, 0.803074], "properties": {"magmom": 0.0}, "label": "Ti", "xyz": [1.556773999999999, 2.372711, 4.353614407619999]}, {"species": [{"element": "Ti", "occu": 1}], "abc": [0.590384, 0.590384, 0.409616], "properties": {"magmom": 0.0}, "label": "Ti", "xyz": [1.556773999999999, 2.372711, 13.05213272208]}, {"species": [{"element": "Ru", "occu": 1}], "abc": [0.0, 0.0, 0.0], "properties": {"magmom": -0.0}, "label": "Ru", "xyz": [0.0, 0.0, 0.0]}]}, "task_ids": null, "uncorrected_energy_per_atom": null, "energy_per_atom": -15.596328776000002, "formation_energy_per_atom": -0.16121610633333602, "energy_above_hull": 0.174679787999997, "is_stable": false, "equilibrium_reaction_energy_per_atom": null, "decomposes_to": null, "xas": null, "grain_boundaries": null, "band_gap": 0.0, "cbm": null, "vbm": null, "efermi": 6.39439333, "is_gap_direct": null, "is_metal": null, "es_source_calc_id": null, "bandstructure": null, "dos": null, "dos_energy_up": null, "dos_energy_down": null, "is_magnetic": null, "ordering": null, "total_magnetization": 0.0014302, "total_magnetization_normalized_vol": null, "total_magnetization_normalized_formula_units": null, "num_magnetic_sites": null, "num_unique_magnetic_sites": null, "types_of_magnetic_species": null, "bulk_modulus": null, "shear_modulus": null, "universal_anisotropy": null, "homogeneous_poisson": null, "e_total": null, "e_ionic": null, "e_electronic": null, "n": null, "e_ij_max": null, "weighted_surface_energy_EV_PER_ANG2": null, "weighted_surface_energy": null, "weighted_work_function": null, "surface_anisotropy": null, "shape_factor": null, "has_reconstructed": null, "possible_species": null, "has_props": null, "theoretical": null, "database_IDs": null, "fields_not_requested": ["builder_meta", "nsites", "elements", "nelements", "composition", "composition_reduced", "chemsys", "symmetry", "property_name", "deprecated", "deprecation_reasons", "last_updated", "origins", "warnings", "task_ids", "uncorrected_energy_per_atom", "equilibrium_reaction_energy_per_atom", "decomposes_to", "xas", "grain_boundaries", "cbm", "vbm", "is_gap_direct", "is_metal", "es_source_calc_id", "bandstructure", "dos", "dos_energy_up", "dos_energy_down", "is_magnetic", "ordering", "total_magnetization_normalized_vol", "total_magnetization_normalized_formula_units", "num_magnetic_sites", "num_unique_magnetic_sites", "types_of_magnetic_species", "bulk_modulus", "shear_modulus", "universal_anisotropy", "homogeneous_poisson", "e_total", "e_ionic", "e_electronic", "n", "e_ij_max", "weighted_surface_energy_EV_PER_ANG2", "weighted_surface_energy", "weighted_work_function", "surface_anisotropy", "shape_factor", "has_reconstructed", "possible_species", "has_props", "theoretical", "database_IDs"]}