{
  "builder_meta": null,
  "nsites": null,
  "elements": null,
  "nelements": null,
  "composition": null,
  "composition_reduced": null,
  "formula_pretty": "Ti4V",
  "formula_anonymous": "AB4",
  "chemsys": null,
  "volume": 81.94164320069113,
  "density": 4.912403866238034,
  "density_atomic": 16.388328640138226,
  "symmetry": null,
  "property_name": null,
  "material_id": "mp-1217117",
  "deprecated": null,
  "deprecation_reasons": null,
  "last_updated": null,
  "origins": null,
  "warnings": null,
  "structure": {
    "@module": "pymatgen.core.structure",
    "@class": "Structure",
    "charge": 0,
    "lattice": {
      "matrix": [
        [0.0, 2.263386, 11.371985],
        [1.591768, 0.0, 11.371985],
        [1.591768, 2.263386, 0.0]
      ],
      "pbc": [true, true, true],
      "a": 11.595040276998654,
      "b": 11.482846694354542,
      "c": 2.7670637055947958,
      "alpha": 85.42622500158512,
      "beta": 80.81220416320528,
      "gamma": 13.761570835209637,
      "volume": 81.94164320069113
    },
    "properties": {},
    "sites": [
      {
        "species": [{ "element": "Ti", "occu": 1 }],
        "abc": [0.408788999999999, 0.408788999999999, 0.591210999999999],
        "properties": { "magmom": 0.003 },
        "label": "Ti",
        "xyz": [1.591767999999997, 2.2633859999999957, 9.297484752329979]
      },
      {
        "species": [{ "element": "Ti", "occu": 1 }],
        "abc": [0.800605999999999, 0.800605999999999, 0.199394],
        "properties": { "magmom": 0.008 },
        "label": "Ti",
        "xyz": [1.5917679999999985, 2.263385999999998, 18.20895884581998]
      },
      {
        "species": [{ "element": "Ti", "occu": 1 }],
        "abc": [0.199394, 0.199394, 0.800605999999999],
        "properties": { "magmom": 0.008 },
        "label": "Ti",
        "xyz": [1.5917679999999985, 2.263385999999998, 4.53501115418]
      },
      {
        "species": [{ "element": "Ti", "occu": 1 }],
        "abc": [0.591210999999999, 0.591210999999999, 0.408788999999999],
        "properties": { "magmom": 0.003 },
        "label": "Ti",
        "xyz": [1.591767999999997, 2.2633859999999957, 13.446485247669978]
      },
      {
        "species": [{ "element": "V", "occu": 1 }],
        "abc": [0.0, 0.0, 0.0],
        "properties": { "magmom": 0.0 },
        "label": "V",
        "xyz": [0.0, 0.0, 0.0]
      }
    ]
  },
  "task_ids": null,
  "uncorrected_energy_per_atom": null,
  "energy_per_atom": -13.074879749333338,
  "formation_energy_per_atom": 0.09324100733333,
  "energy_above_hull": 0.093241007333331,
  "is_stable": false,
  "equilibrium_reaction_energy_per_atom": null,
  "decomposes_to": null,
  "xas": null,
  "grain_boundaries": null,
  "band_gap": 0.0,
  "cbm": null,
  "vbm": null,
  "efermi": 5.88511473,
  "is_gap_direct": null,
  "is_metal": null,
  "es_source_calc_id": null,
  "bandstructure": null,
  "dos": null,
  "dos_energy_up": null,
  "dos_energy_down": null,
  "is_magnetic": null,
  "ordering": null,
  "total_magnetization": 0.0400957,
  "total_magnetization_normalized_vol": null,
  "total_magnetization_normalized_formula_units": null,
  "num_magnetic_sites": null,
  "num_unique_magnetic_sites": null,
  "types_of_magnetic_species": null,
  "bulk_modulus": null,
  "shear_modulus": null,
  "universal_anisotropy": null,
  "homogeneous_poisson": null,
  "e_total": null,
  "e_ionic": null,
  "e_electronic": null,
  "n": null,
  "e_ij_max": null,
  "weighted_surface_energy_EV_PER_ANG2": null,
  "weighted_surface_energy": null,
  "weighted_work_function": null,
  "surface_anisotropy": null,
  "shape_factor": null,
  "has_reconstructed": null,
  "possible_species": null,
  "has_props": null,
  "theoretical": null,
  "database_IDs": null,
  "fields_not_requested": [
    "builder_meta",
    "nsites",
    "elements",
    "nelements",
    "composition",
    "composition_reduced",
    "chemsys",
    "symmetry",
    "property_name",
    "deprecated",
    "deprecation_reasons",
    "last_updated",
    "origins",
    "warnings",
    "task_ids",
    "uncorrected_energy_per_atom",
    "equilibrium_reaction_energy_per_atom",
    "decomposes_to",
    "xas",
    "grain_boundaries",
    "cbm",
    "vbm",
    "is_gap_direct",
    "is_metal",
    "es_source_calc_id",
    "bandstructure",
    "dos",
    "dos_energy_up",
    "dos_energy_down",
    "is_magnetic",
    "ordering",
    "total_magnetization_normalized_vol",
    "total_magnetization_normalized_formula_units",
    "num_magnetic_sites",
    "num_unique_magnetic_sites",
    "types_of_magnetic_species",
    "bulk_modulus",
    "shear_modulus",
    "universal_anisotropy",
    "homogeneous_poisson",
    "e_total",
    "e_ionic",
    "e_electronic",
    "n",
    "e_ij_max",
    "weighted_surface_energy_EV_PER_ANG2",
    "weighted_surface_energy",
    "weighted_work_function",
    "surface_anisotropy",
    "shape_factor",
    "has_reconstructed",
    "possible_species",
    "has_props",
    "theoretical",
    "database_IDs"
  ]
}
