{
  "builder_meta": null,
  "nsites": null,
  "elements": null,
  "nelements": null,
  "composition": null,
  "composition_reduced": null,
  "formula_pretty": "Ti5Cu2",
  "formula_anonymous": "A2B5",
  "chemsys": null,
  "volume": 451.86782866500397,
  "density": 5.386232964224853,
  "density_atomic": 16.138136738035858,
  "symmetry": null,
  "property_name": null,
  "material_id": "mp-1208489",
  "deprecated": null,
  "deprecation_reasons": null,
  "last_updated": null,
  "origins": null,
  "warnings": null,
  "structure": {
    "@module": "pymatgen.core.structure",
    "@class": "Structure",
    "charge": 0,
    "lattice": {
      "matrix": [
        [2.828237, 0.0, 0.0],
        [0.0, 12.123584, 0.0],
        [0.0, 0.0, 13.178458]
      ],
      "pbc": [true, true, true],
      "a": 2.828237,
      "b": 12.123584,
      "c": 13.178458,
      "alpha": 90.0,
      "beta": 90.0,
      "gamma": 90.0,
      "volume": 451.86782866500397
    },
    "properties": {},
    "sites": [
      {
        "species": [{ "element": "Ti", "occu": 1 }],
        "abc": [0.5, 0.663299, 0.002816],
        "properties": { "magmom": 0.02 },
        "label": "Ti",
        "xyz": [1.4141185, 8.041561143615999, 0.037110537728]
      },
      {
        "species": [{ "element": "Ti", "occu": 1 }],
        "abc": [0.5, 0.336701, 0.997184],
        "properties": { "magmom": 0.02 },
        "label": "Ti",
        "xyz": [1.4141185, 4.0820228563839995, 13.141347462271998]
      },
      {
        "species": [{ "element": "Ti", "occu": 1 }],
        "abc": [0.5, 0.163299, 0.497183999999999],
        "properties": { "magmom": 0.02 },
        "label": "Ti",
        "xyz": [1.4141185, 1.9797691436159999, 6.552118462271987]
      },
      {
        "species": [{ "element": "Ti", "occu": 1 }],
        "abc": [0.5, 0.836700999999999, 0.502815999999999],
        "properties": { "magmom": 0.02 },
        "label": "Ti",
        "xyz": [1.4141185, 10.143814856383987, 6.626339537727987]
      },
      {
        "species": [{ "element": "Ti", "occu": 1 }],
        "abc": [0.5, 0.567839, 0.663188],
        "properties": { "magmom": 0.301 },
        "label": "Ti",
        "xyz": [1.4141185, 6.884243814975999, 8.739795204103999]
      },
      {
        "species": [{ "element": "Ti", "occu": 1 }],
        "abc": [0.5, 0.432160999999999, 0.336812],
        "properties": { "magmom": 0.301 },
        "label": "Ti",
        "xyz": [1.4141185, 5.239340185023988, 4.438662795896]
      },
      {
        "species": [{ "element": "Ti", "occu": 1 }],
        "abc": [0.5, 0.067839, 0.836812],
        "properties": { "magmom": 0.301 },
        "label": "Ti",
        "xyz": [1.4141185, 0.822451814976, 11.027891795896]
      },
      {
        "species": [{ "element": "Ti", "occu": 1 }],
        "abc": [0.5, 0.932160999999999, 0.163188],
        "properties": { "magmom": 0.301 },
        "label": "Ti",
        "xyz": [1.4141185, 11.301132185023988, 2.150566204104]
      },
      {
        "species": [{ "element": "Ti", "occu": 1 }],
        "abc": [0.0, 0.994347, 0.621281],
        "properties": { "magmom": 0.011 },
        "label": "Ti",
        "xyz": [0.0, 12.055049379647999, 8.187525564698]
      },
      {
        "species": [{ "element": "Ti", "occu": 1 }],
        "abc": [0.0, 0.005653, 0.378719],
        "properties": { "magmom": 0.011 },
        "label": "Ti",
        "xyz": [0.0, 0.068534620352, 4.990932435302]
      },
      {
        "species": [{ "element": "Ti", "occu": 1 }],
        "abc": [0.0, 0.494347, 0.878718999999999],
        "properties": { "magmom": 0.011 },
        "label": "Ti",
        "xyz": [0.0, 5.993257379647999, 11.580161435301987]
      },
      {
        "species": [{ "element": "Ti", "occu": 1 }],
        "abc": [0.0, 0.505653, 0.121281],
        "properties": { "magmom": 0.011 },
        "label": "Ti",
        "xyz": [0.0, 6.130326620352, 1.5982965646979999]
      },
      {
        "species": [{ "element": "Ti", "occu": 1 }],
        "abc": [0.0, 0.706728999999999, 0.831171999999999],
        "properties": { "magmom": 0.016 },
        "label": "Ti",
        "xyz": [0.0, 8.568088396735988, 10.953565292775986]
      },
      {
        "species": [{ "element": "Ti", "occu": 1 }],
        "abc": [0.0, 0.293271, 0.168828],
        "properties": { "magmom": 0.016 },
        "label": "Ti",
        "xyz": [0.0, 3.5554956032639997, 2.224892707224]
      },
      {
        "species": [{ "element": "Ti", "occu": 1 }],
        "abc": [0.0, 0.206729, 0.668828],
        "properties": { "magmom": 0.016 },
        "label": "Ti",
        "xyz": [0.0, 2.506296396736, 8.814121707223999]
      },
      {
        "species": [{ "element": "Ti", "occu": 1 }],
        "abc": [0.0, 0.793271, 0.331171999999999],
        "properties": { "magmom": 0.016 },
        "label": "Ti",
        "xyz": [0.0, 9.617287603263998, 4.364336292775987]
      },
      {
        "species": [{ "element": "Ti", "occu": 1 }],
        "abc": [0.0, 0.892516, 0.96545],
        "properties": { "magmom": -0.17200000000000001 },
        "label": "Ti",
        "xyz": [0.0, 10.820492697344, 12.723142276099999]
      },
      {
        "species": [{ "element": "Ti", "occu": 1 }],
        "abc": [0.0, 0.107484, 0.034550000000000004],
        "properties": { "magmom": -0.17200000000000001 },
        "label": "Ti",
        "xyz": [0.0, 1.3030913026559998, 0.4553157239]
      },
      {
        "species": [{ "element": "Ti", "occu": 1 }],
        "abc": [0.0, 0.392516, 0.5345500000000001],
        "properties": { "magmom": -0.17200000000000001 },
        "label": "Ti",
        "xyz": [0.0, 4.758700697344, 7.0445447239000005]
      },
      {
        "species": [{ "element": "Ti", "occu": 1 }],
        "abc": [0.0, 0.607484, 0.46545000000000003],
        "properties": { "magmom": -0.17200000000000001 },
        "label": "Ti",
        "xyz": [0.0, 7.364883302656, 6.1339132761]
      },
      {
        "species": [{ "element": "Cu", "occu": 1 }],
        "abc": [0.0, 0.750417, 0.6430600000000001],
        "properties": { "magmom": 0.009000000000000001 },
        "label": "Cu",
        "xyz": [0.0, 9.097743534528, 8.47453920148]
      },
      {
        "species": [{ "element": "Cu", "occu": 1 }],
        "abc": [0.0, 0.249583, 0.35694000000000004],
        "properties": { "magmom": 0.009000000000000001 },
        "label": "Cu",
        "xyz": [0.0, 3.0258404654719997, 4.70391879852]
      },
      {
        "species": [{ "element": "Cu", "occu": 1 }],
        "abc": [0.0, 0.250417, 0.85694],
        "properties": { "magmom": 0.009000000000000001 },
        "label": "Cu",
        "xyz": [0.0, 3.035951534528, 11.29314779852]
      },
      {
        "species": [{ "element": "Cu", "occu": 1 }],
        "abc": [0.0, 0.749583, 0.14306000000000002],
        "properties": { "magmom": 0.009000000000000001 },
        "label": "Cu",
        "xyz": [0.0, 9.087632465472, 1.88531020148]
      },
      {
        "species": [{ "element": "Cu", "occu": 1 }],
        "abc": [0.5, 0.876163999999999, 0.759934999999999],
        "properties": { "magmom": 0.006 },
        "label": "Cu",
        "xyz": [1.4141185, 10.622247851775988, 10.014771480229987]
      },
      {
        "species": [{ "element": "Cu", "occu": 1 }],
        "abc": [0.5, 0.12383599999999902, 0.240065],
        "properties": { "magmom": 0.006 },
        "label": "Cu",
        "xyz": [1.4141185, 1.501336148223988, 3.1636865197699997]
      },
      {
        "species": [{ "element": "Cu", "occu": 1 }],
        "abc": [0.5, 0.376164, 0.740065],
        "properties": { "magmom": 0.006 },
        "label": "Cu",
        "xyz": [1.4141185, 4.560455851776, 9.75291551977]
      },
      {
        "species": [{ "element": "Cu", "occu": 1 }],
        "abc": [0.5, 0.623836, 0.25993499999999903],
        "properties": { "magmom": 0.006 },
        "label": "Cu",
        "xyz": [1.4141185, 7.563128148223999, 3.425542480229987]
      }
    ]
  },
  "task_ids": null,
  "uncorrected_energy_per_atom": null,
  "energy_per_atom": -12.243267887738096,
  "formation_energy_per_atom": 0.09707169321428501,
  "energy_above_hull": 0.193957297023809,
  "is_stable": false,
  "equilibrium_reaction_energy_per_atom": null,
  "decomposes_to": null,
  "xas": null,
  "grain_boundaries": null,
  "band_gap": 0.0,
  "cbm": null,
  "vbm": null,
  "efermi": 5.88969128,
  "is_gap_direct": null,
  "is_metal": null,
  "es_source_calc_id": null,
  "bandstructure": null,
  "dos": null,
  "dos_energy_up": null,
  "dos_energy_down": null,
  "is_magnetic": null,
  "ordering": null,
  "total_magnetization": 1.0139496,
  "total_magnetization_normalized_vol": null,
  "total_magnetization_normalized_formula_units": null,
  "num_magnetic_sites": null,
  "num_unique_magnetic_sites": null,
  "types_of_magnetic_species": null,
  "bulk_modulus": null,
  "shear_modulus": null,
  "universal_anisotropy": null,
  "homogeneous_poisson": null,
  "e_total": null,
  "e_ionic": null,
  "e_electronic": null,
  "n": null,
  "e_ij_max": null,
  "weighted_surface_energy_EV_PER_ANG2": null,
  "weighted_surface_energy": null,
  "weighted_work_function": null,
  "surface_anisotropy": null,
  "shape_factor": null,
  "has_reconstructed": null,
  "possible_species": null,
  "has_props": null,
  "theoretical": null,
  "database_IDs": null,
  "fields_not_requested": [
    "builder_meta",
    "nsites",
    "elements",
    "nelements",
    "composition",
    "composition_reduced",
    "chemsys",
    "symmetry",
    "property_name",
    "deprecated",
    "deprecation_reasons",
    "last_updated",
    "origins",
    "warnings",
    "task_ids",
    "uncorrected_energy_per_atom",
    "equilibrium_reaction_energy_per_atom",
    "decomposes_to",
    "xas",
    "grain_boundaries",
    "cbm",
    "vbm",
    "is_gap_direct",
    "is_metal",
    "es_source_calc_id",
    "bandstructure",
    "dos",
    "dos_energy_up",
    "dos_energy_down",
    "is_magnetic",
    "ordering",
    "total_magnetization_normalized_vol",
    "total_magnetization_normalized_formula_units",
    "num_magnetic_sites",
    "num_unique_magnetic_sites",
    "types_of_magnetic_species",
    "bulk_modulus",
    "shear_modulus",
    "universal_anisotropy",
    "homogeneous_poisson",
    "e_total",
    "e_ionic",
    "e_electronic",
    "n",
    "e_ij_max",
    "weighted_surface_energy_EV_PER_ANG2",
    "weighted_surface_energy",
    "weighted_work_function",
    "surface_anisotropy",
    "shape_factor",
    "has_reconstructed",
    "possible_species",
    "has_props",
    "theoretical",
    "database_IDs"
  ]
}
