{
  "builder_meta": null,
  "nsites": null,
  "elements": null,
  "nelements": null,
  "composition": null,
  "composition_reduced": null,
  "formula_pretty": "Ti5Ga3",
  "formula_anonymous": "A3B5",
  "chemsys": null,
  "volume": 262.6235562609579,
  "density": 5.6716802112475495,
  "density_atomic": 16.41397226630987,
  "symmetry": null,
  "property_name": null,
  "material_id": "mp-1188153",
  "deprecated": null,
  "deprecation_reasons": null,
  "last_updated": null,
  "origins": null,
  "warnings": null,
  "structure": {
    "@module": "pymatgen.core.structure",
    "@class": "Structure",
    "charge": 0,
    "lattice": {
      "matrix": [
        [0.0, 0.0, 4.976478],
        [-5.136778, 5.136778, 2.488238],
        [-5.136778, -5.136778, 2.488238]
      ],
      "pbc": [true, true, true],
      "a": 4.976478,
      "b": 7.678821835881595,
      "c": 7.678821835881595,
      "alpha": 83.97275884580279,
      "beta": 71.09263475418285,
      "gamma": 71.09263475418285,
      "volume": 262.6235562609579
    },
    "properties": {},
    "sites": [
      {
        "species": [{ "element": "Ti", "occu": 1 }],
        "abc": [0.722746, 0.854607, 0.699901999999999],
        "properties": { "magmom": 0.535 },
        "label": "Ti",
        "xyz": [-7.985167632001994, 0.7946852404900047, 7.4647179337299985]
      },
      {
        "species": [{ "element": "Ti", "occu": 1 }],
        "abc": [0.277254, 0.145393, 0.300098],
        "properties": { "magmom": 0.534 },
        "label": "Ti",
        "xyz": [-2.288388367998, -0.7946852404899999, 2.48823606627]
      },
      {
        "species": [{ "element": "Ti", "occu": 1 }],
        "abc": [0.777254, 0.300098, 0.145393],
        "properties": { "magmom": 0.527 },
        "label": "Ti",
        "xyz": [-2.288388367998, 0.7946852404899999, 4.97647506627]
      },
      {
        "species": [{ "element": "Ti", "occu": 1 }],
        "abc": [0.222746, 0.699901999999999, 0.854607],
        "properties": { "magmom": 0.529 },
        "label": "Ti",
        "xyz": [-7.985167632001994, -0.7946852404900047, 4.9764789337299975]
      },
      {
        "species": [{ "element": "Ti", "occu": 1 }],
        "abc": [0.577352, 0.699901999999999, 0.145393],
        "properties": { "magmom": 0.531 },
        "label": "Ti",
        "xyz": [-4.3420927595099945, 2.848389632001995, 4.976474666465998]
      },
      {
        "species": [{ "element": "Ti", "occu": 1 }],
        "abc": [0.422647999999999, 0.300098, 0.854607],
        "properties": { "magmom": 0.531 },
        "label": "Ti",
        "xyz": [-5.931463240489999, -2.8483896320019992, 4.976479333533995]
      },
      {
        "species": [{ "element": "Ti", "occu": 1 }],
        "abc": [0.077351999999999, 0.145393, 0.699901999999999],
        "properties": { "magmom": 0.539 },
        "label": "Ti",
        "xyz": [-4.3420927595099945, -2.848389632001995, 2.4882356664659926]
      },
      {
        "species": [{ "element": "Ti", "occu": 1 }],
        "abc": [0.922647999999999, 0.854607, 0.300098],
        "properties": { "magmom": 0.539 },
        "label": "Ti",
        "xyz": [-5.931463240489999, 2.8483896320019992, 7.464718333533995]
      },
      {
        "species": [{ "element": "Ti", "occu": 1 }],
        "abc": [0.75, 0.5, 0.5],
        "properties": { "magmom": 0.023 },
        "label": "Ti",
        "xyz": [-5.136778, 0.0, 6.220596499999999]
      },
      {
        "species": [{ "element": "Ti", "occu": 1 }],
        "abc": [0.25, 0.5, 0.5],
        "properties": { "magmom": 0.023 },
        "label": "Ti",
        "xyz": [-5.136778, 0.0, 3.7323575]
      },
      {
        "species": [{ "element": "Ga", "occu": 1 }],
        "abc": [0.164810999999999, 0.5, 0.170378],
        "properties": { "magmom": -0.015 },
        "label": "Ga",
        "xyz": [-3.4435829620839997, 1.693195037916, 2.488238329621995]
      },
      {
        "species": [{ "element": "Ga", "occu": 1 }],
        "abc": [0.835189, 0.5, 0.829622],
        "properties": { "magmom": -0.015 },
        "label": "Ga",
        "xyz": [-6.829973037915999, -1.6931950379159995, 7.464715670378]
      },
      {
        "species": [{ "element": "Ga", "occu": 1 }],
        "abc": [0.335188999999999, 0.829622, 0.5],
        "properties": { "magmom": -0.015 },
        "label": "Ga",
        "xyz": [-6.829973037915999, 1.6931950379159995, 4.976476670377995]
      },
      {
        "species": [{ "element": "Ga", "occu": 1 }],
        "abc": [0.664810999999999, 0.170378, 0.5],
        "properties": { "magmom": -0.015 },
        "label": "Ga",
        "xyz": [-3.4435829620839997, -1.693195037916, 4.976477329621995]
      },
      {
        "species": [{ "element": "Ga", "occu": 1 }],
        "abc": [0.25, 0.0, 0.0],
        "properties": { "magmom": -0.01 },
        "label": "Ga",
        "xyz": [0.0, 0.0, 1.2441195]
      },
      {
        "species": [{ "element": "Ga", "occu": 1 }],
        "abc": [0.75, 0.0, 0.0],
        "properties": { "magmom": -0.01 },
        "label": "Ga",
        "xyz": [0.0, 0.0, 3.7323585]
      }
    ]
  },
  "task_ids": null,
  "uncorrected_energy_per_atom": null,
  "energy_per_atom": -6.495875676875,
  "formation_energy_per_atom": -0.42565715802083304,
  "energy_above_hull": 0.0,
  "is_stable": true,
  "equilibrium_reaction_energy_per_atom": null,
  "decomposes_to": null,
  "xas": null,
  "grain_boundaries": null,
  "band_gap": 0.0,
  "cbm": null,
  "vbm": null,
  "efermi": 5.30861356,
  "is_gap_direct": null,
  "is_metal": null,
  "es_source_calc_id": null,
  "bandstructure": null,
  "dos": null,
  "dos_energy_up": null,
  "dos_energy_down": null,
  "is_magnetic": null,
  "ordering": null,
  "total_magnetization": 5.4262996,
  "total_magnetization_normalized_vol": null,
  "total_magnetization_normalized_formula_units": null,
  "num_magnetic_sites": null,
  "num_unique_magnetic_sites": null,
  "types_of_magnetic_species": null,
  "bulk_modulus": null,
  "shear_modulus": null,
  "universal_anisotropy": null,
  "homogeneous_poisson": null,
  "e_total": null,
  "e_ionic": null,
  "e_electronic": null,
  "n": null,
  "e_ij_max": null,
  "weighted_surface_energy_EV_PER_ANG2": null,
  "weighted_surface_energy": null,
  "weighted_work_function": null,
  "surface_anisotropy": null,
  "shape_factor": null,
  "has_reconstructed": null,
  "possible_species": null,
  "has_props": null,
  "theoretical": null,
  "database_IDs": null,
  "fields_not_requested": [
    "builder_meta",
    "nsites",
    "elements",
    "nelements",
    "composition",
    "composition_reduced",
    "chemsys",
    "symmetry",
    "property_name",
    "deprecated",
    "deprecation_reasons",
    "last_updated",
    "origins",
    "warnings",
    "task_ids",
    "uncorrected_energy_per_atom",
    "equilibrium_reaction_energy_per_atom",
    "decomposes_to",
    "xas",
    "grain_boundaries",
    "cbm",
    "vbm",
    "is_gap_direct",
    "is_metal",
    "es_source_calc_id",
    "bandstructure",
    "dos",
    "dos_energy_up",
    "dos_energy_down",
    "is_magnetic",
    "ordering",
    "total_magnetization_normalized_vol",
    "total_magnetization_normalized_formula_units",
    "num_magnetic_sites",
    "num_unique_magnetic_sites",
    "types_of_magnetic_species",
    "bulk_modulus",
    "shear_modulus",
    "universal_anisotropy",
    "homogeneous_poisson",
    "e_total",
    "e_ionic",
    "e_electronic",
    "n",
    "e_ij_max",
    "weighted_surface_energy_EV_PER_ANG2",
    "weighted_surface_energy",
    "weighted_work_function",
    "surface_anisotropy",
    "shape_factor",
    "has_reconstructed",
    "possible_species",
    "has_props",
    "theoretical",
    "database_IDs"
  ]
}
