{"builder_meta": null, "nsites": null, "elements": null, "nelements": null, "composition": null, "composition_reduced": null, "formula_pretty": "Ti5Ge3", "formula_anonymous": "A3B5", "chemsys": null, "volume": 256.61957508824906, "density": 5.9176295544645825, "density_atomic": 16.038723443015567, "symmetry": null, "property_name": null, "material_id": "mp-568151", "deprecated": null, "deprecation_reasons": null, "last_updated": null, "origins": null, "warnings": null, "structure": {"@module": "pymatgen.core.structure", "@class": "Structure", "charge": 0, "lattice": {"matrix": [[7.54957994, -8e-06, 2.6e-07], [-3.77479471, 6.538143919999999, 2.4e-07], [1.8e-07, 2.9e-07, 5.19891579]], "pbc": [true, true, true], "a": 7.549579940004243, "b": 7.549596083319755, "c": 5.198915790000012, "alpha": 89.99999640261855, "beta": 89.99999604306487, "gamma": 120.00003151776629, "volume": 256.61957508824895}, "properties": {}, "sites": [{"species": [{"element": "Ti", "occu": 1}], "abc": [-8.93e-06, 0.74912862, 0.750006899999999], "properties": {"magmom": -0.0}, "label": "Ti", "xyz": [-2.827874034633222, 4.89791094972443, 3.899222894807493]}, {"species": [{"element": "Ti", "occu": 1}], "abc": [0.25086758, 0.2508631, 0.75000686], "properties": {"magmom": -0.0}, "label": "Ti", "xyz": [0.9469882817513788, 1.640177262578701, 3.8992226324950345]}, {"species": [{"element": "Ti", "occu": 1}], "abc": [-4.8100000000000005e-06, 0.25086919, 0.24999311000000002], "properties": {"magmom": -0.0}, "label": "Ti", "xyz": [-0.9470159597947365, 1.6402189418503066, 1.299693187177562]}, {"species": [{"element": "Ti", "occu": 1}], "abc": [0.33332725, 0.66666196, 0.50000274], "properties": {"magmom": 0.133}, "label": "Ti", "xyz": [-3.1229910373378484e-05, 4.358729318852077, 2.59947238669322]}, {"species": [{"element": "Ti", "occu": 1}], "abc": [0.74913779, 5.84e-06, 0.75000691], "properties": {"magmom": -0.0}, "label": "Ti", "xyz": [5.65565372188007, 3.240716017669999e-05, 3.899222961785336]}, {"species": [{"element": "Ti", "occu": 1}], "abc": [0.7491334900000001, 0.74912625, 0.24999312], "properties": {"magmom": -0.0}, "label": "Ti", "xyz": [2.827845407862815, 4.897889316179984, 1.2996935535243723]}, {"species": [{"element": "Ti", "occu": 1}], "abc": [0.33332723000000003, 0.66666199, -2.729999999999999e-06], "properties": {"magmom": 0.133}, "label": "Ti", "xyz": [-3.158414679817342e-05, 4.358729369994968, -1.3946376149299994e-05]}, {"species": [{"element": "Ti", "occu": 1}], "abc": [0.25087336, 7.4e-06, 0.24999311000000002], "properties": {"magmom": -0.0}, "label": "Ti", "xyz": [1.8939605976543041, 4.644777612989999e-05, 1.2996931921990567]}, {"species": [{"element": "Ti", "occu": 1}], "abc": [0.66667282, 0.33333733, 0.50000278], "properties": {"magmom": 0.133}, "label": "Ti", "xyz": [3.7748198484862074, 2.1794022490667793, 2.5994726013217884]}, {"species": [{"element": "Ti", "occu": 1}], "abc": [0.66667283, 0.33333731, -2.78e-06], "properties": {"magmom": 0.133}, "label": "Ti", "xyz": [3.7748199094768995, 2.1794019733022085, -1.4199650006e-05]}, {"species": [{"element": "Ge", "occu": 1}], "abc": [0.61066295, 0.6106431, 0.74999761], "properties": {"magmom": -0.004}, "label": "Ge", "xyz": [2.3051965488427917, 3.9924678037506585, 3.899174722417973]}, {"species": [{"element": "Ge", "occu": 1}], "abc": [0.3893528, 1.6920000000000004e-05, 0.74999758], "properties": {"magmom": -0.004}, "label": "Ge", "xyz": [2.939386353935903, 0.0001077280720246, 3.899174362359577]}, {"species": [{"element": "Ge", "occu": 1}], "abc": [0.99998139, 0.61065088, 0.25000241], "properties": {"magmom": -0.004}, "label": "Ge", "xyz": [5.244357775836905, 3.9925154109642276, 1.2997418834384264]}, {"species": [{"element": "Ge", "occu": 1}], "abc": [0.61066871, 2.1110000000000003e-05, 0.25000243], "properties": {"magmom": -0.004}, "label": "Ge", "xyz": [4.610212602085787, 0.0001332073691759, 1.2997417396443005]}, {"species": [{"element": "Ge", "occu": 1}], "abc": [0.9999795300000001, 0.38933048000000003, 0.74999754], "properties": {"magmom": -0.004}, "label": "Ge", "xyz": [6.079782898752426, 2.545490928345728, 3.8991744066011496]}, {"species": [{"element": "Ge", "occu": 1}], "abc": [0.38935401000000003, 0.38933652, 0.25000241], "properties": {"magmom": -0.004}, "label": "Ge", "xyz": [1.4697938323491841, 2.545535158740577, 1.2997416715598613]}]}, "task_ids": null, "uncorrected_energy_per_atom": null, "energy_per_atom": -14.029944206875, "formation_energy_per_atom": -0.7418544810416651, "energy_above_hull": 0.0, "is_stable": true, "equilibrium_reaction_energy_per_atom": null, "decomposes_to": null, "xas": null, "grain_boundaries": null, "band_gap": 0.0, "cbm": null, "vbm": null, "efermi": 6.91870246, "is_gap_direct": null, "is_metal": null, "es_source_calc_id": null, "bandstructure": null, "dos": null, "dos_energy_up": null, "dos_energy_down": null, "is_magnetic": null, "ordering": null, "total_magnetization": 0.594568, "total_magnetization_normalized_vol": null, "total_magnetization_normalized_formula_units": null, "num_magnetic_sites": null, "num_unique_magnetic_sites": null, "types_of_magnetic_species": null, "bulk_modulus": null, "shear_modulus": null, "universal_anisotropy": null, "homogeneous_poisson": null, "e_total": null, "e_ionic": null, "e_electronic": null, "n": null, "e_ij_max": null, "weighted_surface_energy_EV_PER_ANG2": null, "weighted_surface_energy": null, "weighted_work_function": null, "surface_anisotropy": null, "shape_factor": null, "has_reconstructed": null, "possible_species": null, "has_props": null, "theoretical": null, "database_IDs": null, "fields_not_requested": ["builder_meta", "nsites", "elements", "nelements", "composition", "composition_reduced", "chemsys", "symmetry", "property_name", "deprecated", "deprecation_reasons", "last_updated", "origins", "warnings", "task_ids", "uncorrected_energy_per_atom", "equilibrium_reaction_energy_per_atom", "decomposes_to", "xas", "grain_boundaries", "cbm", "vbm", "is_gap_direct", "is_metal", "es_source_calc_id", "bandstructure", "dos", "dos_energy_up", "dos_energy_down", "is_magnetic", "ordering", "total_magnetization_normalized_vol", "total_magnetization_normalized_formula_units", "num_magnetic_sites", "num_unique_magnetic_sites", "types_of_magnetic_species", "bulk_modulus", "shear_modulus", "universal_anisotropy", "homogeneous_poisson", "e_total", "e_ionic", "e_electronic", "n", "e_ij_max", "weighted_surface_energy_EV_PER_ANG2", "weighted_surface_energy", "weighted_work_function", "surface_anisotropy", "shape_factor", "has_reconstructed", "possible_species", "has_props", "theoretical", "database_IDs"]}