{
  "builder_meta": null,
  "nsites": null,
  "elements": null,
  "nelements": null,
  "composition": null,
  "composition_reduced": null,
  "formula_pretty": "Ti5Ga4",
  "formula_anonymous": "A4B5",
  "chemsys": null,
  "volume": 288.0702244193743,
  "density": 5.97448889833296,
  "density_atomic": 16.003901356631907,
  "symmetry": null,
  "property_name": null,
  "material_id": "mp-30675",
  "deprecated": null,
  "deprecation_reasons": null,
  "last_updated": null,
  "origins": null,
  "warnings": null,
  "structure": {
    "@module": "pymatgen.core.structure",
    "@class": "Structure",
    "charge": 0,
    "lattice": {
      "matrix": [
        [7.83408465, -0.0, 0.0],
        [-3.917042829999999, 6.78451585, -0.0],
        [0.0, 0.0, 5.4198997]
      ],
      "pbc": [true, true, true],
      "a": 7.83408465,
      "b": 7.834084493478202,
      "c": 5.4198997,
      "alpha": 90.0,
      "beta": 90.0,
      "gamma": 120.00000492568485,
      "volume": 288.0702244193743
    },
    "properties": {},
    "sites": [
      {
        "species": [{ "element": "Ti", "occu": 1 }],
        "abc": [0.333333, 0.666667, 0.0],
        "properties": { "magmom": 0.723 },
        "label": "Ti",
        "xyz": [-4.253709159129926e-6, 4.52301282817195, 0.0]
      },
      {
        "species": [{ "element": "Ti", "occu": 1 }],
        "abc": [0.666667, 0.333333, 0.5],
        "properties": { "magmom": 0.723 },
        "label": "Ti",
        "xyz": [3.917046073709161, 2.26150302182805, 2.70994985]
      },
      {
        "species": [{ "element": "Ti", "occu": 1 }],
        "abc": [0.666667, 0.333333, 0.0],
        "properties": { "magmom": 0.723 },
        "label": "Ti",
        "xyz": [3.917046073709161, 2.26150302182805, 0.0]
      },
      {
        "species": [{ "element": "Ti", "occu": 1 }],
        "abc": [0.333333, 0.666667, 0.5],
        "properties": { "magmom": 0.723 },
        "label": "Ti",
        "xyz": [-4.253709159129926e-6, 4.52301282817195, 2.70994985]
      },
      {
        "species": [{ "element": "Ti", "occu": 1 }],
        "abc": [0.28044907, 0.0, 0.250002],
        "properties": { "magmom": 0.195 },
        "label": "Ti",
        "xyz": [2.1970617543937756, 0.0, 1.3549857647994001]
      },
      {
        "species": [{ "element": "Ti", "occu": 1 }],
        "abc": [0.28044907, 0.28044907, 0.749997999999999],
        "properties": { "magmom": 0.195 },
        "label": "Ti",
        "xyz": [1.0985307355701077, 1.9027111605327596, 4.064913935200595]
      },
      {
        "species": [{ "element": "Ti", "occu": 1 }],
        "abc": [-0.0, 0.71955093, 0.749997999999999],
        "properties": { "magmom": 0.195 },
        "label": "Ti",
        "xyz": [-2.8185118111763314, 4.88180468946724, 4.064913935200595]
      },
      {
        "species": [{ "element": "Ti", "occu": 1 }],
        "abc": [0.0, 0.28044907, 0.250002],
        "properties": { "magmom": 0.195 },
        "label": "Ti",
        "xyz": [-1.0985310188236679, 1.9027111605327596, 1.3549857647994001]
      },
      {
        "species": [{ "element": "Ti", "occu": 1 }],
        "abc": [0.71955093, 0.71955093, 0.250002],
        "properties": { "magmom": 0.195 },
        "label": "Ti",
        "xyz": [2.8185110844298933, 4.88180468946724, 1.3549857647994001]
      },
      {
        "species": [{ "element": "Ti", "occu": 1 }],
        "abc": [0.71955093, -0.0, 0.749997999999999],
        "properties": { "magmom": 0.195 },
        "label": "Ti",
        "xyz": [5.637022895606225, 0.0, 4.064913935200595]
      },
      {
        "species": [{ "element": "Ga", "occu": 1 }],
        "abc": [0.0, -0.0, 0.0],
        "properties": { "magmom": 0.035 },
        "label": "Ga",
        "xyz": [0.0, 0.0, 0.0]
      },
      {
        "species": [{ "element": "Ga", "occu": 1 }],
        "abc": [0.0, -0.0, 0.5],
        "properties": { "magmom": 0.035 },
        "label": "Ga",
        "xyz": [0.0, 0.0, 2.70994985]
      },
      {
        "species": [{ "element": "Ga", "occu": 1 }],
        "abc": [0.61968799, -0.0, 0.250001],
        "properties": { "magmom": -0.017 },
        "label": "Ga",
        "xyz": [4.8546881702483535, 0.0, 1.3549803448997]
      },
      {
        "species": [{ "element": "Ga", "occu": 1 }],
        "abc": [0.61968799, 0.61968799, 0.749999],
        "properties": { "magmom": -0.017 },
        "label": "Ga",
        "xyz": [2.4273437721817426, 4.2042829902096415, 4.0649193551003]
      },
      {
        "species": [{ "element": "Ga", "occu": 1 }],
        "abc": [0.0, 0.38031201000000003, 0.749999],
        "properties": { "magmom": -0.017 },
        "label": "Ga",
        "xyz": [-1.489698431933388, 2.5802328597903585, 4.0649193551003]
      },
      {
        "species": [{ "element": "Ga", "occu": 1 }],
        "abc": [-0.0, 0.61968799, 0.250001],
        "properties": { "magmom": -0.017 },
        "label": "Ga",
        "xyz": [-2.427344398066611, 4.2042829902096415, 1.3549803448997]
      },
      {
        "species": [{ "element": "Ga", "occu": 1 }],
        "abc": [0.38031201000000003, 0.38031201000000003, 0.250001],
        "properties": { "magmom": -0.017 },
        "label": "Ga",
        "xyz": [1.4896980478182589, 2.5802328597903585, 1.3549803448997]
      },
      {
        "species": [{ "element": "Ga", "occu": 1 }],
        "abc": [0.38031201000000003, 0.0, 0.749999],
        "properties": { "magmom": -0.017 },
        "label": "Ga",
        "xyz": [2.979396479751647, 0.0, 4.0649193551003]
      }
    ]
  },
  "task_ids": null,
  "uncorrected_energy_per_atom": null,
  "energy_per_atom": -6.171917132777777,
  "formation_energy_per_atom": -0.43971222462962906,
  "energy_above_hull": 0.01148857638889,
  "is_stable": false,
  "equilibrium_reaction_energy_per_atom": null,
  "decomposes_to": null,
  "xas": null,
  "grain_boundaries": null,
  "band_gap": 0.0,
  "cbm": null,
  "vbm": null,
  "efermi": 5.31611314,
  "is_gap_direct": null,
  "is_metal": null,
  "es_source_calc_id": null,
  "bandstructure": null,
  "dos": null,
  "dos_energy_up": null,
  "dos_energy_down": null,
  "is_magnetic": null,
  "ordering": null,
  "total_magnetization": 5.0369176,
  "total_magnetization_normalized_vol": null,
  "total_magnetization_normalized_formula_units": null,
  "num_magnetic_sites": null,
  "num_unique_magnetic_sites": null,
  "types_of_magnetic_species": null,
  "bulk_modulus": null,
  "shear_modulus": null,
  "universal_anisotropy": null,
  "homogeneous_poisson": null,
  "e_total": null,
  "e_ionic": null,
  "e_electronic": null,
  "n": null,
  "e_ij_max": null,
  "weighted_surface_energy_EV_PER_ANG2": null,
  "weighted_surface_energy": null,
  "weighted_work_function": null,
  "surface_anisotropy": null,
  "shape_factor": null,
  "has_reconstructed": null,
  "possible_species": null,
  "has_props": null,
  "theoretical": null,
  "database_IDs": null,
  "fields_not_requested": [
    "builder_meta",
    "nsites",
    "elements",
    "nelements",
    "composition",
    "composition_reduced",
    "chemsys",
    "symmetry",
    "property_name",
    "deprecated",
    "deprecation_reasons",
    "last_updated",
    "origins",
    "warnings",
    "task_ids",
    "uncorrected_energy_per_atom",
    "equilibrium_reaction_energy_per_atom",
    "decomposes_to",
    "xas",
    "grain_boundaries",
    "cbm",
    "vbm",
    "is_gap_direct",
    "is_metal",
    "es_source_calc_id",
    "bandstructure",
    "dos",
    "dos_energy_up",
    "dos_energy_down",
    "is_magnetic",
    "ordering",
    "total_magnetization_normalized_vol",
    "total_magnetization_normalized_formula_units",
    "num_magnetic_sites",
    "num_unique_magnetic_sites",
    "types_of_magnetic_species",
    "bulk_modulus",
    "shear_modulus",
    "universal_anisotropy",
    "homogeneous_poisson",
    "e_total",
    "e_ionic",
    "e_electronic",
    "n",
    "e_ij_max",
    "weighted_surface_energy_EV_PER_ANG2",
    "weighted_surface_energy",
    "weighted_work_function",
    "surface_anisotropy",
    "shape_factor",
    "has_reconstructed",
    "possible_species",
    "has_props",
    "theoretical",
    "database_IDs"
  ]
}
