{
  "builder_meta": null,
  "nsites": null,
  "elements": null,
  "nelements": null,
  "composition": null,
  "composition_reduced": null,
  "formula_pretty": "Ti5Mn7",
  "formula_anonymous": "A5B7",
  "chemsys": null,
  "volume": 175.98806790170337,
  "density": 5.886833804205797,
  "density_atomic": 14.665672325141948,
  "symmetry": null,
  "property_name": null,
  "material_id": "mp-1217189",
  "deprecated": null,
  "deprecation_reasons": null,
  "last_updated": null,
  "origins": null,
  "warnings": null,
  "structure": {
    "@module": "pymatgen.core.structure",
    "@class": "Structure",
    "charge": 0,
    "lattice": {
      "matrix": [
        [2.56136029, -4.4363376, -7.5e-7],
        [2.56135739, 4.4363362, 4.4e-7],
        [-2.899999999999999e-6, 2.299999999999999e-7, 7.74387407]
      ],
      "pbc": [true, true, true],
      "a": 5.122661206478836,
      "b": 5.122658544031434,
      "c": 7.743874070000547,
      "alpha": 90.00000433341154,
      "beta": 90.00002059077725,
      "gamma": 119.99925344676383,
      "volume": 175.98806790170337
    },
    "properties": {},
    "sites": [
      {
        "species": [{ "element": "Ti", "occu": 1 }],
        "abc": [0.6666671, 0.33333293, 0.06597428],
        "properties": { "magmom": -1.227 },
        "label": "Ti",
        "xyz": [2.5613592088498995, -1.4787833632278091, 0.5108961628450839]
      },
      {
        "species": [{ "element": "Ti", "occu": 1 }],
        "abc": [0.33333284, 0.6666672, 0.93408917],
        "properties": { "magmom": -1.227 },
        "label": "Ti",
        "xyz": [2.5613557502609385, 1.4787830361463656, 7.233468945964761]
      },
      {
        "species": [{ "element": "Ti", "occu": 1 }],
        "abc": [0.33333253, 0.6666674, 0.56068921],
        "properties": { "magmom": -1.054 },
        "label": "Ti",
        "xyz": [2.561356551370611, 1.4787852127962708, 4.3419066779820445]
      },
      {
        "species": [{ "element": "Ti", "occu": 1 }],
        "abc": [0.66666741, 0.33333262, 0.43921096],
        "properties": { "magmom": -1.054 },
        "label": "Ti",
        "xyz": [2.5613581264644267, -1.4787860279122507, 3.401194011069603]
      },
      {
        "species": [{ "element": "Ti", "occu": 1 }],
        "abc": [-1.7000000000000001e-7, 6.000000000000001e-8, 5.066e-5],
        "properties": { "magmom": -1.093 },
        "label": "Ti",
        "xyz": [
          -2.8189671990000005e-7, 1.0203692158000002e-6, 0.0003923046605401
        ]
      },
      {
        "species": [{ "element": "Mn", "occu": 1 }],
        "abc": [0.65593992, 0.82796759, 0.258577],
        "properties": { "magmom": 2.94 },
        "label": "Mn",
        "xyz": [3.800818619167467, 0.7631717209794765, 2.0023875977491894]
      },
      {
        "species": [{ "element": "Mn", "occu": 1 }],
        "abc": [0.17202925, 0.82797177, 0.25857616],
        "properties": { "magmom": 2.94 },
        "label": "Mn",
        "xyz": [2.561359751598499, 2.9099813652267907, 2.0023814558298123]
      },
      {
        "species": [{ "element": "Mn", "occu": 1 }],
        "abc": [0.17203361, 0.34406108, 0.25857661],
        "properties": { "magmom": 2.94 },
        "label": "Mn",
        "xyz": [1.321902697196559, 0.7631715111809806, 2.0023847276491704]
      },
      {
        "species": [{ "element": "Mn", "occu": 1 }],
        "abc": [0.34400705, 0.1720054, 0.741434199999999],
        "properties": { "magmom": 2.942 },
        "label": "Mn",
        "xyz": [1.3216911496007704, -0.7630574574347337, 5.741572893668275]
      },
      {
        "species": [{ "element": "Mn", "occu": 1 }],
        "abc": [0.82799716, 0.17200214, 0.7414347800000001],
        "properties": { "magmom": 2.942 },
        "label": "Mn",
        "xyz": [2.561355848080729, -2.9102154429117486, 5.741577022121227]
      },
      {
        "species": [{ "element": "Mn", "occu": 1 }],
        "abc": [0.82799309, 0.65599194, 0.74143462],
        "properties": { "magmom": 2.942 },
        "label": "Mn",
        "xyz": [3.8010162742594344, -0.7630559168469926, 5.74157599605994]
      },
      {
        "species": [{ "element": "Mn", "occu": 1 }],
        "abc": [2e-7, -1.5e-7, 0.49995236],
        "properties": { "magmom": -2.592 },
        "label": "Mn",
        "xyz": [-1.3217933944999993e-6, -1.4377289072e-6, 3.8715681168390894]
      }
    ]
  },
  "task_ids": null,
  "uncorrected_energy_per_atom": null,
  "energy_per_atom": -8.8752510925,
  "formation_energy_per_atom": -0.240953831848656,
  "energy_above_hull": 0.019532749019608,
  "is_stable": false,
  "equilibrium_reaction_energy_per_atom": null,
  "decomposes_to": null,
  "xas": null,
  "grain_boundaries": null,
  "band_gap": 0.0,
  "cbm": null,
  "vbm": null,
  "efermi": 6.30432735,
  "is_gap_direct": null,
  "is_metal": null,
  "es_source_calc_id": null,
  "bandstructure": null,
  "dos": null,
  "dos_energy_up": null,
  "dos_energy_down": null,
  "is_magnetic": null,
  "ordering": null,
  "total_magnetization": 7.9755543,
  "total_magnetization_normalized_vol": null,
  "total_magnetization_normalized_formula_units": null,
  "num_magnetic_sites": null,
  "num_unique_magnetic_sites": null,
  "types_of_magnetic_species": null,
  "bulk_modulus": null,
  "shear_modulus": null,
  "universal_anisotropy": null,
  "homogeneous_poisson": null,
  "e_total": null,
  "e_ionic": null,
  "e_electronic": null,
  "n": null,
  "e_ij_max": null,
  "weighted_surface_energy_EV_PER_ANG2": null,
  "weighted_surface_energy": null,
  "weighted_work_function": null,
  "surface_anisotropy": null,
  "shape_factor": null,
  "has_reconstructed": null,
  "possible_species": null,
  "has_props": null,
  "theoretical": null,
  "database_IDs": null,
  "fields_not_requested": [
    "builder_meta",
    "nsites",
    "elements",
    "nelements",
    "composition",
    "composition_reduced",
    "chemsys",
    "symmetry",
    "property_name",
    "deprecated",
    "deprecation_reasons",
    "last_updated",
    "origins",
    "warnings",
    "task_ids",
    "uncorrected_energy_per_atom",
    "equilibrium_reaction_energy_per_atom",
    "decomposes_to",
    "xas",
    "grain_boundaries",
    "cbm",
    "vbm",
    "is_gap_direct",
    "is_metal",
    "es_source_calc_id",
    "bandstructure",
    "dos",
    "dos_energy_up",
    "dos_energy_down",
    "is_magnetic",
    "ordering",
    "total_magnetization_normalized_vol",
    "total_magnetization_normalized_formula_units",
    "num_magnetic_sites",
    "num_unique_magnetic_sites",
    "types_of_magnetic_species",
    "bulk_modulus",
    "shear_modulus",
    "universal_anisotropy",
    "homogeneous_poisson",
    "e_total",
    "e_ionic",
    "e_electronic",
    "n",
    "e_ij_max",
    "weighted_surface_energy_EV_PER_ANG2",
    "weighted_surface_energy",
    "weighted_work_function",
    "surface_anisotropy",
    "shape_factor",
    "has_reconstructed",
    "possible_species",
    "has_props",
    "theoretical",
    "database_IDs"
  ]
}
