{
  "builder_meta": null,
  "nsites": null,
  "elements": null,
  "nelements": null,
  "composition": null,
  "composition_reduced": null,
  "formula_pretty": "Ti5Mn3",
  "formula_anonymous": "A3B5",
  "chemsys": null,
  "volume": 234.14915742573686,
  "density": 5.732289919624812,
  "density_atomic": 14.634322339108554,
  "symmetry": null,
  "property_name": null,
  "material_id": "mp-1208237",
  "deprecated": null,
  "deprecation_reasons": null,
  "last_updated": null,
  "origins": null,
  "warnings": null,
  "structure": {
    "@module": "pymatgen.core.structure",
    "@class": "Structure",
    "charge": 0,
    "lattice": {
      "matrix": [
        [0.0, 0.0, -5.254802],
        [-3.586516, -6.212029, 0.0],
        [-3.586516, 6.212029, 0.0]
      ],
      "pbc": [true, true, true],
      "a": 5.254802,
      "b": 7.173032923045662,
      "c": 7.173032923045662,
      "alpha": 120.00000851358257,
      "beta": 90.0,
      "gamma": 90.0,
      "volume": 234.14915742573686
    },
    "properties": {},
    "sites": [
      {
        "species": [{ "element": "Ti", "occu": 1 }],
        "abc": [0.0, 0.666667, 0.333333],
        "properties": { "magmom": -0.20800000000000002 },
        "label": "Ti",
        "xyz": [-3.5865160000000005, -2.0706804746860006, 0.0]
      },
      {
        "species": [{ "element": "Ti", "occu": 1 }],
        "abc": [0.0, 0.333333, 0.666667],
        "properties": { "magmom": -0.20800000000000002 },
        "label": "Ti",
        "xyz": [-3.5865160000000005, 2.0706804746860006, 0.0]
      },
      {
        "species": [{ "element": "Ti", "occu": 1 }],
        "abc": [0.5, 0.333333, 0.666667],
        "properties": { "magmom": -0.20800000000000002 },
        "label": "Ti",
        "xyz": [-3.5865160000000005, 2.0706804746860006, -2.627401]
      },
      {
        "species": [{ "element": "Ti", "occu": 1 }],
        "abc": [0.5, 0.666667, 0.333333],
        "properties": { "magmom": -0.20800000000000002 },
        "label": "Ti",
        "xyz": [-3.5865160000000005, -2.0706804746860006, -2.627401]
      },
      {
        "species": [{ "element": "Ti", "occu": 1 }],
        "abc": [0.75, 0.7613700000000001, 0.7613700000000001],
        "properties": { "magmom": -0.115 },
        "label": "Ti",
        "xyz": [-5.461331373840001, 0.0, -3.9411015]
      },
      {
        "species": [{ "element": "Ti", "occu": 1 }],
        "abc": [0.25, 0.23863, 0.23863],
        "properties": { "magmom": -0.115 },
        "label": "Ti",
        "xyz": [-1.71170062616, 0.0, -1.3137005]
      },
      {
        "species": [{ "element": "Ti", "occu": 1 }],
        "abc": [0.75, 0.0, 0.23863],
        "properties": { "magmom": -0.117 },
        "label": "Ti",
        "xyz": [-0.85585031308, 1.4823764802700001, -3.9411015]
      },
      {
        "species": [{ "element": "Ti", "occu": 1 }],
        "abc": [0.25, 0.0, 0.7613700000000001],
        "properties": { "magmom": -0.117 },
        "label": "Ti",
        "xyz": [-2.7306656869200006, 4.729652519730001, -1.3137005]
      },
      {
        "species": [{ "element": "Ti", "occu": 1 }],
        "abc": [0.75, 0.23863, 0.0],
        "properties": { "magmom": -0.117 },
        "label": "Ti",
        "xyz": [-0.85585031308, -1.4823764802700001, -3.9411015]
      },
      {
        "species": [{ "element": "Ti", "occu": 1 }],
        "abc": [0.25, 0.7613700000000001, 0.0],
        "properties": { "magmom": -0.117 },
        "label": "Ti",
        "xyz": [-2.7306656869200006, -4.729652519730001, -1.3137005]
      },
      {
        "species": [{ "element": "Mn", "occu": 1 }],
        "abc": [0.75, 0.398781, 0.398781],
        "properties": { "magmom": 0.5730000000000001 },
        "label": "Mn",
        "xyz": [-2.860468873992, 0.0, -3.9411015]
      },
      {
        "species": [{ "element": "Mn", "occu": 1 }],
        "abc": [0.25, 0.601219, 0.601219],
        "properties": { "magmom": 0.5730000000000001 },
        "label": "Mn",
        "xyz": [-4.3125631260079995, 0.0, -1.3137005]
      },
      {
        "species": [{ "element": "Mn", "occu": 1 }],
        "abc": [0.75, 0.0, 0.601219],
        "properties": { "magmom": 0.5660000000000001 },
        "label": "Mn",
        "xyz": [-2.1562815630039998, 3.7347898633509997, -3.9411015]
      },
      {
        "species": [{ "element": "Mn", "occu": 1 }],
        "abc": [0.25, 0.0, 0.398781],
        "properties": { "magmom": 0.5660000000000001 },
        "label": "Mn",
        "xyz": [-1.430234436996, 2.477239136649, -1.3137005]
      },
      {
        "species": [{ "element": "Mn", "occu": 1 }],
        "abc": [0.75, 0.601219, 0.0],
        "properties": { "magmom": 0.5660000000000001 },
        "label": "Mn",
        "xyz": [-2.1562815630039998, -3.7347898633509997, -3.9411015]
      },
      {
        "species": [{ "element": "Mn", "occu": 1 }],
        "abc": [0.25, 0.398781, 0.0],
        "properties": { "magmom": 0.5660000000000001 },
        "label": "Mn",
        "xyz": [-1.430234436996, -2.477239136649, -1.3137005]
      }
    ]
  },
  "task_ids": null,
  "uncorrected_energy_per_atom": null,
  "energy_per_atom": -8.421973988125,
  "formation_energy_per_atom": -0.051535743182471005,
  "energy_above_hull": 0.12434828446666601,
  "is_stable": false,
  "equilibrium_reaction_energy_per_atom": null,
  "decomposes_to": null,
  "xas": null,
  "grain_boundaries": null,
  "band_gap": 0.0,
  "cbm": null,
  "vbm": null,
  "efermi": 6.02687094,
  "is_gap_direct": null,
  "is_metal": null,
  "es_source_calc_id": null,
  "bandstructure": null,
  "dos": null,
  "dos_energy_up": null,
  "dos_energy_down": null,
  "is_magnetic": null,
  "ordering": null,
  "total_magnetization": 1.6716598,
  "total_magnetization_normalized_vol": null,
  "total_magnetization_normalized_formula_units": null,
  "num_magnetic_sites": null,
  "num_unique_magnetic_sites": null,
  "types_of_magnetic_species": null,
  "bulk_modulus": null,
  "shear_modulus": null,
  "universal_anisotropy": null,
  "homogeneous_poisson": null,
  "e_total": null,
  "e_ionic": null,
  "e_electronic": null,
  "n": null,
  "e_ij_max": null,
  "weighted_surface_energy_EV_PER_ANG2": null,
  "weighted_surface_energy": null,
  "weighted_work_function": null,
  "surface_anisotropy": null,
  "shape_factor": null,
  "has_reconstructed": null,
  "possible_species": null,
  "has_props": null,
  "theoretical": null,
  "database_IDs": null,
  "fields_not_requested": [
    "builder_meta",
    "nsites",
    "elements",
    "nelements",
    "composition",
    "composition_reduced",
    "chemsys",
    "symmetry",
    "property_name",
    "deprecated",
    "deprecation_reasons",
    "last_updated",
    "origins",
    "warnings",
    "task_ids",
    "uncorrected_energy_per_atom",
    "equilibrium_reaction_energy_per_atom",
    "decomposes_to",
    "xas",
    "grain_boundaries",
    "cbm",
    "vbm",
    "is_gap_direct",
    "is_metal",
    "es_source_calc_id",
    "bandstructure",
    "dos",
    "dos_energy_up",
    "dos_energy_down",
    "is_magnetic",
    "ordering",
    "total_magnetization_normalized_vol",
    "total_magnetization_normalized_formula_units",
    "num_magnetic_sites",
    "num_unique_magnetic_sites",
    "types_of_magnetic_species",
    "bulk_modulus",
    "shear_modulus",
    "universal_anisotropy",
    "homogeneous_poisson",
    "e_total",
    "e_ionic",
    "e_electronic",
    "n",
    "e_ij_max",
    "weighted_surface_energy_EV_PER_ANG2",
    "weighted_surface_energy",
    "weighted_work_function",
    "surface_anisotropy",
    "shape_factor",
    "has_reconstructed",
    "possible_species",
    "has_props",
    "theoretical",
    "database_IDs"
  ]
}
