{
  "builder_meta": null,
  "nsites": null,
  "elements": null,
  "nelements": null,
  "composition": null,
  "composition_reduced": null,
  "formula_pretty": "Ti5O8",
  "formula_anonymous": "A5B8",
  "chemsys": null,
  "volume": 410.3530261794498,
  "density": 4.459327275743663,
  "density_atomic": 10.521872466139738,
  "symmetry": null,
  "property_name": null,
  "material_id": "mp-759920",
  "deprecated": null,
  "deprecation_reasons": null,
  "last_updated": null,
  "origins": null,
  "warnings": null,
  "structure": {
    "@module": "pymatgen.core.structure",
    "@class": "Structure",
    "charge": 0,
    "lattice": {
      "matrix": [
        [2.53651712, 1.46204212, 4.61588519],
        [7.60519175, -1.45693432, -4.61690739],
        [2.53836205, 7.30582374, -4.61640769]
      ],
      "pbc": [true, true, true],
      "a": 5.466066441964324,
      "b": 9.015399770109951,
      "c": 9.007195033811522,
      "alpha": 68.3383946477082,
      "beta": 94.8805838429519,
      "gamma": 94.8314724512938,
      "volume": 410.3530261794498
    },
    "properties": {},
    "sites": [
      {
        "species": [{ "element": "Ti", "occu": 1 }],
        "abc": [0.67633023, 0.06814801, 0.07165091],
        "properties": { "magmom": 0.0 },
        "label": "Ti",
        "xyz": [2.4156778413914206, 1.4130050279511879, 2.4764598293040025]
      },
      {
        "species": [{ "element": "Ti", "occu": 1 }],
        "abc": [0.20015508, 0.06923327, 0.59376714],
        "properties": { "magmom": -0.0 },
        "label": "Ti",
        "xyz": [2.541425055617529, 4.529724897787046, -2.1368219175869063]
      },
      {
        "species": [{ "element": "Ti", "occu": 1 }],
        "abc": [0.30323774000000003, 0.17387469, 0.17368453],
        "properties": { "magmom": -0.0 },
        "label": "Ti",
        "xyz": [2.532392296486003, 1.4589309075579904, -0.20485134800592397]
      },
      {
        "species": [{ "element": "Ti", "occu": 1 }],
        "abc": [0.81161854, 0.17328797, 0.67236437],
        "properties": { "magmom": -0.0 },
        "label": "Ti",
        "xyz": [5.08327676201781, 5.846326876392919, -0.15762455872568104]
      },
      {
        "species": [{ "element": "Ti", "occu": 1 }],
        "abc": [0.30630069, 0.42192321, 0.420414399999999],
        "properties": { "magmom": -0.0 },
        "label": "Ti",
        "xyz": [5.052907818111848, 2.9045836092693444, -2.474935836750472]
      },
      {
        "species": [{ "element": "Ti", "occu": 1 }],
        "abc": [0.19509994, 0.593024099999999, 0.06676139],
        "properties": { "magmom": -0.0 },
        "label": "Ti",
        "xyz": [5.17440090957339, -0.09100588601023923, -2.145576220313295]
      },
      {
        "species": [{ "element": "Ti", "occu": 1 }],
        "abc": [0.18950672000000002, 0.32095701, 0.826637],
        "properties": { "magmom": -0.0 },
        "label": "Ti",
        "xyz": [5.019930634117564, 5.848717742511843, -4.423180932726357]
      },
      {
        "species": [{ "element": "Ti", "occu": 1 }],
        "abc": [0.69269623, 0.32745143, 0.32485004],
        "properties": { "magmom": 0.0 },
        "label": "Ti",
        "xyz": [5.071953773793142, 2.9089729722970796, 0.18595311943995885]
      },
      {
        "species": [{ "element": "Ti", "occu": 1 }],
        "abc": [0.81069941, 0.67312152, 0.17344066],
        "properties": { "magmom": -0.0 },
        "label": "Ti",
        "xyz": [7.615826352561314, 1.4717097313698513, -0.16631711647796976]
      },
      {
        "species": [{ "element": "Ti", "occu": 1 }],
        "abc": [0.19705115, 0.83166146, 0.32341573],
        "properties": { "magmom": -0.0 },
        "label": "Ti",
        "xyz": [7.64571470528069, 1.439239275522561, -4.423157318733685]
      },
      {
        "species": [{ "element": "Ti", "occu": 1 }],
        "abc": [0.30501063, 0.67338548, 0.673110299999999],
        "properties": { "magmom": -0.0 },
        "label": "Ti",
        "xyz": [7.6034880228268875, 4.3824851810845775, -4.80841591425933]
      },
      {
        "species": [{ "element": "Ti", "occu": 1 }],
        "abc": [0.80641571, 0.42207017, 0.92582873],
        "properties": { "magmom": 0.0 },
        "label": "Ti",
        "xyz": [7.6055003420887495, 7.328026732936521, -2.5003394229941542]
      },
      {
        "species": [{ "element": "Ti", "occu": 1 }],
        "abc": [0.69047175, 0.57778366, 0.57782142],
        "properties": { "magmom": -0.0 },
        "label": "Ti",
        "xyz": [7.612268903273276, 4.38916738509741, -2.1478945714715842]
      },
      {
        "species": [{ "element": "Ti", "occu": 1 }],
        "abc": [0.68193661, 0.82960822, 0.83749765],
        "properties": { "magmom": 0.0 },
        "label": "Ti",
        "xyz": [10.16494572822013, 5.906945572682114, -4.548713814921868]
      },
      {
        "species": [{ "element": "Ti", "occu": 1 }],
        "abc": [0.807960399999999, 0.92630996, 0.42367433],
        "properties": { "magmom": 0.0 },
        "label": "Ti",
        "xyz": [10.169609093448052, 2.9269893425528135, -2.5030882903557297]
      },
      {
        "species": [{ "element": "O", "occu": 1 }],
        "abc": [0.15753815000000002, 0.03328623, 0.37822612],
        "properties": { "magmom": -0.0 },
        "label": "O",
        "xyz": [1.6128212056394764, 2.9450849265205536, -1.172547396754104]
      },
      {
        "species": [{ "element": "O", "occu": 1 }],
        "abc": [0.9963427300000001, 0.21552262, 0.03241189],
        "properties": { "magmom": 0.0 },
        "label": "O",
        "xyz": [4.2486043551396975, 1.3794882908217379, 3.4543291763375734]
      },
      {
        "species": [{ "element": "O", "occu": 1 }],
        "abc": [0.6572897400000001, 0.12737661, 0.2791268],
        "properties": { "magmom": -0.0 },
        "label": "O",
        "xyz": [3.3444750980832567, 2.8146571321598257, 1.1573248583777114]
      },
      {
        "species": [{ "element": "O", "occu": 1 }],
        "abc": [0.16322339, 0.14168374, 0.76643147],
        "properties": { "magmom": 0.0 },
        "label": "O",
        "xyz": [3.4370314910502957, 5.6316287963663285, -3.4388804096522487]
      },
      {
        "species": [{ "element": "O", "occu": 1 }],
        "abc": [0.99910272, 0.27980038, 0.46575091],
        "properties": { "magmom": -0.0 },
        "label": "O",
        "xyz": [5.844421130238397, 4.455773537680129, 1.1698349238414107]
      },
      {
        "species": [{ "element": "O", "occu": 1 }],
        "abc": [0.67622508, 0.03363693, 0.87207303],
        "properties": { "magmom": 0.0 },
        "label": "O",
        "xyz": [4.184708879105209, 7.310874597411665, -1.059765900748948]
      },
      {
        "species": [{ "element": "O", "occu": 1 }],
        "abc": [0.34352001, 0.37965012000000004, 0.21333148000000002],
        "properties": { "magmom": 0.0 },
        "label": "O",
        "xyz": [4.300168879840415, 1.5076776253360382, -1.1519856028058162]
      },
      {
        "species": [{ "element": "O", "occu": 1 }],
        "abc": [0.50004603, 0.21882763, 0.52878284],
        "properties": { "magmom": 0.0 },
        "label": "O",
        "xyz": [4.2748436959783085, 4.275465099264143, -1.143229006803929]
      },
      {
        "species": [{ "element": "O", "occu": 1 }],
        "abc": [0.16022313, 0.62781938, 0.2815436],
        "properties": { "magmom": 0.0 },
        "label": "O",
        "xyz": [5.8957550711914815, 1.376469279900178, -3.458732402355057]
      },
      {
        "species": [{ "element": "O", "occu": 1 }],
        "abc": [0.49801089, 0.28048235, 0.9675526],
        "properties": { "magmom": 0.0 },
        "label": "O",
        "xyz": [5.8523340038908795, 7.388237290308159, -3.4628172059893405]
      },
      {
        "species": [{ "element": "O", "occu": 1 }],
        "abc": [0.34041776, 0.46938729999999906, 0.6235824],
        "properties": { "magmom": 0.0 },
        "label": "O",
        "xyz": [6.016133796914739, 4.369621738540093, -3.474498984053824]
      },
      {
        "species": [{ "element": "O", "occu": 1 }],
        "abc": [0.85143296, 0.4668769, 0.12756702],
        "properties": { "magmom": -0.0 },
        "label": "O",
        "xyz": [6.034173910117442, 1.4966040342081222, 1.185688008393188]
      },
      {
        "species": [{ "element": "O", "occu": 1 }],
        "abc": [0.15208553, 0.5303209, 0.87399467],
        "properties": { "magmom": 0.0 },
        "label": "O",
        "xyz": [6.637474586312122, 5.834963739598701, -5.781148852348162]
      },
      {
        "species": [{ "element": "O", "occu": 1 }],
        "abc": [0.65645506, 0.53040323, 0.37620426],
        "properties": { "magmom": 0.0 },
        "label": "O",
        "xyz": [6.653870383802313, 2.935484292178406, -1.1554136417870673]
      },
      {
        "species": [{ "element": "O", "occu": 1 }],
        "abc": [0.99808012, 0.72000791, 0.53268715],
        "properties": { "magmom": 0.0 },
        "label": "O",
        "xyz": [9.359598374661054, 4.301949366287124, -1.1762876518202146]
      },
      {
        "species": [{ "element": "O", "occu": 1 }],
        "abc": [0.50918439, 0.70985639, 0.03616518],
        "properties": { "magmom": 0.0 },
        "label": "O",
        "xyz": [6.781949203827958, -0.025548681230424697, -1.0939577431117717]
      },
      {
        "species": [{ "element": "O", "occu": 1 }],
        "abc": [0.84044311, 0.37496429000000003, 0.71965246],
        "properties": { "magmom": 0.0 },
        "label": "O",
        "xyz": [6.810212155406794, 5.940118910225761, -1.1739956474719797]
      },
      {
        "species": [{ "element": "O", "occu": 1 }],
        "abc": [0.64856871, 0.6246384700000001, 0.78463173],
        "properties": { "magmom": -0.0 },
        "label": "O",
        "xyz": [8.387280381845786, 5.770558667390045, -3.5123592172248914]
      },
      {
        "species": [{ "element": "O", "occu": 1 }],
        "abc": [0.501518999999999, 0.780898, 0.46830656],
        "properties": { "magmom": 0.0 },
        "label": "O",
        "xyz": [8.399722156366826, 3.016889989006653, -3.45227362729406]
      },
      {
        "species": [{ "element": "O", "occu": 1 }],
        "abc": [0.97563027, 0.7684109100000001, 0.96483138],
        "properties": { "magmom": -0.0 },
        "label": "O",
        "xyz": [10.767706555628344, 7.355776322746503, -3.4983396969122356]
      },
      {
        "species": [{ "element": "O", "occu": 1 }],
        "abc": [0.35516579, 0.96894398, 0.14005968],
        "properties": { "magmom": 0.0 },
        "label": "O",
        "xyz": [8.625411046128633, 0.13083094110448446, -3.4806926955133015]
      },
      {
        "species": [{ "element": "O", "occu": 1 }],
        "abc": [0.34993858, 0.8710347700000001, 0.7093496300000001],
        "properties": { "magmom": -0.0 },
        "label": "O",
        "xyz": [9.312597826859179, 4.4249678598609, -5.680857644558975]
      },
      {
        "species": [{ "element": "O", "occu": 1 }],
        "abc": [0.84635216, 0.87488834, 0.22055115],
        "properties": { "magmom": 0.0 },
        "label": "O",
        "xyz": [9.360318998172032, 1.5740554851134514, -1.1507680664006656]
      },
      {
        "species": [{ "element": "O", "occu": 1 }],
        "abc": [0.84062287, 0.96646645, 0.62928941],
        "properties": { "magmom": -0.0 },
        "label": "O",
        "xyz": [11.079781330221213, 4.418425413750315, -3.4869239107433327]
      }
    ]
  },
  "task_ids": null,
  "uncorrected_energy_per_atom": null,
  "energy_per_atom": -9.420351276923077,
  "formation_energy_per_atom": -3.338724498205128,
  "energy_above_hull": 0.013142276923078,
  "is_stable": false,
  "equilibrium_reaction_energy_per_atom": null,
  "decomposes_to": null,
  "xas": null,
  "grain_boundaries": null,
  "band_gap": 0.0,
  "cbm": null,
  "vbm": null,
  "efermi": 6.27802778,
  "is_gap_direct": null,
  "is_metal": null,
  "es_source_calc_id": null,
  "bandstructure": null,
  "dos": null,
  "dos_energy_up": null,
  "dos_energy_down": null,
  "is_magnetic": null,
  "ordering": null,
  "total_magnetization": 1.9600000000000002e-5,
  "total_magnetization_normalized_vol": null,
  "total_magnetization_normalized_formula_units": null,
  "num_magnetic_sites": null,
  "num_unique_magnetic_sites": null,
  "types_of_magnetic_species": null,
  "bulk_modulus": null,
  "shear_modulus": null,
  "universal_anisotropy": null,
  "homogeneous_poisson": null,
  "e_total": null,
  "e_ionic": null,
  "e_electronic": null,
  "n": null,
  "e_ij_max": null,
  "weighted_surface_energy_EV_PER_ANG2": null,
  "weighted_surface_energy": null,
  "weighted_work_function": null,
  "surface_anisotropy": null,
  "shape_factor": null,
  "has_reconstructed": null,
  "possible_species": null,
  "has_props": null,
  "theoretical": null,
  "database_IDs": null,
  "fields_not_requested": [
    "builder_meta",
    "nsites",
    "elements",
    "nelements",
    "composition",
    "composition_reduced",
    "chemsys",
    "symmetry",
    "property_name",
    "deprecated",
    "deprecation_reasons",
    "last_updated",
    "origins",
    "warnings",
    "task_ids",
    "uncorrected_energy_per_atom",
    "equilibrium_reaction_energy_per_atom",
    "decomposes_to",
    "xas",
    "grain_boundaries",
    "cbm",
    "vbm",
    "is_gap_direct",
    "is_metal",
    "es_source_calc_id",
    "bandstructure",
    "dos",
    "dos_energy_up",
    "dos_energy_down",
    "is_magnetic",
    "ordering",
    "total_magnetization_normalized_vol",
    "total_magnetization_normalized_formula_units",
    "num_magnetic_sites",
    "num_unique_magnetic_sites",
    "types_of_magnetic_species",
    "bulk_modulus",
    "shear_modulus",
    "universal_anisotropy",
    "homogeneous_poisson",
    "e_total",
    "e_ionic",
    "e_electronic",
    "n",
    "e_ij_max",
    "weighted_surface_energy_EV_PER_ANG2",
    "weighted_surface_energy",
    "weighted_work_function",
    "surface_anisotropy",
    "shape_factor",
    "has_reconstructed",
    "possible_species",
    "has_props",
    "theoretical",
    "database_IDs"
  ]
}
