{"builder_meta": null, "nsites": null, "elements": null, "nelements": null, "composition": null, "composition_reduced": null, "formula_pretty": "Ti5O7", "formula_anonymous": "A5B7", "chemsys": null, "volume": 277.1632814646329, "density": 4.209782158855519, "density_atomic": 11.548470061026372, "symmetry": null, "property_name": null, "material_id": "mp-1045759", "deprecated": null, "deprecation_reasons": null, "last_updated": null, "origins": null, "warnings": null, "structure": {"@module": "pymatgen.core.structure", "@class": "Structure", "charge": 0, "lattice": {"matrix": [[1.454944, -4.957008, 0.0], [1.454944, 4.957008, 0.0], [0.0, 0.0, 19.214974]], "pbc": [true, true, true], "a": 5.166119467763013, "b": 5.166119467763013, "c": 19.214974, "alpha": 90.0, "beta": 90.0, "gamma": 147.28474941762758, "volume": 277.1632814646329}, "properties": {}, "sites": [{"species": [{"element": "Ti", "occu": 1}], "abc": [0.726121999999999, 0.273878, 0.571230999999999], "properties": {"magmom": -0.046}, "label": "Ti", "xyz": [1.4549439999999985, -2.2417771259519954, 10.976188812993982]}, {"species": [{"element": "Ti", "occu": 1}], "abc": [0.0, 0.0, 0.5], "properties": {"magmom": -0.02}, "label": "Ti", "xyz": [0.0, 0.0, 9.607487]}, {"species": [{"element": "Ti", "occu": 1}], "abc": [0.0, 0.0, 0.0], "properties": {"magmom": -0.02}, "label": "Ti", "xyz": [0.0, 0.0, 0.0]}, {"species": [{"element": "Ti", "occu": 1}], "abc": [0.273878, 0.726121999999999, 0.428768999999999], "properties": {"magmom": -0.046}, "label": "Ti", "xyz": [1.4549439999999985, 2.2417771259519954, 8.238785187005982]}, {"species": [{"element": "Ti", "occu": 1}], "abc": [0.273878, 0.726121999999999, 0.071231], "properties": {"magmom": -0.046}, "label": "Ti", "xyz": [1.4549439999999985, 2.2417771259519954, 1.368701812994]}, {"species": [{"element": "Ti", "occu": 1}], "abc": [0.726121999999999, 0.273878, 0.928769], "properties": {"magmom": -0.046}, "label": "Ti", "xyz": [1.4549439999999985, -2.2417771259519954, 17.846272187006]}, {"species": [{"element": "Ti", "occu": 1}], "abc": [0.520824, 0.479176, 0.159885], "properties": {"magmom": 0.096}, "label": "Ti", "xyz": [1.454944, -0.20644946918399976, 3.0721861179900003]}, {"species": [{"element": "Ti", "occu": 1}], "abc": [0.479176, 0.520824, 0.840115], "properties": {"magmom": 0.096}, "label": "Ti", "xyz": [1.454944, 0.20644946918399976, 16.14278788201]}, {"species": [{"element": "Ti", "occu": 1}], "abc": [0.479176, 0.520824, 0.6598849999999991], "properties": {"magmom": 0.096}, "label": "Ti", "xyz": [1.454944, 0.20644946918399976, 12.679673117989983]}, {"species": [{"element": "Ti", "occu": 1}], "abc": [0.520824, 0.479176, 0.340115], "properties": {"magmom": 0.096}, "label": "Ti", "xyz": [1.454944, -0.20644946918399976, 6.5353008820100005]}, {"species": [{"element": "O", "occu": 1}], "abc": [0.359861, 0.640139, 0.969375], "properties": {"magmom": -0.001}, "label": "O", "xyz": [1.454944, 1.389340288224, 18.62651542125]}, {"species": [{"element": "O", "occu": 1}], "abc": [0.640139, 0.359861, 0.030625], "properties": {"magmom": -0.001}, "label": "O", "xyz": [1.454944, -1.389340288224, 0.5884585787500001]}, {"species": [{"element": "O", "occu": 1}], "abc": [0.640139, 0.359861, 0.469375], "properties": {"magmom": -0.001}, "label": "O", "xyz": [1.454944, -1.389340288224, 9.01902842125]}, {"species": [{"element": "O", "occu": 1}], "abc": [0.359861, 0.640139, 0.530625], "properties": {"magmom": -0.001}, "label": "O", "xyz": [1.454944, 1.389340288224, 10.19594557875]}, {"species": [{"element": "O", "occu": 1}], "abc": [0.843622, 0.156378, 0.845795], "properties": {"magmom": -0.002}, "label": "O", "xyz": [1.454944, -3.4066740059520004, 16.25192893433]}, {"species": [{"element": "O", "occu": 1}], "abc": [0.156378, 0.843622, 0.154204999999999], "properties": {"magmom": -0.002}, "label": "O", "xyz": [1.454944, 3.4066740059520004, 2.963045065669981]}, {"species": [{"element": "O", "occu": 1}], "abc": [0.156378, 0.843622, 0.345794999999999], "properties": {"magmom": -0.002}, "label": "O", "xyz": [1.454944, 3.4066740059520004, 6.644441934329982]}, {"species": [{"element": "O", "occu": 1}], "abc": [0.843622, 0.156378, 0.654204999999999], "properties": {"magmom": -0.002}, "label": "O", "xyz": [1.454944, -3.4066740059520004, 12.570532065669983]}, {"species": [{"element": "O", "occu": 1}], "abc": [0.088341999999999, 0.911658, 0.893972], "properties": {"magmom": -0.002}, "label": "O", "xyz": [1.4549439999999985, 4.0811839985280045, 17.177648736728003]}, {"species": [{"element": "O", "occu": 1}], "abc": [0.911658, 0.088341999999999, 0.106028], "properties": {"magmom": -0.002}, "label": "O", "xyz": [1.4549439999999985, -4.0811839985280045, 2.0373252632720003]}, {"species": [{"element": "O", "occu": 1}], "abc": [0.911658, 0.088341999999999, 0.393972], "properties": {"magmom": -0.002}, "label": "O", "xyz": [1.4549439999999985, -4.0811839985280045, 7.570161736728]}, {"species": [{"element": "O", "occu": 1}], "abc": [0.088341999999999, 0.911658, 0.606028], "properties": {"magmom": -0.002}, "label": "O", "xyz": [1.4549439999999985, 4.0811839985280045, 11.644812263272001]}, {"species": [{"element": "O", "occu": 1}], "abc": [0.533732, 0.466267999999999, 0.75], "properties": {"magmom": -0.008}, "label": "O", "xyz": [1.4549439999999985, -0.33441958771200486, 14.411230500000002]}, {"species": [{"element": "O", "occu": 1}], "abc": [0.466267999999999, 0.533732, 0.25], "properties": {"magmom": -0.008}, "label": "O", "xyz": [1.4549439999999985, 0.33441958771200486, 4.8037435]}]}, "task_ids": null, "uncorrected_energy_per_atom": null, "energy_per_atom": -9.258616994999999, "formation_energy_per_atom": -3.08251806847222, "energy_above_hull": 0.155007673333335, "is_stable": false, "equilibrium_reaction_energy_per_atom": null, "decomposes_to": null, "xas": null, "grain_boundaries": null, "band_gap": 0.0, "cbm": null, "vbm": null, "efermi": 6.19984281, "is_gap_direct": null, "is_metal": null, "es_source_calc_id": null, "bandstructure": null, "dos": null, "dos_energy_up": null, "dos_energy_down": null, "is_magnetic": null, "ordering": null, "total_magnetization": 0.1357919, "total_magnetization_normalized_vol": null, "total_magnetization_normalized_formula_units": null, "num_magnetic_sites": null, "num_unique_magnetic_sites": null, "types_of_magnetic_species": null, "bulk_modulus": null, "shear_modulus": null, "universal_anisotropy": null, "homogeneous_poisson": null, "e_total": null, "e_ionic": null, "e_electronic": null, "n": null, "e_ij_max": null, "weighted_surface_energy_EV_PER_ANG2": null, "weighted_surface_energy": null, "weighted_work_function": null, "surface_anisotropy": null, "shape_factor": null, "has_reconstructed": null, "possible_species": null, "has_props": null, "theoretical": null, "database_IDs": null, "fields_not_requested": ["builder_meta", "nsites", "elements", "nelements", "composition", "composition_reduced", "chemsys", "symmetry", "property_name", "deprecated", "deprecation_reasons", "last_updated", "origins", "warnings", "task_ids", "uncorrected_energy_per_atom", "equilibrium_reaction_energy_per_atom", "decomposes_to", "xas", "grain_boundaries", "cbm", "vbm", "is_gap_direct", "is_metal", "es_source_calc_id", "bandstructure", "dos", "dos_energy_up", "dos_energy_down", "is_magnetic", "ordering", "total_magnetization_normalized_vol", "total_magnetization_normalized_formula_units", "num_magnetic_sites", "num_unique_magnetic_sites", "types_of_magnetic_species", "bulk_modulus", "shear_modulus", "universal_anisotropy", "homogeneous_poisson", "e_total", "e_ionic", "e_electronic", "n", "e_ij_max", "weighted_surface_energy_EV_PER_ANG2", "weighted_surface_energy", "weighted_work_function", "surface_anisotropy", "shape_factor", "has_reconstructed", "possible_species", "has_props", "theoretical", "database_IDs"]}