{"builder_meta": null, "nsites": null, "elements": null, "nelements": null, "composition": null, "composition_reduced": null, "formula_pretty": "Ti5P3", "formula_anonymous": "A3B5", "chemsys": null, "volume": 469.8558243595735, "density": 4.696968852336254, "density_atomic": 14.682994511236672, "symmetry": null, "property_name": null, "material_id": "mp-680570", "deprecated": null, "deprecation_reasons": null, "last_updated": null, "origins": null, "warnings": null, "structure": {"@module": "pymatgen.core.structure", "@class": "Structure", "charge": 0, "lattice": {"matrix": [[6.48971648, 0.0, 0.0], [0.0, 7.40298322, 0.0], [0.0, 0.0, 9.77984847]], "pbc": [true, true, true], "a": 6.48971648, "b": 7.40298322, "c": 9.77984847, "alpha": 90.0, "beta": 90.0, "gamma": 90.0, "volume": 469.8558243595735}, "properties": {}, "sites": [{"species": [{"element": "Ti", "occu": 1}], "abc": [0.844071199999999, 0.25, 0.22340249], "properties": {"magmom": -0.0}, "label": "Ti", "xyz": [5.47778277693337, 1.850745805, 2.1848425000206904]}, {"species": [{"element": "Ti", "occu": 1}], "abc": [0.80543803, 0.9549383300000001, 0.92707531], "properties": {"magmom": 0.0}, "label": "Ti", "xyz": [5.227064456909734, 7.069392433124824, 9.066656052078274]}, {"species": [{"element": "Ti", "occu": 1}], "abc": [0.14464576, 0.25, 0.79239417], "properties": {"magmom": 0.0}, "label": "Ti", "xyz": [0.9387099724341249, 1.850745805, 7.7494949111114195]}, {"species": [{"element": "Ti", "occu": 1}], "abc": [0.1559288, 0.75, 0.77659751], "properties": {"magmom": -0.0}, "label": "Ti", "xyz": [1.011933703066624, 5.5522374150000005, 7.595005969979309]}, {"species": [{"element": "Ti", "occu": 1}], "abc": [0.35535424, 0.25, 0.29239417], "properties": {"magmom": 0.0}, "label": "Ti", "xyz": [2.306148267565875, 1.850745805, 2.85957067611142]}, {"species": [{"element": "Ti", "occu": 1}], "abc": [0.69456197, 0.9549383300000001, 0.42707531], "properties": {"magmom": 0.0}, "label": "Ti", "xyz": [4.507510263090266, 7.069392433124824, 4.1767318170782755]}, {"species": [{"element": "Ti", "occu": 1}], "abc": [0.96976597, 0.25, 0.49991986], "properties": {"magmom": 0.0}, "label": "Ti", "xyz": [6.293506197252186, 1.850745805, 4.889140477943614]}, {"species": [{"element": "Ti", "occu": 1}], "abc": [0.030234030000000002, 0.75, 0.50008014], "properties": {"magmom": 0.0}, "label": "Ti", "xyz": [0.1962102827478144, 5.5522374150000005, 4.890707992056385]}, {"species": [{"element": "Ti", "occu": 1}], "abc": [0.19456197, 0.04506167, 0.07292469], "properties": {"magmom": 0.0}, "label": "Ti", "xyz": [1.2626520230902656, 0.3335907868751774, 0.7131924179217243]}, {"species": [{"element": "Ti", "occu": 1}], "abc": [0.6446457600000001, 0.75, 0.70760583], "properties": {"magmom": 0.0}, "label": "Ti", "xyz": [4.183568212434126, 5.5522374150000005, 6.920277793888579]}, {"species": [{"element": "Ti", "occu": 1}], "abc": [0.46976597000000003, 0.75, 8.014e-05], "properties": {"magmom": 0.0}, "label": "Ti", "xyz": [3.048647957252186, 5.5522374150000005, 0.0007837570563857999]}, {"species": [{"element": "Ti", "occu": 1}], "abc": [0.69456197, 0.54506167, 0.42707531], "properties": {"magmom": 0.0}, "label": "Ti", "xyz": [4.507510263090266, 4.035082396875178, 4.1767318170782755]}, {"species": [{"element": "Ti", "occu": 1}], "abc": [0.344071199999999, 0.75, 0.27659751], "properties": {"magmom": -0.0}, "label": "Ti", "xyz": [2.23292453693337, 5.5522374150000005, 2.7050817349793093]}, {"species": [{"element": "Ti", "occu": 1}], "abc": [0.6559288, 0.25, 0.72340249], "properties": {"magmom": -0.0}, "label": "Ti", "xyz": [4.256791943066624, 1.850745805, 7.07476673502069]}, {"species": [{"element": "Ti", "occu": 1}], "abc": [0.30543803, 0.04506167, 0.57292469], "properties": {"magmom": 0.0}, "label": "Ti", "xyz": [1.9822062169097348, 0.3335907868751774, 5.603116652921724]}, {"species": [{"element": "Ti", "occu": 1}], "abc": [0.30543803, 0.45493833, 0.57292469], "properties": {"magmom": 0.0}, "label": "Ti", "xyz": [1.9822062169097348, 3.3679008231248226, 5.603116652921724]}, {"species": [{"element": "Ti", "occu": 1}], "abc": [0.85535424, 0.75, 0.20760583], "properties": {"magmom": 0.0}, "label": "Ti", "xyz": [5.551006507565876, 5.5522374150000005, 2.0303535588885797]}, {"species": [{"element": "Ti", "occu": 1}], "abc": [0.19456197, 0.45493833, 0.07292469], "properties": {"magmom": 0.0}, "label": "Ti", "xyz": [1.2626520230902656, 3.3679008231248226, 0.7131924179217243]}, {"species": [{"element": "Ti", "occu": 1}], "abc": [0.80543803, 0.54506167, 0.92707531], "properties": {"magmom": 0.0}, "label": "Ti", "xyz": [5.227064456909734, 4.035082396875178, 9.066656052078274]}, {"species": [{"element": "Ti", "occu": 1}], "abc": [0.53023403, 0.25, -8.014e-05], "properties": {"magmom": 0.0}, "label": "Ti", "xyz": [3.441068522747815, 1.850745805, -0.0007837570563857999]}, {"species": [{"element": "P", "occu": 1}], "abc": [0.42352479, 0.75, 0.51352504], "properties": {"magmom": -0.0}, "label": "P", "xyz": [2.748555809351539, 5.5522374150000005, 5.022197076750689]}, {"species": [{"element": "P", "occu": 1}], "abc": [0.92822698, 0.99089631, 0.6738812200000001], "properties": {"magmom": 0.0}, "label": "P", "xyz": [6.023929929286631, 7.335588755689918, 6.590456218378733]}, {"species": [{"element": "P", "occu": 1}], "abc": [0.92352479, 0.25, 0.98647496], "properties": {"magmom": -0.0}, "label": "P", "xyz": [5.993414049351539, 1.850745805, 9.64757562824931]}, {"species": [{"element": "P", "occu": 1}], "abc": [0.42822698000000003, 0.49089631, 0.82611878], "properties": {"magmom": 0.0}, "label": "P", "xyz": [2.7790716892866305, 3.6340971456899185, 8.079316486621266]}, {"species": [{"element": "P", "occu": 1}], "abc": [0.07647521, 0.75, 0.01352504], "properties": {"magmom": -0.0}, "label": "P", "xyz": [0.4963024306484608, 5.5522374150000005, 0.1322728417506888]}, {"species": [{"element": "P", "occu": 1}], "abc": [0.07177302, 0.49089631, 0.32611878], "properties": {"magmom": 0.0}, "label": "P", "xyz": [0.46578655071336966, 3.6340971456899185, 3.1893922516212663]}, {"species": [{"element": "P", "occu": 1}], "abc": [0.57647521, 0.25, 0.48647496], "properties": {"magmom": -0.0}, "label": "P", "xyz": [3.741160670648461, 1.850745805, 4.7576513932493105]}, {"species": [{"element": "P", "occu": 1}], "abc": [0.57177302, 0.50910369, 0.17388122], "properties": {"magmom": 0.0}, "label": "P", "xyz": [3.7106447907133697, 3.768886074310082, 1.7005319833787333]}, {"species": [{"element": "P", "occu": 1}], "abc": [0.57177302, 0.99089631, 0.17388122], "properties": {"magmom": 0.0}, "label": "P", "xyz": [3.7106447907133697, 7.335588755689918, 1.7005319833787333]}, {"species": [{"element": "P", "occu": 1}], "abc": [0.92822698, 0.50910369, 0.6738812200000001], "properties": {"magmom": 0.0}, "label": "P", "xyz": [6.023929929286631, 3.768886074310082, 6.590456218378733]}, {"species": [{"element": "P", "occu": 1}], "abc": [0.07177302, 0.00910469, 0.32611878], "properties": {"magmom": 0.0}, "label": "P", "xyz": [0.46578655071336966, 0.0674018672933018, 3.1893922516212663]}, {"species": [{"element": "P", "occu": 1}], "abc": [0.42822698000000003, 0.00910469, 0.82611878], "properties": {"magmom": 0.0}, "label": "P", "xyz": [2.7790716892866305, 0.0674018672933018, 8.079316486621266]}]}, "task_ids": null, "uncorrected_energy_per_atom": null, "energy_per_atom": -12.65305589625, "formation_energy_per_atom": -1.191179145907737, "energy_above_hull": 0.015513296770834002, "is_stable": false, "equilibrium_reaction_energy_per_atom": null, "decomposes_to": null, "xas": null, "grain_boundaries": null, "band_gap": 0.0, "cbm": null, "vbm": null, "efermi": 8.17994923, "is_gap_direct": null, "is_metal": null, "es_source_calc_id": null, "bandstructure": null, "dos": null, "dos_energy_up": null, "dos_energy_down": null, "is_magnetic": null, "ordering": null, "total_magnetization": 6e-07, "total_magnetization_normalized_vol": null, "total_magnetization_normalized_formula_units": null, "num_magnetic_sites": null, "num_unique_magnetic_sites": null, "types_of_magnetic_species": null, "bulk_modulus": null, "shear_modulus": null, "universal_anisotropy": null, "homogeneous_poisson": null, "e_total": null, "e_ionic": null, "e_electronic": null, "n": null, "e_ij_max": null, "weighted_surface_energy_EV_PER_ANG2": null, "weighted_surface_energy": null, "weighted_work_function": null, "surface_anisotropy": null, "shape_factor": null, "has_reconstructed": null, "possible_species": null, "has_props": null, "theoretical": null, "database_IDs": null, "fields_not_requested": ["builder_meta", "nsites", "elements", "nelements", "composition", "composition_reduced", "chemsys", "symmetry", "property_name", "deprecated", "deprecation_reasons", "last_updated", "origins", "warnings", "task_ids", "uncorrected_energy_per_atom", "equilibrium_reaction_energy_per_atom", "decomposes_to", "xas", "grain_boundaries", "cbm", "vbm", "is_gap_direct", "is_metal", "es_source_calc_id", "bandstructure", "dos", "dos_energy_up", "dos_energy_down", "is_magnetic", "ordering", "total_magnetization_normalized_vol", "total_magnetization_normalized_formula_units", "num_magnetic_sites", "num_unique_magnetic_sites", "types_of_magnetic_species", "bulk_modulus", "shear_modulus", "universal_anisotropy", "homogeneous_poisson", "e_total", "e_ionic", "e_electronic", "n", "e_ij_max", "weighted_surface_energy_EV_PER_ANG2", "weighted_surface_energy", "weighted_work_function", "surface_anisotropy", "shape_factor", "has_reconstructed", "possible_species", "has_props", "theoretical", "database_IDs"]}