{"builder_meta": null, "nsites": null, "elements": null, "nelements": null, "composition": null, "composition_reduced": null, "formula_pretty": "Ti5Si3", "formula_anonymous": "A3B5", "chemsys": null, "volume": 245.66856891761668, "density": 4.374481682676191, "density_atomic": 15.354285557351043, "symmetry": null, "property_name": null, "material_id": "mp-2108", "deprecated": null, "deprecation_reasons": null, "last_updated": null, "origins": null, "warnings": null, "structure": {"@module": "pymatgen.core.structure", "@class": "Structure", "charge": 0, "lattice": {"matrix": [[7.44707532, -0.0, -0.0], [-3.72353817, 6.44935672, 0.0], [0.0, 0.0, 5.11502135]], "pbc": [true, true, true], "a": 7.44707532, "b": 7.447075842587888, "c": 5.11502135, "alpha": 90.0, "beta": 90.0, "gamma": 120.0000022094928, "volume": 245.66856891761668}, "properties": {}, "sites": [{"species": [{"element": "Ti", "occu": 1}], "abc": [0.333333, 0.666667, 0.0], "properties": {"magmom": -0.0}, "label": "Ti", "xyz": [-4.063537830223396e-06, 4.29957329645224, 0.0]}, {"species": [{"element": "Ti", "occu": 1}], "abc": [0.666667, 0.333333, 0.5], "properties": {"magmom": -0.0}, "label": "Ti", "xyz": [3.72354121353783, 2.1497834235477598, 2.557510675]}, {"species": [{"element": "Ti", "occu": 1}], "abc": [0.666667, 0.333333, 0.0], "properties": {"magmom": -0.0}, "label": "Ti", "xyz": [3.72354121353783, 2.1497834235477598, 0.0]}, {"species": [{"element": "Ti", "occu": 1}], "abc": [0.333333, 0.666667, 0.5], "properties": {"magmom": -0.0}, "label": "Ti", "xyz": [-4.063537830223396e-06, 4.29957329645224, 2.557510675]}, {"species": [{"element": "Ti", "occu": 1}], "abc": [0.25032516, 0.0, 0.25], "properties": {"magmom": 0.0}, "label": "Ti", "xyz": [1.864190321011051, 0.0, 1.2787553375]}, {"species": [{"element": "Ti", "occu": 1}], "abc": [0.25032516, 0.25032516, 0.75], "properties": {"magmom": 0.0}, "label": "Ti", "xyz": [0.932095032839694, 1.6144362528310752, 3.8362660125000003]}, {"species": [{"element": "Ti", "occu": 1}], "abc": [0.0, 0.7496748400000001, 0.75], "properties": {"magmom": 0.0}, "label": "Ti", "xyz": [-2.791442881828643, 4.834920467168925, 3.8362660125000003]}, {"species": [{"element": "Ti", "occu": 1}], "abc": [-0.0, 0.25032516, 0.25], "properties": {"magmom": 0.0}, "label": "Ti", "xyz": [-0.9320952881713571, 1.6144362528310752, 1.2787553375]}, {"species": [{"element": "Ti", "occu": 1}], "abc": [0.7496748400000001, 0.7496748400000001, 0.25], "properties": {"magmom": 0.0}, "label": "Ti", "xyz": [2.7914421171603063, 4.834920467168925, 1.2787553375]}, {"species": [{"element": "Ti", "occu": 1}], "abc": [0.7496748400000001, -0.0, 0.75], "properties": {"magmom": 0.0}, "label": "Ti", "xyz": [5.582884998988949, 0.0, 3.8362660125000003]}, {"species": [{"element": "Si", "occu": 1}], "abc": [0.60784028, 0.0, 0.25], "properties": {"magmom": 0.0}, "label": "Si", "xyz": [4.5266323476898895, 0.0, 1.2787553375]}, {"species": [{"element": "Si", "occu": 1}], "abc": [0.60784028, 0.60784028, 0.75], "properties": {"magmom": 0.0}, "label": "Si", "xyz": [2.263315863846402, 3.9201787945046815, 3.8362660125000003]}, {"species": [{"element": "Si", "occu": 1}], "abc": [0.0, 0.39215972, 0.75], "properties": {"magmom": 0.0}, "label": "Si", "xyz": [-1.4602216861565123, 2.5291779254953184, 3.8362660125000003]}, {"species": [{"element": "Si", "occu": 1}], "abc": [-0.0, 0.60784028, 0.25], "properties": {"magmom": 0.0}, "label": "Si", "xyz": [-2.2633164838434876, 3.9201787945046815, 1.2787553375]}, {"species": [{"element": "Si", "occu": 1}], "abc": [0.39215972, 0.39215972, 0.25], "properties": {"magmom": 0.0}, "label": "Si", "xyz": [1.460221286153598, 2.5291779254953184, 1.2787553375]}, {"species": [{"element": "Si", "occu": 1}], "abc": [0.39215972, -0.0, 0.75], "properties": {"magmom": 0.0}, "label": "Si", "xyz": [2.92044297231011, 0.0, 3.8362660125000003]}]}, "task_ids": null, "uncorrected_energy_per_atom": null, "energy_per_atom": -12.165788256875, "formation_energy_per_atom": -0.789528400416667, "energy_above_hull": 0.0, "is_stable": true, "equilibrium_reaction_energy_per_atom": null, "decomposes_to": null, "xas": null, "grain_boundaries": null, "band_gap": 0.0, "cbm": null, "vbm": null, "efermi": 7.39430384, "is_gap_direct": null, "is_metal": null, "es_source_calc_id": null, "bandstructure": null, "dos": null, "dos_energy_up": null, "dos_energy_down": null, "is_magnetic": null, "ordering": null, "total_magnetization": 9.199999999999997e-06, "total_magnetization_normalized_vol": null, "total_magnetization_normalized_formula_units": null, "num_magnetic_sites": null, "num_unique_magnetic_sites": null, "types_of_magnetic_species": null, "bulk_modulus": null, "shear_modulus": null, "universal_anisotropy": null, "homogeneous_poisson": null, "e_total": null, "e_ionic": null, "e_electronic": null, "n": null, "e_ij_max": null, "weighted_surface_energy_EV_PER_ANG2": null, "weighted_surface_energy": null, "weighted_work_function": null, "surface_anisotropy": null, "shape_factor": null, "has_reconstructed": null, "possible_species": null, "has_props": null, "theoretical": null, "database_IDs": null, "fields_not_requested": ["builder_meta", "nsites", "elements", "nelements", "composition", "composition_reduced", "chemsys", "symmetry", "property_name", "deprecated", "deprecation_reasons", "last_updated", "origins", "warnings", "task_ids", "uncorrected_energy_per_atom", "equilibrium_reaction_energy_per_atom", "decomposes_to", "xas", "grain_boundaries", "cbm", "vbm", "is_gap_direct", "is_metal", "es_source_calc_id", "bandstructure", "dos", "dos_energy_up", "dos_energy_down", "is_magnetic", "ordering", "total_magnetization_normalized_vol", "total_magnetization_normalized_formula_units", "num_magnetic_sites", "num_unique_magnetic_sites", "types_of_magnetic_species", "bulk_modulus", "shear_modulus", "universal_anisotropy", "homogeneous_poisson", "e_total", "e_ionic", "e_electronic", "n", "e_ij_max", "weighted_surface_energy_EV_PER_ANG2", "weighted_surface_energy", "weighted_work_function", "surface_anisotropy", "shape_factor", "has_reconstructed", "possible_species", "has_props", "theoretical", "database_IDs"]}