{"builder_meta": null, "nsites": null, "elements": null, "nelements": null, "composition": null, "composition_reduced": null, "formula_pretty": "Ti5S8", "formula_anonymous": "A5B8", "chemsys": null, "volume": 235.92243040526603, "density": 3.490073400204189, "density_atomic": 18.14787926194354, "symmetry": null, "property_name": null, "material_id": "mp-1208223", "deprecated": null, "deprecation_reasons": null, "last_updated": null, "origins": null, "warnings": null, "structure": {"@module": "pymatgen.core.structure", "@class": "Structure", "charge": 0, "lattice": {"matrix": [[4.17424437, 3.4396888, -3.992805869999999], [-4.17412416, 3.43871985, 3.99207992], [4.14983563, -3.43957624, 4.24808225]], "pbc": [true, true, true], "a": 6.722966147232082, "b": 6.721964653101572, "c": 6.862799958439346, "alpha": 105.32334008436229, "beta": 104.39521154804847, "gamma": 118.45925052486962, "volume": 235.92243040526603}, "properties": {}, "sites": [{"species": [{"element": "Ti", "occu": 1}], "abc": [0.26414244, 0.7641886800000001, 0.49996527], "properties": {"magmom": 0.0}, "label": "Ti", "xyz": [-0.012449647729875668, 1.8167299120167855, 4.119926388674641]}, {"species": [{"element": "Ti", "occu": 1}], "abc": [0.73585756, 0.23581132000000002, 0.50003473], "properties": {"magmom": 0.0}, "label": "Ti", "xyz": [4.162405487729876, 1.6221024979832148, 0.12742991132536075]}, {"species": [{"element": "Ti", "occu": 1}], "abc": [0.25567657, 0.7547537400000001, 0.01022168], "properties": {"magmom": -0.0}, "label": "Ti", "xyz": [-2.0407610462584893, 3.4396762541902715, 2.0355928778546155]}, {"species": [{"element": "Ti", "occu": 1}], "abc": [0.74432343, 0.24524626, 0.98977832], "properties": {"magmom": -0.0}, "label": "Ti", "xyz": [6.19071688625849, -0.0008438441902716143, 2.211763422145386]}, {"species": [{"element": "Ti", "occu": 1}], "abc": [0.0, -0.0, 0.0], "properties": {"magmom": 0.0}, "label": "Ti", "xyz": [0.0, 0.0, 0.0]}, {"species": [{"element": "S", "occu": 1}], "abc": [0.54101121, 0.79175657, 0.33272735000000003], "properties": {"magmom": -0.0}, "label": "S", "xyz": [0.3341865818791372, 3.439098145880198, 2.4140559192258104]}, {"species": [{"element": "S", "occu": 1}], "abc": [0.45898879000000004, 0.20824343, 0.66727265], "properties": {"magmom": -0.0}, "label": "S", "xyz": [3.8157692581208633, -0.0002657358801987364, 1.8333003807741912]}, {"species": [{"element": "S", "occu": 1}], "abc": [0.45759367, 0.21099673, 0.16946556000000002], "properties": {"magmom": -0.0}, "label": "S", "xyz": [1.7326354713170442, 1.7166487517116917, -0.2648632452098708]}, {"species": [{"element": "S", "occu": 1}], "abc": [0.54240633, 0.78900327, 0.83053444], "properties": {"magmom": -0.0}, "label": "S", "xyz": [2.4173203686829563, 1.7221836582883077, 4.512219545209872]}, {"species": [{"element": "S", "occu": 1}], "abc": [0.04155215, 0.28812981, 0.83054843], "properties": {"magmom": -0.0}, "label": "S", "xyz": [2.417398694316247, -1.7230104840026546, 4.512565603671662]}, {"species": [{"element": "S", "occu": 1}], "abc": [0.95844785, 0.7118701900000001, 0.16945157], "properties": {"magmom": -0.0}, "label": "S", "xyz": [1.732557145683753, 5.161842894002654, -0.26520930367166107]}, {"species": [{"element": "S", "occu": 1}], "abc": [0.03600378, 0.29492398000000003, 0.33103505], "properties": {"magmom": -0.0}, "label": "S", "xyz": [0.29298031095119326, -0.0006175494965448003, 2.439868114391156]}, {"species": [{"element": "S", "occu": 1}], "abc": [0.9639962200000001, 0.70507602, 0.66896495], "properties": {"magmom": -0.0}, "label": "S", "xyz": [3.8569755290488072, 3.4394499594965455, 1.8074881856088458]}]}, "task_ids": null, "uncorrected_energy_per_atom": null, "energy_per_atom": -7.278871801538463, "formation_energy_per_atom": -1.6954612920512822, "energy_above_hull": 0.0, "is_stable": true, "equilibrium_reaction_energy_per_atom": null, "decomposes_to": null, "xas": null, "grain_boundaries": null, "band_gap": 0.0, "cbm": null, "vbm": null, "efermi": 5.76538359, "is_gap_direct": null, "is_metal": null, "es_source_calc_id": null, "bandstructure": null, "dos": null, "dos_energy_up": null, "dos_energy_down": null, "is_magnetic": null, "ordering": null, "total_magnetization": 0.0005145, "total_magnetization_normalized_vol": null, "total_magnetization_normalized_formula_units": null, "num_magnetic_sites": null, "num_unique_magnetic_sites": null, "types_of_magnetic_species": null, "bulk_modulus": null, "shear_modulus": null, "universal_anisotropy": null, "homogeneous_poisson": null, "e_total": null, "e_ionic": null, "e_electronic": null, "n": null, "e_ij_max": null, "weighted_surface_energy_EV_PER_ANG2": null, "weighted_surface_energy": null, "weighted_work_function": null, "surface_anisotropy": null, "shape_factor": null, "has_reconstructed": null, "possible_species": null, "has_props": null, "theoretical": null, "database_IDs": null, "fields_not_requested": ["builder_meta", "nsites", "elements", "nelements", "composition", "composition_reduced", "chemsys", "symmetry", "property_name", "deprecated", "deprecation_reasons", "last_updated", "origins", "warnings", "task_ids", "uncorrected_energy_per_atom", "equilibrium_reaction_energy_per_atom", "decomposes_to", "xas", "grain_boundaries", "cbm", "vbm", "is_gap_direct", "is_metal", "es_source_calc_id", "bandstructure", "dos", "dos_energy_up", "dos_energy_down", "is_magnetic", "ordering", "total_magnetization_normalized_vol", "total_magnetization_normalized_formula_units", "num_magnetic_sites", "num_unique_magnetic_sites", "types_of_magnetic_species", "bulk_modulus", "shear_modulus", "universal_anisotropy", "homogeneous_poisson", "e_total", "e_ionic", "e_electronic", "n", "e_ij_max", "weighted_surface_energy_EV_PER_ANG2", "weighted_surface_energy", "weighted_work_function", "surface_anisotropy", "shape_factor", "has_reconstructed", "possible_species", "has_props", "theoretical", "database_IDs"]}