{
  "builder_meta": null,
  "nsites": null,
  "elements": null,
  "nelements": null,
  "composition": null,
  "composition_reduced": null,
  "formula_pretty": "Ti5Si4",
  "formula_anonymous": "A4B5",
  "chemsys": null,
  "volume": 543.9586037520537,
  "density": 4.2942488144989355,
  "density_atomic": 15.109961215334826,
  "symmetry": null,
  "property_name": null,
  "material_id": "mp-505527",
  "deprecated": null,
  "deprecation_reasons": null,
  "last_updated": null,
  "origins": null,
  "warnings": null,
  "structure": {
    "@module": "pymatgen.core.structure",
    "@class": "Structure",
    "charge": 0,
    "lattice": {
      "matrix": [
        [6.68896492, -0.0, -0.0],
        [0.0, 6.68896492, 0.0],
        [-0.0, 0.0, 12.15760457]
      ],
      "pbc": [true, true, true],
      "a": 6.68896492,
      "b": 6.68896492,
      "c": 12.15760457,
      "alpha": 90.0,
      "beta": 90.0,
      "gamma": 90.0,
      "volume": 543.9586037520537
    },
    "properties": {},
    "sites": [
      {
        "species": [{ "element": "Ti", "occu": 1 }],
        "abc": [0.99586227, 0.14908996, 0.6220688],
        "properties": { "magmom": -0.0 },
        "label": "Ti",
        "xyz": [6.661287789181569, 0.9972575123642031, 7.562866485734416]
      },
      {
        "species": [{ "element": "Ti", "occu": 1 }],
        "abc": [0.35091004000000003, 0.49586227, 0.8720688],
        "properties": { "magmom": -0.0 },
        "label": "Ti",
        "xyz": [2.347224947635797, 3.3168053291815682, 10.602267628234415]
      },
      {
        "species": [{ "element": "Ti", "occu": 1 }],
        "abc": [0.64908996, 0.5041377300000001, 0.3720688],
        "properties": { "magmom": -0.0 },
        "label": "Ti",
        "xyz": [4.341739972364203, 3.372159590818432, 4.523465343234416]
      },
      {
        "species": [{ "element": "Ti", "occu": 1 }],
        "abc": [0.49586227, 0.35091004000000003, 0.1279312],
        "properties": { "magmom": -0.0 },
        "label": "Ti",
        "xyz": [3.3168053291815682, 2.347224947635797, 1.555336941765584]
      },
      {
        "species": [{ "element": "Ti", "occu": 1 }],
        "abc": [0.5041377300000001, 0.64908996, 0.6279312],
        "properties": { "magmom": -0.0 },
        "label": "Ti",
        "xyz": [3.372159590818432, 4.341739972364203, 7.634139226765584]
      },
      {
        "species": [{ "element": "Ti", "occu": 1 }],
        "abc": [0.00413773, 0.85091004, 0.122068799999999],
        "properties": { "magmom": -0.0 },
        "label": "Ti",
        "xyz": [0.0276771308184316, 5.691707407635797, 1.484064200734404]
      },
      {
        "species": [{ "element": "Ti", "occu": 1 }],
        "abc": [0.14908996, 0.99586227, 0.377931199999999],
        "properties": { "magmom": -0.0 },
        "label": "Ti",
        "xyz": [0.9972575123642031, 6.661287789181569, 4.594738084265572]
      },
      {
        "species": [{ "element": "Ti", "occu": 1 }],
        "abc": [0.85091004, 0.00413773, 0.877931199999999],
        "properties": { "magmom": -0.0 },
        "label": "Ti",
        "xyz": [5.691707407635797, 0.0276771308184316, 10.673540369265572]
      },
      {
        "species": [{ "element": "Ti", "occu": 1 }],
        "abc": [0.00256245, 0.34535309000000003, 0.2178602],
        "properties": { "magmom": 0.0 },
        "label": "Ti",
        "xyz": [0.017140138159254, 2.310054704023603, 2.648658163141114]
      },
      {
        "species": [{ "element": "Ti", "occu": 1 }],
        "abc": [0.15464691, 0.50256245, 0.4678602],
        "properties": { "magmom": 0.0 },
        "label": "Ti",
        "xyz": [1.0344277559763972, 3.361622598159254, 5.688059305641114]
      },
      {
        "species": [{ "element": "Ti", "occu": 1 }],
        "abc": [0.84535309, 0.49743755, 0.9678602],
        "properties": { "magmom": 0.0 },
        "label": "Ti",
        "xyz": [5.654537164023603, 3.3273423218407463, 11.766861590641113]
      },
      {
        "species": [{ "element": "Ti", "occu": 1 }],
        "abc": [0.50256245, 0.15464691, 0.532139799999999],
        "properties": { "magmom": 0.0 },
        "label": "Ti",
        "xyz": [3.361622598159254, 1.0344277559763972, 6.4695452643588744]
      },
      {
        "species": [{ "element": "Ti", "occu": 1 }],
        "abc": [0.49743755, 0.84535309, 0.032139799999999004],
        "properties": { "magmom": 0.0 },
        "label": "Ti",
        "xyz": [3.3273423218407463, 5.654537164023603, 0.3907429793588739]
      },
      {
        "species": [{ "element": "Ti", "occu": 1 }],
        "abc": [0.99743755, 0.65464691, 0.7178602],
        "properties": { "magmom": 0.0 },
        "label": "Ti",
        "xyz": [6.671824781840746, 4.378910215976397, 8.727460448141114]
      },
      {
        "species": [{ "element": "Ti", "occu": 1 }],
        "abc": [0.34535309000000003, 0.00256245, 0.782139799999999],
        "properties": { "magmom": 0.0 },
        "label": "Ti",
        "xyz": [2.310054704023603, 0.017140138159254, 9.508946406858875]
      },
      {
        "species": [{ "element": "Ti", "occu": 1 }],
        "abc": [0.65464691, 0.99743755, 0.2821398],
        "properties": { "magmom": 0.0 },
        "label": "Ti",
        "xyz": [4.378910215976397, 6.671824781840746, 3.430144121858886]
      },
      {
        "species": [{ "element": "Ti", "occu": 1 }],
        "abc": [0.1711276, 0.1711276, -0.0],
        "properties": { "magmom": 0.0 },
        "label": "Ti",
        "xyz": [1.1446665132437919, 1.1446665132437919, 0.0]
      },
      {
        "species": [{ "element": "Ti", "occu": 1 }],
        "abc": [0.3288724, 0.671127599999999, 0.25],
        "properties": { "magmom": 0.0 },
        "label": "Ti",
        "xyz": [2.199815946756208, 4.489148973243785, 3.0394011425]
      },
      {
        "species": [{ "element": "Ti", "occu": 1 }],
        "abc": [0.671127599999999, 0.3288724, 0.75],
        "properties": { "magmom": 0.0 },
        "label": "Ti",
        "xyz": [4.489148973243785, 2.199815946756208, 9.1182034275]
      },
      {
        "species": [{ "element": "Ti", "occu": 1 }],
        "abc": [0.8288724, 0.8288724, 0.5],
        "properties": { "magmom": 0.0 },
        "label": "Ti",
        "xyz": [5.544298406756208, 5.544298406756208, 6.078802285]
      },
      {
        "species": [{ "element": "Si", "occu": 1 }],
        "abc": [0.04535421, 0.30087658, 0.81315346],
        "properties": { "magmom": 0.0 },
        "label": "Si",
        "xyz": [0.3033727196643132, 2.012552888869574, 9.885998221407313]
      },
      {
        "species": [{ "element": "Si", "occu": 1 }],
        "abc": [0.19912342, 0.5453542100000001, 0.06315346],
        "properties": { "magmom": 0.0 },
        "label": "Si",
        "xyz": [1.3319295711304264, 3.6478551796643135, 0.7677947939073121]
      },
      {
        "species": [{ "element": "Si", "occu": 1 }],
        "abc": [0.8008765800000001, 0.45464579, 0.56315346],
        "properties": { "magmom": 0.0 },
        "label": "Si",
        "xyz": [5.357035348869574, 3.0411097403356866, 6.846597078907312]
      },
      {
        "species": [{ "element": "Si", "occu": 1 }],
        "abc": [0.5453542100000001, 0.19912342, 0.93684654],
        "properties": { "magmom": 0.0 },
        "label": "Si",
        "xyz": [3.6478551796643135, 1.3319295711304264, 11.389809776092688]
      },
      {
        "species": [{ "element": "Si", "occu": 1 }],
        "abc": [0.45464579, 0.8008765800000001, 0.43684654],
        "properties": { "magmom": 0.0 },
        "label": "Si",
        "xyz": [3.0411097403356866, 5.357035348869574, 5.311007491092688]
      },
      {
        "species": [{ "element": "Si", "occu": 1 }],
        "abc": [0.95464579, 0.69912342, 0.31315346],
        "properties": { "magmom": 0.0 },
        "label": "Si",
        "xyz": [6.3855922003356875, 4.676412031130427, 3.8071959364073122]
      },
      {
        "species": [{ "element": "Si", "occu": 1 }],
        "abc": [0.30087658, 0.04535421, 0.18684654],
        "properties": { "magmom": 0.0 },
        "label": "Si",
        "xyz": [2.012552888869574, 0.3033727196643132, 2.271606348592688]
      },
      {
        "species": [{ "element": "Si", "occu": 1 }],
        "abc": [0.69912342, 0.95464579, 0.68684654],
        "properties": { "magmom": 0.0 },
        "label": "Si",
        "xyz": [4.676412031130427, 6.3855922003356875, 8.350408633592687]
      },
      {
        "species": [{ "element": "Si", "occu": 1 }],
        "abc": [0.2942325, 0.35763964, 0.67280954],
        "properties": { "magmom": -0.0 },
        "label": "Si",
        "xyz": [1.9681108708239001, 2.3922390059614287, 8.179752338243599]
      },
      {
        "species": [{ "element": "Si", "occu": 1 }],
        "abc": [0.14236036, 0.7942325, 0.92280954],
        "properties": { "magmom": -0.0 },
        "label": "Si",
        "xyz": [0.9522434540385711, 5.3125933308239, 11.219153480743598]
      },
      {
        "species": [{ "element": "Si", "occu": 1 }],
        "abc": [0.85763964, 0.2057675, 0.42280954],
        "properties": { "magmom": -0.0 },
        "label": "Si",
        "xyz": [5.736721465961429, 1.3763715891761, 5.140351195743598]
      },
      {
        "species": [{ "element": "Si", "occu": 1 }],
        "abc": [0.7942325, 0.14236036, 0.07719046],
        "properties": { "magmom": -0.0 },
        "label": "Si",
        "xyz": [5.3125933308239, 0.9522434540385711, 0.9384510892564022]
      },
      {
        "species": [{ "element": "Si", "occu": 1 }],
        "abc": [0.2057675, 0.85763964, 0.57719046],
        "properties": { "magmom": -0.0 },
        "label": "Si",
        "xyz": [1.3763715891761, 5.736721465961429, 7.017253374256402]
      },
      {
        "species": [{ "element": "Si", "occu": 1 }],
        "abc": [0.7057675, 0.64236036, 0.17280954],
        "properties": { "magmom": -0.0 },
        "label": "Si",
        "xyz": [4.7208540491761, 4.296725914038571, 2.100950053243598]
      },
      {
        "species": [{ "element": "Si", "occu": 1 }],
        "abc": [0.35763964, 0.2942325, 0.32719046],
        "properties": { "magmom": -0.0 },
        "label": "Si",
        "xyz": [2.3922390059614287, 1.9681108708239001, 3.9778522317564025]
      },
      {
        "species": [{ "element": "Si", "occu": 1 }],
        "abc": [0.64236036, 0.7057675, 0.8271904600000001],
        "properties": { "magmom": -0.0 },
        "label": "Si",
        "xyz": [4.296725914038571, 4.7208540491761, 10.056654516756403]
      }
    ]
  },
  "task_ids": null,
  "uncorrected_energy_per_atom": null,
  "energy_per_atom": -11.895204706666668,
  "formation_energy_per_atom": -0.808110990370371,
  "energy_above_hull": 0.0,
  "is_stable": true,
  "equilibrium_reaction_energy_per_atom": null,
  "decomposes_to": null,
  "xas": null,
  "grain_boundaries": null,
  "band_gap": 0.0,
  "cbm": null,
  "vbm": null,
  "efermi": 7.52436516,
  "is_gap_direct": null,
  "is_metal": null,
  "es_source_calc_id": null,
  "bandstructure": null,
  "dos": null,
  "dos_energy_up": null,
  "dos_energy_down": null,
  "is_magnetic": null,
  "ordering": null,
  "total_magnetization": 3e-7,
  "total_magnetization_normalized_vol": null,
  "total_magnetization_normalized_formula_units": null,
  "num_magnetic_sites": null,
  "num_unique_magnetic_sites": null,
  "types_of_magnetic_species": null,
  "bulk_modulus": null,
  "shear_modulus": null,
  "universal_anisotropy": null,
  "homogeneous_poisson": null,
  "e_total": null,
  "e_ionic": null,
  "e_electronic": null,
  "n": null,
  "e_ij_max": null,
  "weighted_surface_energy_EV_PER_ANG2": null,
  "weighted_surface_energy": null,
  "weighted_work_function": null,
  "surface_anisotropy": null,
  "shape_factor": null,
  "has_reconstructed": null,
  "possible_species": null,
  "has_props": null,
  "theoretical": null,
  "database_IDs": null,
  "fields_not_requested": [
    "builder_meta",
    "nsites",
    "elements",
    "nelements",
    "composition",
    "composition_reduced",
    "chemsys",
    "symmetry",
    "property_name",
    "deprecated",
    "deprecation_reasons",
    "last_updated",
    "origins",
    "warnings",
    "task_ids",
    "uncorrected_energy_per_atom",
    "equilibrium_reaction_energy_per_atom",
    "decomposes_to",
    "xas",
    "grain_boundaries",
    "cbm",
    "vbm",
    "is_gap_direct",
    "is_metal",
    "es_source_calc_id",
    "bandstructure",
    "dos",
    "dos_energy_up",
    "dos_energy_down",
    "is_magnetic",
    "ordering",
    "total_magnetization_normalized_vol",
    "total_magnetization_normalized_formula_units",
    "num_magnetic_sites",
    "num_unique_magnetic_sites",
    "types_of_magnetic_species",
    "bulk_modulus",
    "shear_modulus",
    "universal_anisotropy",
    "homogeneous_poisson",
    "e_total",
    "e_ionic",
    "e_electronic",
    "n",
    "e_ij_max",
    "weighted_surface_energy_EV_PER_ANG2",
    "weighted_surface_energy",
    "weighted_work_function",
    "surface_anisotropy",
    "shape_factor",
    "has_reconstructed",
    "possible_species",
    "has_props",
    "theoretical",
    "database_IDs"
  ]
}
