{"builder_meta": null, "nsites": null, "elements": null, "nelements": null, "composition": null, "composition_reduced": null, "formula_pretty": "Ti5Si", "formula_anonymous": "AB5", "chemsys": null, "volume": 195.80105770474069, "density": 4.535850752444161, "density_atomic": 16.31675480872839, "symmetry": null, "property_name": null, "material_id": "mp-2647026", "deprecated": null, "deprecation_reasons": null, "last_updated": null, "origins": null, "warnings": null, "structure": {"@module": "pymatgen.core.structure", "@class": "Structure", "charge": 0, "lattice": {"matrix": [[0.0, 8.739936, -0.004996], [5.044699, 0.0, 0.0], [0.0, -2.916939, -4.439238]], "pbc": [true, true, true], "a": 8.739937427928876, "b": 5.044699, "c": 5.311813922791818, "alpha": 90.0, "beta": 123.2754040872212, "gamma": 90.0, "volume": 195.80105770474069}, "properties": {}, "sites": [{"species": [{"element": "Ti", "occu": 1}], "abc": [0.348358, 0.966353999999999, 0.045681], "properties": {"magmom": 0.0}, "label": "Ti", "xyz": [4.874965057445995, 2.911377934629, -0.20452922764599998]}, {"species": [{"element": "Ti", "occu": 1}], "abc": [0.697434999999999, 0.7690400000000001, 0.500018], "properties": {"magmom": -0.0}, "label": "Ti", "xyz": [3.87957531896, 4.637015259257992, -2.2231832915439997]}, {"species": [{"element": "Ti", "occu": 1}], "abc": [0.302565, 0.7690400000000001, 0.499982], "properties": {"magmom": 0.0}, "label": "Ti", "xyz": [3.87957531896, 1.185981740742, -2.2210507084559996]}, {"species": [{"element": "Ti", "occu": 1}], "abc": [0.151642, 0.466354, 0.954318999999999], "properties": {"magmom": -0.0}, "label": "Ti", "xyz": [2.3526155574459997, -1.4583489346289973, -4.237206772353995]}, {"species": [{"element": "Ti", "occu": 1}], "abc": [0.0, 0.861648, 0.5], "properties": {"magmom": -0.0}, "label": "Ti", "xyz": [4.346754803952, -1.4584695, -2.219619]}, {"species": [{"element": "Ti", "occu": 1}], "abc": [0.848358, 0.466354, 0.045681], "properties": {"magmom": -0.0}, "label": "Ti", "xyz": [2.3526155574459997, 7.281345934628999, -0.20702722764599996]}, {"species": [{"element": "Ti", "occu": 1}], "abc": [0.197435, 0.26904, 0.500018], "properties": {"magmom": -0.0}, "label": "Ti", "xyz": [1.35722581896, 0.267047259258, -2.2206852915439996]}, {"species": [{"element": "Ti", "occu": 1}], "abc": [0.802565, 0.26904, 0.499982], "properties": {"magmom": 0.0}, "label": "Ti", "xyz": [1.35722581896, 5.555949740741999, -2.2235487084559997]}, {"species": [{"element": "Ti", "occu": 1}], "abc": [0.651641999999999, 0.966353999999999, 0.954318999999999], "properties": {"magmom": 0.0}, "label": "Ti", "xyz": [4.874965057445995, 2.911619065370995, -4.239704772353995]}, {"species": [{"element": "Ti", "occu": 1}], "abc": [0.5, 0.361647999999999, 0.5], "properties": {"magmom": 0.0}, "label": "Ti", "xyz": [1.824405303951995, 2.9114985, -2.222117]}, {"species": [{"element": "Si", "occu": 1}], "abc": [0.0, 0.966052999999999, 0.0], "properties": {"magmom": 0.0}, "label": "Si", "xyz": [4.873446603046995, 0.0, 0.0]}, {"species": [{"element": "Si", "occu": 1}], "abc": [0.5, 0.466053, 0.0], "properties": {"magmom": -0.0}, "label": "Si", "xyz": [2.3510971030469996, 4.369968, -0.002498]}]}, "task_ids": null, "uncorrected_energy_per_atom": null, "energy_per_atom": -12.543501106759258, "formation_energy_per_atom": -0.29974282981481304, "energy_above_hull": 0.051158681481481005, "is_stable": false, "equilibrium_reaction_energy_per_atom": null, "decomposes_to": null, "xas": null, "grain_boundaries": null, "band_gap": 0.0, "cbm": null, "vbm": null, "efermi": 6.6147499, "is_gap_direct": null, "is_metal": null, "es_source_calc_id": null, "bandstructure": null, "dos": null, "dos_energy_up": null, "dos_energy_down": null, "is_magnetic": null, "ordering": null, "total_magnetization": 6.32e-05, "total_magnetization_normalized_vol": null, "total_magnetization_normalized_formula_units": null, "num_magnetic_sites": null, "num_unique_magnetic_sites": null, "types_of_magnetic_species": null, "bulk_modulus": null, "shear_modulus": null, "universal_anisotropy": null, "homogeneous_poisson": null, "e_total": null, "e_ionic": null, "e_electronic": null, "n": null, "e_ij_max": null, "weighted_surface_energy_EV_PER_ANG2": null, "weighted_surface_energy": null, "weighted_work_function": null, "surface_anisotropy": null, "shape_factor": null, "has_reconstructed": null, "possible_species": null, "has_props": null, "theoretical": null, "database_IDs": null, "fields_not_requested": ["builder_meta", "nsites", "elements", "nelements", "composition", "composition_reduced", "chemsys", "symmetry", "property_name", "deprecated", "deprecation_reasons", "last_updated", "origins", "warnings", "task_ids", "uncorrected_energy_per_atom", "equilibrium_reaction_energy_per_atom", "decomposes_to", "xas", "grain_boundaries", "cbm", "vbm", "is_gap_direct", "is_metal", "es_source_calc_id", "bandstructure", "dos", "dos_energy_up", "dos_energy_down", "is_magnetic", "ordering", "total_magnetization_normalized_vol", "total_magnetization_normalized_formula_units", "num_magnetic_sites", "num_unique_magnetic_sites", "types_of_magnetic_species", "bulk_modulus", "shear_modulus", "universal_anisotropy", "homogeneous_poisson", "e_total", "e_ionic", "e_electronic", "n", "e_ij_max", "weighted_surface_energy_EV_PER_ANG2", "weighted_surface_energy", "weighted_work_function", "surface_anisotropy", "shape_factor", "has_reconstructed", "possible_species", "has_props", "theoretical", "database_IDs"]}