{
  "builder_meta": null,
  "nsites": null,
  "elements": null,
  "nelements": null,
  "composition": null,
  "composition_reduced": null,
  "formula_pretty": "Ti5Se4",
  "formula_anonymous": "A4B5",
  "chemsys": null,
  "volume": 164.37514856073483,
  "density": 5.608449843980074,
  "density_atomic": 18.263905395637202,
  "symmetry": null,
  "property_name": null,
  "material_id": "mp-11765",
  "deprecated": null,
  "deprecation_reasons": null,
  "last_updated": null,
  "origins": null,
  "warnings": null,
  "structure": {
    "@module": "pymatgen.core.structure",
    "@class": "Structure",
    "charge": 0,
    "lattice": {
      "matrix": [
        [3.3914487700000002, -0.0, 0.86979223],
        [1.69574406, 6.85186908, 0.43481907000000003],
        [-0.00645656, 7.909e-5, 7.07196599]
      ],
      "pbc": [true, true, true],
      "a": 3.501208831661272,
      "b": 7.071967578412743,
      "c": 7.071968937795113,
      "alpha": 86.48689876823525,
      "beta": 75.66790372836459,
      "gamma": 75.6679310586328,
      "volume": 164.37514856073483
    },
    "properties": {},
    "sites": [
      {
        "species": [{ "element": "Ti", "occu": 1 }],
        "abc": [-0.0, 0.0, 0.0],
        "properties": { "magmom": -0.0 },
        "label": "Ti",
        "xyz": [0.0, 0.0, 0.0]
      },
      {
        "species": [{ "element": "Ti", "occu": 1 }],
        "abc": [0.30638103, 0.06577032000000001, 0.32146761],
        "properties": { "magmom": -0.0 },
        "label": "Ti",
        "xyz": [1.1485296218971106, 0.45067504686298054, 2.568494033495983]
      },
      {
        "species": [{ "element": "Ti", "occu": 1 }],
        "abc": [0.62784765, 0.67853239, 0.06577032000000001],
        "properties": { "magmom": -0.0 },
        "label": "Ti",
        "xyz": [3.279505760182695, 4.64922030459411, 1.3062612965698537]
      },
      {
        "species": [{ "element": "Ti", "occu": 1 }],
        "abc": [0.37215235, 0.32146761, 0.9342296800000001],
        "properties": { "magmom": -0.0 },
        "label": "Ti",
        "xyz": [1.8012305098173054, 2.20272786540589, 7.070315993430146]
      },
      {
        "species": [{ "element": "Ti", "occu": 1 }],
        "abc": [0.6936189700000001, 0.9342296800000001, 0.67853239],
        "properties": { "magmom": -0.0 },
        "label": "Ti",
        "xyz": [3.9322066481028894, 6.4012731231370195, 5.808083256504016]
      },
      {
        "species": [{ "element": "Se", "occu": 1 }],
        "abc": [0.058211320000000004, 0.21327398, 0.67030238],
        "properties": { "magmom": 0.0 },
        "label": "Se",
        "xyz": [0.5547509468170224, 1.4613784033457726, 4.883722981848898]
      },
      {
        "species": [{ "element": "Se", "occu": 1 }],
        "abc": [0.728513699999999, 0.32969762, 0.21327398],
        "properties": { "magmom": 0.0 },
        "label": "Se",
        "xyz": [3.0284226562559744, 2.259061796066668, 2.2852807013301035]
      },
      {
        "species": [{ "element": "Se", "occu": 1 }],
        "abc": [0.2714863, 0.67030238, 0.78672602],
        "properties": { "magmom": 0.0 },
        "label": "Se",
        "xyz": [2.052313613744023, 4.592886373933331, 6.091296588669896]
      },
      {
        "species": [{ "element": "Se", "occu": 1 }],
        "abc": [0.94178868, 0.78672602, 0.32969762],
        "properties": { "magmom": 0.0 },
        "label": "Se",
        "xyz": [4.5259853231829785, 5.390569766654228, 3.492854308151102]
      }
    ]
  },
  "task_ids": null,
  "uncorrected_energy_per_atom": null,
  "energy_per_atom": -7.209706307777777,
  "formation_energy_per_atom": -1.269583419560184,
  "energy_above_hull": 0.0,
  "is_stable": true,
  "equilibrium_reaction_energy_per_atom": null,
  "decomposes_to": null,
  "xas": null,
  "grain_boundaries": null,
  "band_gap": 0.0,
  "cbm": null,
  "vbm": null,
  "efermi": 6.13730731,
  "is_gap_direct": null,
  "is_metal": null,
  "es_source_calc_id": null,
  "bandstructure": null,
  "dos": null,
  "dos_energy_up": null,
  "dos_energy_down": null,
  "is_magnetic": null,
  "ordering": null,
  "total_magnetization": 1e-7,
  "total_magnetization_normalized_vol": null,
  "total_magnetization_normalized_formula_units": null,
  "num_magnetic_sites": null,
  "num_unique_magnetic_sites": null,
  "types_of_magnetic_species": null,
  "bulk_modulus": null,
  "shear_modulus": null,
  "universal_anisotropy": null,
  "homogeneous_poisson": null,
  "e_total": null,
  "e_ionic": null,
  "e_electronic": null,
  "n": null,
  "e_ij_max": null,
  "weighted_surface_energy_EV_PER_ANG2": null,
  "weighted_surface_energy": null,
  "weighted_work_function": null,
  "surface_anisotropy": null,
  "shape_factor": null,
  "has_reconstructed": null,
  "possible_species": null,
  "has_props": null,
  "theoretical": null,
  "database_IDs": null,
  "fields_not_requested": [
    "builder_meta",
    "nsites",
    "elements",
    "nelements",
    "composition",
    "composition_reduced",
    "chemsys",
    "symmetry",
    "property_name",
    "deprecated",
    "deprecation_reasons",
    "last_updated",
    "origins",
    "warnings",
    "task_ids",
    "uncorrected_energy_per_atom",
    "equilibrium_reaction_energy_per_atom",
    "decomposes_to",
    "xas",
    "grain_boundaries",
    "cbm",
    "vbm",
    "is_gap_direct",
    "is_metal",
    "es_source_calc_id",
    "bandstructure",
    "dos",
    "dos_energy_up",
    "dos_energy_down",
    "is_magnetic",
    "ordering",
    "total_magnetization_normalized_vol",
    "total_magnetization_normalized_formula_units",
    "num_magnetic_sites",
    "num_unique_magnetic_sites",
    "types_of_magnetic_species",
    "bulk_modulus",
    "shear_modulus",
    "universal_anisotropy",
    "homogeneous_poisson",
    "e_total",
    "e_ionic",
    "e_electronic",
    "n",
    "e_ij_max",
    "weighted_surface_energy_EV_PER_ANG2",
    "weighted_surface_energy",
    "weighted_work_function",
    "surface_anisotropy",
    "shape_factor",
    "has_reconstructed",
    "possible_species",
    "has_props",
    "theoretical",
    "database_IDs"
  ]
}
