{"builder_meta": null, "nsites": null, "elements": null, "nelements": null, "composition": null, "composition_reduced": null, "formula_pretty": "Ti5Sn3", "formula_anonymous": "A3B5", "chemsys": null, "volume": 304.05086297956177, "density": 6.504128194889782, "density_atomic": 19.00317893622261, "symmetry": null, "property_name": null, "material_id": "mp-20847", "deprecated": null, "deprecation_reasons": null, "last_updated": null, "origins": null, "warnings": null, "structure": {"@module": "pymatgen.core.structure", "@class": "Structure", "charge": 0, "lattice": {"matrix": [[8.04403104, -0.0, -0.0], [-4.02201603, 6.96633446, -0.0], [0.0, -0.0, 5.42585497]], "pbc": [true, true, true], "a": 8.04403104, "b": 8.04403062861899, "c": 5.42585497, "alpha": 90.0, "beta": 90.0, "gamma": 120.00000588631575, "volume": 304.05086297956177}, "properties": {}, "sites": [{"species": [{"element": "Ti", "occu": 1}], "abc": [0.2433844, 0.0, 0.25], "properties": {"magmom": -0.0}, "label": "Ti", "xyz": [1.957791668251776, 0.0, 1.3564637425]}, {"species": [{"element": "Ti", "occu": 1}], "abc": [0.2433844, 0.2433844, 0.75], "properties": {"magmom": -0.0}, "label": "Ti", "xyz": [0.9788957099998441, 1.6954971327464239, 4.0693912275]}, {"species": [{"element": "Ti", "occu": 1}], "abc": [-0.0, 0.7566155999999991, 0.75], "properties": {"magmom": -0.0}, "label": "Ti", "xyz": [-3.043120071748064, 5.270837327253569, 4.0693912275]}, {"species": [{"element": "Ti", "occu": 1}], "abc": [0.0, 0.2433844, 0.25], "properties": {"magmom": -0.0}, "label": "Ti", "xyz": [-0.9788959582519319, 1.6954971327464239, 1.3564637425]}, {"species": [{"element": "Ti", "occu": 1}], "abc": [0.7566155999999991, 0.7566155999999991, 0.25], "properties": {"magmom": -0.0}, "label": "Ti", "xyz": [3.043119300000152, 5.270837327253569, 1.3564637425]}, {"species": [{"element": "Ti", "occu": 1}], "abc": [0.7566155999999991, -0.0, 0.75], "properties": {"magmom": -0.0}, "label": "Ti", "xyz": [6.086239371748216, 0.0, 4.0693912275]}, {"species": [{"element": "Ti", "occu": 1}], "abc": [0.333333, 0.666667, 0.0], "properties": {"magmom": 0.0}, "label": "Ti", "xyz": [-4.362015689984844e-06, 4.64422529544482, 0.0]}, {"species": [{"element": "Ti", "occu": 1}], "abc": [0.666667, 0.333333, 0.5], "properties": {"magmom": 0.0}, "label": "Ti", "xyz": [4.0220193720156905, 2.32210916455518, 2.712927485]}, {"species": [{"element": "Ti", "occu": 1}], "abc": [0.666667, 0.333333, 0.0], "properties": {"magmom": 0.0}, "label": "Ti", "xyz": [4.0220193720156905, 2.32210916455518, 0.0]}, {"species": [{"element": "Ti", "occu": 1}], "abc": [0.333333, 0.666667, 0.5], "properties": {"magmom": 0.0}, "label": "Ti", "xyz": [-4.362015689984844e-06, 4.64422529544482, 2.712927485]}, {"species": [{"element": "Sn", "occu": 1}], "abc": [0.60863286, -0.0, 0.25], "properties": {"magmom": -0.0}, "label": "Sn", "xyz": [4.895861617803975, 0.0, 1.3564637425]}, {"species": [{"element": "Sn", "occu": 1}], "abc": [0.60863286, 0.60863286, 0.75], "properties": {"magmom": -0.0}, "label": "Sn", "xyz": [2.4479304984992294, 4.239940066106356, 4.0693912275]}, {"species": [{"element": "Sn", "occu": 1}], "abc": [0.0, 0.39136714, 0.75], "properties": {"magmom": -0.0}, "label": "Sn", "xyz": [-1.5740849106952541, 2.7263943938936444, 4.0693912275]}, {"species": [{"element": "Sn", "occu": 1}], "abc": [-0.0, 0.60863286, 0.25], "properties": {"magmom": -0.0}, "label": "Sn", "xyz": [-2.4479311193047457, 4.239940066106356, 1.3564637425]}, {"species": [{"element": "Sn", "occu": 1}], "abc": [0.39136714, 0.39136714, 0.25], "properties": {"magmom": -0.0}, "label": "Sn", "xyz": [1.5740845115007713, 2.7263943938936444, 1.3564637425]}, {"species": [{"element": "Sn", "occu": 1}], "abc": [0.39136714, 0.0, 0.75], "properties": {"magmom": -0.0}, "label": "Sn", "xyz": [3.1481694221960255, 0.0, 4.0693912275]}]}, "task_ids": null, "uncorrected_energy_per_atom": null, "energy_per_atom": -17.7475683325, "formation_energy_per_atom": -0.381651281666666, "energy_above_hull": 0.0, "is_stable": true, "equilibrium_reaction_energy_per_atom": null, "decomposes_to": null, "xas": null, "grain_boundaries": null, "band_gap": 0.0, "cbm": null, "vbm": null, "efermi": 7.79783617, "is_gap_direct": null, "is_metal": null, "es_source_calc_id": null, "bandstructure": null, "dos": null, "dos_energy_up": null, "dos_energy_down": null, "is_magnetic": null, "ordering": null, "total_magnetization": 5.9600000000000005e-05, "total_magnetization_normalized_vol": null, "total_magnetization_normalized_formula_units": null, "num_magnetic_sites": null, "num_unique_magnetic_sites": null, "types_of_magnetic_species": null, "bulk_modulus": null, "shear_modulus": null, "universal_anisotropy": null, "homogeneous_poisson": null, "e_total": null, "e_ionic": null, "e_electronic": null, "n": null, "e_ij_max": null, "weighted_surface_energy_EV_PER_ANG2": null, "weighted_surface_energy": null, "weighted_work_function": null, "surface_anisotropy": null, "shape_factor": null, "has_reconstructed": null, "possible_species": null, "has_props": null, "theoretical": null, "database_IDs": null, "fields_not_requested": ["builder_meta", "nsites", "elements", "nelements", "composition", "composition_reduced", "chemsys", "symmetry", "property_name", "deprecated", "deprecation_reasons", "last_updated", "origins", "warnings", "task_ids", "uncorrected_energy_per_atom", "equilibrium_reaction_energy_per_atom", "decomposes_to", "xas", "grain_boundaries", "cbm", "vbm", "is_gap_direct", "is_metal", "es_source_calc_id", "bandstructure", "dos", "dos_energy_up", "dos_energy_down", "is_magnetic", "ordering", "total_magnetization_normalized_vol", "total_magnetization_normalized_formula_units", "num_magnetic_sites", "num_unique_magnetic_sites", "types_of_magnetic_species", "bulk_modulus", "shear_modulus", "universal_anisotropy", "homogeneous_poisson", "e_total", "e_ionic", "e_electronic", "n", "e_ij_max", "weighted_surface_energy_EV_PER_ANG2", "weighted_surface_energy", "weighted_work_function", "surface_anisotropy", "shape_factor", "has_reconstructed", "possible_species", "has_props", "theoretical", "database_IDs"]}