{"builder_meta": null, "nsites": null, "elements": null, "nelements": null, "composition": null, "composition_reduced": null, "formula_pretty": "Ti5Te8", "formula_anonymous": "A5B8", "chemsys": null, "volume": 342.1173982473133, "density": 6.116331433040248, "density_atomic": 26.316722942101023, "symmetry": null, "property_name": null, "material_id": "mp-1208221", "deprecated": null, "deprecation_reasons": null, "last_updated": null, "origins": null, "warnings": null, "structure": {"@module": "pymatgen.core.structure", "@class": "Structure", "charge": 0, "lattice": {"matrix": [[4.70710565, 3.95481046, -4.31415893], [-4.70678183, 3.95371461, 4.31337103], [4.64121, -3.95456018, 4.9372557]], "pbc": [true, true, true], "a": 7.5106149314211335, "b": 7.509382401701811, "c": 7.845754924067162, "alpha": 105.94384538801894, "beta": 104.84069992549206, "gamma": 116.45698989725625, "volume": 342.1173982473133}, "properties": {}, "sites": [{"species": [{"element": "Ti", "occu": 1}], "abc": [0.28425836, 0.78432862, 0.49991609000000004], "properties": {"magmom": 0.723}, "label": "Ti", "xyz": [-0.033414008880340074, 2.2482511965502874, 4.6249781701609365]}, {"species": [{"element": "Ti", "occu": 1}], "abc": [0.7157252900000001, 0.2156455, 0.5000730800000001], "properties": {"magmom": 0.723}, "label": "Ti", "xyz": [4.674942414912424, 1.705589538051334, 0.3113950658160811]}, {"species": [{"element": "Ti", "occu": 1}], "abc": [0.25238009, 0.76695175, 0.01935137], "properties": {"magmom": 0.298}, "label": "Ti", "xyz": [-2.332081041842494, 3.9538976017373626, 2.3148823026654077]}, {"species": [{"element": "Ti", "occu": 1}], "abc": [0.7476132600000001, 0.23304727, 0.980660099999999], "properties": {"magmom": 0.298}, "label": "Ti", "xyz": [6.973641406914811, -8.24467249982419e-06, 2.6216665897107414]}, {"species": [{"element": "Ti", "occu": 1}], "abc": [6.38e-06, 3.14e-06, -4.099999999999998e-07], "properties": {"magmom": -0.138}, "label": "Ti", "xyz": [1.33491430008e-05, 3.9267724284e-05, -1.6004623776199995e-05]}, {"species": [{"element": "Te", "occu": 1}], "abc": [0.54863766, 0.77453823, 0.32334837], "properties": {"magmom": -0.056}, "label": "Te", "xyz": [0.4376406499121184, 3.953360484202557, 2.5704142855543823]}, {"species": [{"element": "Te", "occu": 1}], "abc": [0.4513762, 0.22545597, 0.67664222], "properties": {"magmom": -0.056}, "label": "Te", "xyz": [4.203942036120705, 0.0006735003369739978, 2.3659222430747366]}, {"species": [{"element": "Te", "occu": 1}], "abc": [0.46082074, 0.22001491, 0.1721332], "properties": {"magmom": -0.034}, "label": "Te", "xyz": [1.932476057346096, 2.0116237484457997, -0.18918234877891082]}, {"species": [{"element": "Te", "occu": 1}], "abc": [0.53922334, 0.77997067, 0.8278891700000001], "properties": {"magmom": -0.034}, "label": "Te", "xyz": [2.709436947532646, 1.942369993523375, 5.125508228253032]}, {"species": [{"element": "Te", "occu": 1}], "abc": [0.04821541, 0.28888738, 0.82801765], "properties": {"magmom": -0.034}, "label": "Te", "xyz": [2.7102289550842613, -1.9415845642753669, 5.126204376372595]}, {"species": [{"element": "Te", "occu": 1}], "abc": [0.95174921, 0.71113549, 0.17194001], "properties": {"magmom": -0.034}, "label": "Te", "xyz": [1.9308341745859905, 5.895667390612443, -0.1896943380405337]}, {"species": [{"element": "Te", "occu": 1}], "abc": [0.0341037, 0.30026452, 0.33500007], "properties": {"magmom": -0.031}, "label": "Te", "xyz": [0.30205580691093337, -0.0027440480458735816, 2.8020045051117135]}, {"species": [{"element": "Te", "occu": 1}], "abc": [0.96589136, 0.69975754, 0.66503109], "properties": {"magmom": -0.031}, "label": "Te", "xyz": [4.339495548483585, 3.956653396131289, 2.1347336046859353]}]}, "task_ids": null, "uncorrected_energy_per_atom": null, "energy_per_atom": -21.46725753, "formation_energy_per_atom": -0.8498283341025661, "energy_above_hull": 0.0, "is_stable": true, "equilibrium_reaction_energy_per_atom": null, "decomposes_to": null, "xas": null, "grain_boundaries": null, "band_gap": 0.0, "cbm": null, "vbm": null, "efermi": 6.46287393, "is_gap_direct": null, "is_metal": null, "es_source_calc_id": null, "bandstructure": null, "dos": null, "dos_energy_up": null, "dos_energy_down": null, "is_magnetic": null, "ordering": null, "total_magnetization": 1.931969099999999, "total_magnetization_normalized_vol": null, "total_magnetization_normalized_formula_units": null, "num_magnetic_sites": null, "num_unique_magnetic_sites": null, "types_of_magnetic_species": null, "bulk_modulus": null, "shear_modulus": null, "universal_anisotropy": null, "homogeneous_poisson": null, "e_total": null, "e_ionic": null, "e_electronic": null, "n": null, "e_ij_max": null, "weighted_surface_energy_EV_PER_ANG2": null, "weighted_surface_energy": null, "weighted_work_function": null, "surface_anisotropy": null, "shape_factor": null, "has_reconstructed": null, "possible_species": null, "has_props": null, "theoretical": null, "database_IDs": null, "fields_not_requested": ["builder_meta", "nsites", "elements", "nelements", "composition", "composition_reduced", "chemsys", "symmetry", "property_name", "deprecated", "deprecation_reasons", "last_updated", "origins", "warnings", "task_ids", "uncorrected_energy_per_atom", "equilibrium_reaction_energy_per_atom", "decomposes_to", "xas", "grain_boundaries", "cbm", "vbm", "is_gap_direct", "is_metal", "es_source_calc_id", "bandstructure", "dos", "dos_energy_up", "dos_energy_down", "is_magnetic", "ordering", "total_magnetization_normalized_vol", "total_magnetization_normalized_formula_units", "num_magnetic_sites", "num_unique_magnetic_sites", "types_of_magnetic_species", "bulk_modulus", "shear_modulus", "universal_anisotropy", "homogeneous_poisson", "e_total", "e_ionic", "e_electronic", "n", "e_ij_max", "weighted_surface_energy_EV_PER_ANG2", "weighted_surface_energy", "weighted_work_function", "surface_anisotropy", "shape_factor", "has_reconstructed", "possible_species", "has_props", "theoretical", "database_IDs"]}