{"builder_meta": null, "nsites": null, "elements": null, "nelements": null, "composition": null, "composition_reduced": null, "formula_pretty": "Ti5Te4", "formula_anonymous": "A4B5", "chemsys": null, "volume": 195.4075991021128, "density": 6.371114853352138, "density_atomic": 21.711955455790314, "symmetry": null, "property_name": null, "material_id": "mp-7498", "deprecated": null, "deprecation_reasons": null, "last_updated": null, "origins": null, "warnings": null, "structure": {"@module": "pymatgen.core.structure", "@class": "Structure", "charge": 0, "lattice": {"matrix": [[3.6349034700000002, 1e-08, 0.95386019], [1.8172916300000002, 7.21097189, 0.47754503000000004], [-0.01285872, -0.00063509, 7.45174776]], "pbc": [true, true, true], "a": 3.7579745207072492, "b": 7.451759102555311, "c": 7.451758881544971, "alpha": 86.35459082096054, "beta": 75.3950186474623, "gamma": 75.3950072735985, "volume": 195.40759910211284}, "properties": {}, "sites": [{"species": [{"element": "Ti", "occu": 1}], "abc": [0.0, -0.0, 0.0], "properties": {"magmom": -0.0}, "label": "Ti", "xyz": [0.0, 0.0, 0.0]}, {"species": [{"element": "Ti", "occu": 1}], "abc": [0.31386779, 0.06516694, 0.30709849], "properties": {"magmom": 0.0}, "label": "Ti", "xyz": [1.2553575601116107, 0.46972194045598037, 2.6189266230784707]}, {"species": [{"element": "Ti", "occu": 1}], "abc": [0.62096627, 0.69290151, 0.06516694], "properties": {"magmom": 0.0}, "label": "Ti", "xyz": [3.515518600678602, 4.996451930486293, 1.4088142758368412]}, {"species": [{"element": "Ti", "occu": 1}], "abc": [0.37903373, 0.30709849, 0.93483306], "properties": {"magmom": 0.0}, "label": "Ti", "xyz": [1.9238177793213989, 2.213884879513708, 7.474338704163159]}, {"species": [{"element": "Ti", "occu": 1}], "abc": [0.68613221, 0.93483306, 0.69290151], "properties": {"magmom": 0.0}, "label": "Ti", "xyz": [4.18397881988839, 6.740614869544019, 6.2642263569215295]}, {"species": [{"element": "Te", "occu": 1}], "abc": [0.060077099999999, 0.21776415000000002, 0.66207965], "properties": {"magmom": 0.0}, "label": "Te", "xyz": [0.6056019295295499, 1.5698706847355959, 5.094947890394407]}, {"species": [{"element": "Te", "occu": 1}], "abc": [0.72215775, 0.33792035, 0.21776415000000002], "properties": {"magmom": 0.0}, "label": "Te", "xyz": [3.236273366793175, 2.436595852296515, 2.472933229274137]}, {"species": [{"element": "Te", "occu": 1}], "abc": [0.27784225, 0.66207965, 0.7822358500000001], "properties": {"magmom": 0.0}, "label": "Te", "xyz": [2.203063013206825, 4.773740957703485, 6.410219750725863]}, {"species": [{"element": "Te", "occu": 1}], "abc": [0.9399229, 0.7822358500000001, 0.33792035], "properties": {"magmom": 0.0}, "label": "Te", "xyz": [4.8337344504704465, 5.640466125264404, 3.7882050896055928]}]}, "task_ids": null, "uncorrected_energy_per_atom": null, "energy_per_atom": -19.241970313333333, "formation_energy_per_atom": -0.757783390370368, "energy_above_hull": 0.0, "is_stable": true, "equilibrium_reaction_energy_per_atom": null, "decomposes_to": null, "xas": null, "grain_boundaries": null, "band_gap": 0.0, "cbm": null, "vbm": null, "efermi": 7.56838374, "is_gap_direct": null, "is_metal": null, "es_source_calc_id": null, "bandstructure": null, "dos": null, "dos_energy_up": null, "dos_energy_down": null, "is_magnetic": null, "ordering": null, "total_magnetization": 1e-07, "total_magnetization_normalized_vol": null, "total_magnetization_normalized_formula_units": null, "num_magnetic_sites": null, "num_unique_magnetic_sites": null, "types_of_magnetic_species": null, "bulk_modulus": null, "shear_modulus": null, "universal_anisotropy": null, "homogeneous_poisson": null, "e_total": null, "e_ionic": null, "e_electronic": null, "n": null, "e_ij_max": null, "weighted_surface_energy_EV_PER_ANG2": null, "weighted_surface_energy": null, "weighted_work_function": null, "surface_anisotropy": null, "shape_factor": null, "has_reconstructed": null, "possible_species": null, "has_props": null, "theoretical": null, "database_IDs": null, "fields_not_requested": ["builder_meta", "nsites", "elements", "nelements", "composition", "composition_reduced", "chemsys", "symmetry", "property_name", "deprecated", "deprecation_reasons", "last_updated", "origins", "warnings", "task_ids", "uncorrected_energy_per_atom", "equilibrium_reaction_energy_per_atom", "decomposes_to", "xas", "grain_boundaries", "cbm", "vbm", "is_gap_direct", "is_metal", "es_source_calc_id", "bandstructure", "dos", "dos_energy_up", "dos_energy_down", "is_magnetic", "ordering", "total_magnetization_normalized_vol", "total_magnetization_normalized_formula_units", "num_magnetic_sites", "num_unique_magnetic_sites", "types_of_magnetic_species", "bulk_modulus", "shear_modulus", "universal_anisotropy", "homogeneous_poisson", "e_total", "e_ionic", "e_electronic", "n", "e_ij_max", "weighted_surface_energy_EV_PER_ANG2", "weighted_surface_energy", "weighted_work_function", "surface_anisotropy", "shape_factor", "has_reconstructed", "possible_species", "has_props", "theoretical", "database_IDs"]}