{"builder_meta": null, "nsites": null, "elements": null, "nelements": null, "composition": null, "composition_reduced": null, "formula_pretty": "Ti6Ge5", "formula_anonymous": "A5B6", "chemsys": null, "volume": 349.4856081818813, "density": 6.180614621662498, "density_atomic": 15.885709462812786, "symmetry": null, "property_name": null, "material_id": "mp-1365", "deprecated": null, "deprecation_reasons": null, "last_updated": null, "origins": null, "warnings": null, "structure": {"@module": "pymatgen.core.structure", "@class": "Structure", "charge": 0, "lattice": {"matrix": [[5.02633752, 8e-08, -1.40722889], [-0.91038474, 7.18042165, -3.2519132600000002], [0.00068189, 0.00012548, 9.68314396]], "pbc": [true, true, true], "a": 5.219613205383172, "b": 7.934872103391297, "c": 9.683143984822475, "alpha": 114.19364694506953, "beta": 105.63667244370629, "gamma": 89.99960450925023, "volume": 349.4856081818813}, "properties": {}, "sites": [{"species": [{"element": "Ti", "occu": 1}], "abc": [0.14214046, 0.25500777, 0.28428262], "properties": {"magmom": 0.0}, "label": "Ti", "xyz": [0.4824845942943812, 1.8310989957806152, 1.7234622243700555]}, {"species": [{"element": "Ti", "occu": 1}], "abc": [0.85785954, 0.74499223, 0.7157173800000001], "properties": {"magmom": 0.0}, "label": "Ti", "xyz": [3.634150075705619, 5.349448214219386, 3.300539585629946]}, {"species": [{"element": "Ti", "occu": 1}], "abc": [0.35848899, 0.97076392, 0.71697301], "properties": {"magmom": 0.0}, "label": "Ti", "xyz": [0.9186068987591128, 6.970584262659283, 3.2812367440120194]}, {"species": [{"element": "Ti", "occu": 1}], "abc": [0.64151101, 0.02923608, 0.28302699], "properties": {"magmom": 0.0}, "label": "Ti", "xyz": [3.198027771240887, 0.20996294734071802, 1.7427650659879808]}, {"species": [{"element": "Ti", "occu": 1}], "abc": [0.43728549, 0.67927026, 0.87456997], "properties": {"magmom": 0.0}, "label": "Ti", "xyz": [1.5801435468155955, 4.877556657127804, 5.644298182279428]}, {"species": [{"element": "Ti", "occu": 1}], "abc": [0.5627145100000001, 0.32072974, 0.12543003], "properties": {"magmom": 0.0}, "label": "Ti", "xyz": [2.5364911231844047, 2.3029905528721963, -0.6202963722794275]}, {"species": [{"element": "Ti", "occu": 1}], "abc": [0.06288587, 0.80478043, 0.12572555], "properties": {"magmom": 0.0}, "label": "Ti", "xyz": [-0.41648848366850627, 5.778678604141194, -1.4881523646421082]}, {"species": [{"element": "Ti", "occu": 1}], "abc": [0.93711413, 0.19521957, 0.87427445], "properties": {"magmom": 0.0}, "label": "Ti", "xyz": [4.533123153668506, 1.4018686058588072, 6.512154174642109]}, {"species": [{"element": "Ti", "occu": 1}], "abc": [0.05858416, 0.30870757, 0.61708716], "properties": {"magmom": -0.0}, "label": "Ti", "xyz": [0.01384188619873381, 2.21672795593046, 4.889012243353793]}, {"species": [{"element": "Ti", "occu": 1}], "abc": [0.44149101, 0.69128376, 0.38289848], "properties": {"magmom": -0.0}, "label": "Ti", "xyz": [1.5900097368364001, 4.963756958017956, 0.8383873743912438]}, {"species": [{"element": "Ti", "occu": 1}], "abc": [0.94141584, 0.6912924300000001, 0.38291284000000003], "properties": {"magmom": -0.0}, "label": "Ti", "xyz": [4.1027927838012666, 4.9638192540695405, 0.13498956664620732]}, {"species": [{"element": "Ti", "occu": 1}], "abc": [0.55850899, 0.30871624000000003, 0.61710152], "properties": {"magmom": -0.0}, "label": "Ti", "xyz": [2.5266249331636, 2.216790251982045, 4.1856144356087555]}, {"species": [{"element": "Ge", "occu": 1}], "abc": [0.2892151, 0.58835299, 0.57831897], "properties": {"magmom": -0.0}, "label": "Ge", "xyz": [0.9184594745736328, 4.224695137839797, 3.279681107423035]}, {"species": [{"element": "Ge", "occu": 1}], "abc": [0.710784899999999, 0.41164701000000004, 0.42168103], "properties": {"magmom": -0.0}, "label": "Ge", "xyz": [3.198175195426363, 2.9558520721602033, 1.744320702576967]}, {"species": [{"element": "Ge", "occu": 1}], "abc": [0.21094665, 0.01001894, 0.42202032], "properties": {"magmom": -0.0}, "label": "Ge", "xyz": [1.0514557429623372, 0.07199318567153662, 3.7570525686394047]}, {"species": [{"element": "Ge", "occu": 1}], "abc": [0.78905335, 0.98998106, 0.57797968], "properties": {"magmom": -0.0}, "label": "Ge", "xyz": [3.0651789270376626, 7.108554024328463, 1.2669492413605958]}, {"species": [{"element": "Ge", "occu": 1}], "abc": [0.06792993, 0.47035594000000003, 0.13588309], "properties": {"magmom": -0.0}, "label": "Ge", "xyz": [-0.08667345693414193, 3.377371030826629, -0.3093741559978056]}, {"species": [{"element": "Ge", "occu": 1}], "abc": [0.93207007, 0.52964406, 0.86411691], "properties": {"magmom": -0.0}, "label": "Ge", "xyz": [4.203308126934141, 3.8031761791733714, 5.333375965997806]}, {"species": [{"element": "Ge", "occu": 1}], "abc": [0.43199545, 0.33448381, 0.86397486], "properties": {"magmom": -0.0}, "label": "Ge", "xyz": [1.86743511822051, 2.4018432370235554, 6.670364132617975]}, {"species": [{"element": "Ge", "occu": 1}], "abc": [0.56800455, 0.6655161900000001, 0.13602514000000002], "properties": {"magmom": -0.0}, "label": "Ge", "xyz": [2.2491995517794905, 4.778703972976445, -1.6463623226179744]}, {"species": [{"element": "Ge", "occu": 1}], "abc": [0.7502527, -6.9e-07, -2.62e-06], "properties": {"magmom": -0.0}, "label": "Ge", "xyz": [3.7710239218702233, -4.8947994801e-06, -1.0558004002575287]}, {"species": [{"element": "Ge", "occu": 1}], "abc": [0.249747299999999, 6.9e-07, 2.62e-06], "properties": {"magmom": -0.0}, "label": "Ge", "xyz": [1.2553135981297723, 4.9747994801e-06, -0.3514284897424698]}]}, "task_ids": null, "uncorrected_energy_per_atom": null, "energy_per_atom": -14.064695313181819, "formation_energy_per_atom": -0.7022925877272731, "energy_above_hull": 0.015959028727269002, "is_stable": false, "equilibrium_reaction_energy_per_atom": null, "decomposes_to": null, "xas": null, "grain_boundaries": null, "band_gap": 0.0, "cbm": null, "vbm": null, "efermi": 7.21175813, "is_gap_direct": null, "is_metal": null, "es_source_calc_id": null, "bandstructure": null, "dos": null, "dos_energy_up": null, "dos_energy_down": null, "is_magnetic": null, "ordering": null, "total_magnetization": 6.610000000000002e-05, "total_magnetization_normalized_vol": null, "total_magnetization_normalized_formula_units": null, "num_magnetic_sites": null, "num_unique_magnetic_sites": null, "types_of_magnetic_species": null, "bulk_modulus": null, "shear_modulus": null, "universal_anisotropy": null, "homogeneous_poisson": null, "e_total": null, "e_ionic": null, "e_electronic": null, "n": null, "e_ij_max": null, "weighted_surface_energy_EV_PER_ANG2": null, "weighted_surface_energy": null, "weighted_work_function": null, "surface_anisotropy": null, "shape_factor": null, "has_reconstructed": null, "possible_species": null, "has_props": null, "theoretical": null, "database_IDs": null, "fields_not_requested": ["builder_meta", "nsites", "elements", "nelements", "composition", "composition_reduced", "chemsys", "symmetry", "property_name", "deprecated", "deprecation_reasons", "last_updated", "origins", "warnings", "task_ids", "uncorrected_energy_per_atom", "equilibrium_reaction_energy_per_atom", "decomposes_to", "xas", "grain_boundaries", "cbm", "vbm", "is_gap_direct", "is_metal", "es_source_calc_id", "bandstructure", "dos", "dos_energy_up", "dos_energy_down", "is_magnetic", "ordering", "total_magnetization_normalized_vol", "total_magnetization_normalized_formula_units", "num_magnetic_sites", "num_unique_magnetic_sites", "types_of_magnetic_species", "bulk_modulus", "shear_modulus", "universal_anisotropy", "homogeneous_poisson", "e_total", "e_ionic", "e_electronic", "n", "e_ij_max", "weighted_surface_energy_EV_PER_ANG2", "weighted_surface_energy", "weighted_work_function", "surface_anisotropy", "shape_factor", "has_reconstructed", "possible_species", "has_props", "theoretical", "database_IDs"]}