{"builder_meta": null, "nsites": null, "elements": null, "nelements": null, "composition": null, "composition_reduced": null, "formula_pretty": "Ti6O", "formula_anonymous": "AB6", "chemsys": null, "volume": 213.4180585057646, "density": 4.718230249800664, "density_atomic": 15.244147036126042, "symmetry": null, "property_name": null, "material_id": "mp-554098", "deprecated": null, "deprecation_reasons": null, "last_updated": null, "origins": null, "warnings": null, "structure": {"@module": "pymatgen.core.structure", "@class": "Structure", "charge": 0, "lattice": {"matrix": [[5.10530036, -1e-08, -0.0], [-2.55265069, 4.42131974, 0.0], [0.0, -0.0, 9.45492186]], "pbc": [true, true, true], "a": 5.10530036, "b": 5.1053005580936315, "c": 9.45492186, "alpha": 90.0, "beta": 90.0, "gamma": 120.00000543776062, "volume": 213.4180585057646}, "properties": {}, "sites": [{"species": [{"element": "Ti", "occu": 1}], "abc": [0.66819333, 0.66379979, 0.63118347], "properties": {"magmom": -0.0}, "label": "Ti", "xyz": [1.716878656233244, 2.9348711082529215, 5.967790388173654]}, {"species": [{"element": "Ti", "occu": 1}], "abc": [0.33180667, 0.99560646, 0.13118347], "properties": {"magmom": -0.0}, "label": "Ti", "xyz": [-0.8474628052860562, 4.401894491551454, 1.2403294581736544]}, {"species": [{"element": "Ti", "occu": 1}], "abc": [0.66379979, 0.99560646, 0.86881653], "properties": {"magmom": -0.0}, "label": "Ti", "xyz": [0.847461789767467, 4.401894488231523, 8.214592401826346]}, {"species": [{"element": "Ti", "occu": 1}], "abc": [0.66379979, 0.66819333, 0.13118347], "properties": {"magmom": -0.0}, "label": "Ti", "xyz": [1.6832331419770268, 2.954296353427337, 1.2403294581736544]}, {"species": [{"element": "Ti", "occu": 1}], "abc": [0.33620021, 0.33180667, 0.36881653000000003], "properties": {"magmom": -0.0}, "label": "Ti", "xyz": [0.8694165280229732, 1.4670233765726641, 3.487131471826346]}, {"species": [{"element": "Ti", "occu": 1}], "abc": [0.99560646, 0.33180667, 0.63118347], "properties": {"magmom": -0.0}, "label": "Ti", "xyz": [4.2358834935342236, 1.4670233699786015, 5.967790388173654]}, {"species": [{"element": "Ti", "occu": 1}], "abc": [0.33620021, 0.0043935400000000005, 0.63118347], "properties": {"magmom": -0.0}, "label": "Ti", "xyz": [1.7051878802325329, 0.019425241768477503, 5.967790388173654]}, {"species": [{"element": "Ti", "occu": 1}], "abc": [0.66819333, 0.0043935400000000005, 0.36881653000000003], "properties": {"magmom": -0.0}, "label": "Ti", "xyz": [3.4001124752860568, 0.019425238448546305, 3.487131471826346]}, {"species": [{"element": "Ti", "occu": 1}], "abc": [0.0043935400000000005, 0.33620021, 0.13118347], "properties": {"magmom": -0.0}, "label": "Ti", "xyz": [-0.8357713566909706, 1.4864486250212103, 1.2403294581736544]}, {"species": [{"element": "Ti", "occu": 1}], "abc": [0.33180667, 0.33620021, 0.86881653], "properties": {"magmom": -0.0}, "label": "Ti", "xyz": [0.8357710137667564, 1.486448621747079, 8.214592401826346]}, {"species": [{"element": "Ti", "occu": 1}], "abc": [0.0043935400000000005, 0.66819333, 0.86881653], "properties": {"magmom": -0.0}, "label": "Ti", "xyz": [-1.6832338235342235, 2.954296360021399, 8.214592401826346]}, {"species": [{"element": "Ti", "occu": 1}], "abc": [0.99560646, 0.66379979, 0.36881653000000003], "properties": {"magmom": -0.0}, "label": "Ti", "xyz": [3.388421026690971, 2.9348711049787903, 3.487131471826346]}, {"species": [{"element": "O", "occu": 1}], "abc": [0.666667, 0.333333, 0.5], "properties": {"magmom": -0.0}, "label": "O", "xyz": [2.5526525626503505, 1.47377176622675, 4.72746093]}, {"species": [{"element": "O", "occu": 1}], "abc": [0.333333, 0.666667, -0.0], "properties": {"magmom": -0.0}, "label": "O", "xyz": [-2.892650350139192e-06, 2.9475479637732502, 0.0]}]}, "task_ids": null, "uncorrected_energy_per_atom": null, "energy_per_atom": -8.391111578571428, "formation_energy_per_atom": -0.9166954207142841, "energy_above_hull": 0.0, "is_stable": true, "equilibrium_reaction_energy_per_atom": null, "decomposes_to": null, "xas": null, "grain_boundaries": null, "band_gap": 0.0, "cbm": null, "vbm": null, "efermi": 6.15703698, "is_gap_direct": null, "is_metal": null, "es_source_calc_id": null, "bandstructure": null, "dos": null, "dos_energy_up": null, "dos_energy_down": null, "is_magnetic": null, "ordering": null, "total_magnetization": 0.0, "total_magnetization_normalized_vol": null, "total_magnetization_normalized_formula_units": null, "num_magnetic_sites": null, "num_unique_magnetic_sites": null, "types_of_magnetic_species": null, "bulk_modulus": null, "shear_modulus": null, "universal_anisotropy": null, "homogeneous_poisson": null, "e_total": null, "e_ionic": null, "e_electronic": null, "n": null, "e_ij_max": null, "weighted_surface_energy_EV_PER_ANG2": null, "weighted_surface_energy": null, "weighted_work_function": null, "surface_anisotropy": null, "shape_factor": null, "has_reconstructed": null, "possible_species": null, "has_props": null, "theoretical": null, "database_IDs": null, "fields_not_requested": ["builder_meta", "nsites", "elements", "nelements", "composition", "composition_reduced", "chemsys", "symmetry", "property_name", "deprecated", "deprecation_reasons", "last_updated", "origins", "warnings", "task_ids", "uncorrected_energy_per_atom", "equilibrium_reaction_energy_per_atom", "decomposes_to", "xas", "grain_boundaries", "cbm", "vbm", "is_gap_direct", "is_metal", "es_source_calc_id", "bandstructure", "dos", "dos_energy_up", "dos_energy_down", "is_magnetic", "ordering", "total_magnetization_normalized_vol", "total_magnetization_normalized_formula_units", "num_magnetic_sites", "num_unique_magnetic_sites", "types_of_magnetic_species", "bulk_modulus", "shear_modulus", "universal_anisotropy", "homogeneous_poisson", "e_total", "e_ionic", "e_electronic", "n", "e_ij_max", "weighted_surface_energy_EV_PER_ANG2", "weighted_surface_energy", "weighted_work_function", "surface_anisotropy", "shape_factor", "has_reconstructed", "possible_species", "has_props", "theoretical", "database_IDs"]}