{
  "builder_meta": null,
  "nsites": null,
  "elements": null,
  "nelements": null,
  "composition": null,
  "composition_reduced": null,
  "formula_pretty": "Ti7O8",
  "formula_anonymous": "A7B8",
  "chemsys": null,
  "volume": 165.56435271850313,
  "density": 4.644334253226848,
  "density_atomic": 11.037623514566876,
  "symmetry": null,
  "property_name": null,
  "material_id": "mp-779692",
  "deprecated": null,
  "deprecation_reasons": null,
  "last_updated": null,
  "origins": null,
  "warnings": null,
  "structure": {
    "@module": "pymatgen.core.structure",
    "@class": "Structure",
    "charge": 0,
    "lattice": {
      "matrix": [
        [2.051686, 4.776846, 0.0],
        [-2.051686, 4.776846, 0.0],
        [0.0, 2.932752, 8.446654]
      ],
      "pbc": [true, true, true],
      "a": 5.198814590876655,
      "b": 5.198814590876655,
      "c": 8.941308522203,
      "alpha": 72.45962788303247,
      "beta": 72.45962788303247,
      "gamma": 46.487666506206644,
      "volume": 165.56435271850313
    },
    "properties": {},
    "sites": [
      {
        "species": [{ "element": "Ti", "occu": 1 }],
        "abc": [0.674341, 0.674341, 0.114052],
        "properties": { "magmom": -0.0 },
        "label": "Ti",
        "xyz": [0.0, 6.776932448076, 0.963357782008]
      },
      {
        "species": [{ "element": "Ti", "occu": 1 }],
        "abc": [0.648247999999999, 0.648247999999999, 0.455129],
        "properties": { "magmom": 0.0 },
        "label": "Ti",
        "xyz": [0.0, 7.527942216623991, 3.8443171883660003]
      },
      {
        "species": [{ "element": "Ti", "occu": 1 }],
        "abc": [0.017194, 0.017194, 0.33490000000000003],
        "properties": { "magmom": 0.0 },
        "label": "Ti",
        "xyz": [0.0, 1.146444825048, 2.8287844246000002]
      },
      {
        "species": [{ "element": "Ti", "occu": 1 }],
        "abc": [0.661486, 0.661486, 0.775237],
        "properties": { "magmom": -0.0 },
        "label": "Ti",
        "xyz": [0.0, 8.593211368536, 6.548158706998]
      },
      {
        "species": [{ "element": "Ti", "occu": 1 }],
        "abc": [0.331654, 0.331654, 0.197363999999999],
        "properties": { "magmom": 0.0 },
        "label": "Ti",
        "xyz": [0.0, 3.7473398322959968, 1.6670654200559918]
      },
      {
        "species": [{ "element": "Ti", "occu": 1 }],
        "abc": [0.340435, 0.340435, 0.899798999999999],
        "properties": { "magmom": -0.0 },
        "label": "Ti",
        "xyz": [0.0, 5.891298452867996, 7.600290822545992]
      },
      {
        "species": [{ "element": "Ti", "occu": 1 }],
        "abc": [0.348155, 0.348155, 0.569462],
        "properties": { "magmom": -0.0 },
        "label": "Ti",
        "xyz": [0.0, 4.996256457684, 4.810048480148001]
      },
      {
        "species": [{ "element": "O", "occu": 1 }],
        "abc": [0.832112, 0.832112, 0.236515999999999],
        "properties": { "magmom": 0.0 },
        "label": "O",
        "xyz": [0.0, 8.643384529535997, 1.9977688174639918]
      },
      {
        "species": [{ "element": "O", "occu": 1 }],
        "abc": [0.812878, 0.812878, 0.887405],
        "properties": { "magmom": -0.0 },
        "label": "O",
        "xyz": [0.0, 10.368524834136, 7.49560299287]
      },
      {
        "species": [{ "element": "O", "occu": 1 }],
        "abc": [0.828548, 0.828548, 0.5512900000000001],
        "properties": { "magmom": -0.0 },
        "label": "O",
        "xyz": [0.0, 9.532489249295999, 4.656555883660001]
      },
      {
        "species": [{ "element": "O", "occu": 1 }],
        "abc": [0.183859, 0.183859, 0.440285],
        "properties": { "magmom": -0.0 },
        "label": "O",
        "xyz": [0.0, 3.047778971748, 3.71893505639]
      },
      {
        "species": [{ "element": "O", "occu": 1 }],
        "abc": [0.156025, 0.156025, 0.101258],
        "properties": { "magmom": 0.0 },
        "label": "O",
        "xyz": [0.0, 1.7875793963159998, 0.855291290732]
      },
      {
        "species": [{ "element": "O", "occu": 1 }],
        "abc": [0.500340999999999, 0.500340999999999, 0.676839],
        "properties": { "magmom": -0.0 },
        "label": "O",
        "xyz": [0.0, 6.765104739899991, 5.717024846706]
      },
      {
        "species": [{ "element": "O", "occu": 1 }],
        "abc": [0.507232, 0.507232, 0.992069],
        "properties": { "magmom": -0.0 },
        "label": "O",
        "xyz": [0.0, 7.755430644432, 8.379663587126]
      },
      {
        "species": [{ "element": "O", "occu": 1 }],
        "abc": [0.490832999999999, 0.490832999999999, 0.323951999999999],
        "properties": { "magmom": -0.0 },
        "label": "O",
        "xyz": [0.0, 5.639338181339987, 2.736310456607992]
      }
    ]
  },
  "task_ids": null,
  "uncorrected_energy_per_atom": null,
  "energy_per_atom": -9.247476202666666,
  "formation_energy_per_atom": -2.924000725555555,
  "energy_above_hull": 0.11578333866666601,
  "is_stable": false,
  "equilibrium_reaction_energy_per_atom": null,
  "decomposes_to": null,
  "xas": null,
  "grain_boundaries": null,
  "band_gap": 0.0,
  "cbm": null,
  "vbm": null,
  "efermi": 7.08762482,
  "is_gap_direct": null,
  "is_metal": null,
  "es_source_calc_id": null,
  "bandstructure": null,
  "dos": null,
  "dos_energy_up": null,
  "dos_energy_down": null,
  "is_magnetic": null,
  "ordering": null,
  "total_magnetization": 0.0001495,
  "total_magnetization_normalized_vol": null,
  "total_magnetization_normalized_formula_units": null,
  "num_magnetic_sites": null,
  "num_unique_magnetic_sites": null,
  "types_of_magnetic_species": null,
  "bulk_modulus": null,
  "shear_modulus": null,
  "universal_anisotropy": null,
  "homogeneous_poisson": null,
  "e_total": null,
  "e_ionic": null,
  "e_electronic": null,
  "n": null,
  "e_ij_max": null,
  "weighted_surface_energy_EV_PER_ANG2": null,
  "weighted_surface_energy": null,
  "weighted_work_function": null,
  "surface_anisotropy": null,
  "shape_factor": null,
  "has_reconstructed": null,
  "possible_species": null,
  "has_props": null,
  "theoretical": null,
  "database_IDs": null,
  "fields_not_requested": [
    "builder_meta",
    "nsites",
    "elements",
    "nelements",
    "composition",
    "composition_reduced",
    "chemsys",
    "symmetry",
    "property_name",
    "deprecated",
    "deprecation_reasons",
    "last_updated",
    "origins",
    "warnings",
    "task_ids",
    "uncorrected_energy_per_atom",
    "equilibrium_reaction_energy_per_atom",
    "decomposes_to",
    "xas",
    "grain_boundaries",
    "cbm",
    "vbm",
    "is_gap_direct",
    "is_metal",
    "es_source_calc_id",
    "bandstructure",
    "dos",
    "dos_energy_up",
    "dos_energy_down",
    "is_magnetic",
    "ordering",
    "total_magnetization_normalized_vol",
    "total_magnetization_normalized_formula_units",
    "num_magnetic_sites",
    "num_unique_magnetic_sites",
    "types_of_magnetic_species",
    "bulk_modulus",
    "shear_modulus",
    "universal_anisotropy",
    "homogeneous_poisson",
    "e_total",
    "e_ionic",
    "e_electronic",
    "n",
    "e_ij_max",
    "weighted_surface_energy_EV_PER_ANG2",
    "weighted_surface_energy",
    "weighted_work_function",
    "surface_anisotropy",
    "shape_factor",
    "has_reconstructed",
    "possible_species",
    "has_props",
    "theoretical",
    "database_IDs"
  ]
}
