{"builder_meta": null, "nsites": null, "elements": null, "nelements": null, "composition": null, "composition_reduced": null, "formula_pretty": "Ti7P4", "formula_anonymous": "A4B7", "chemsys": null, "volume": 326.801452544347, "density": 4.664163674520122, "density_atomic": 14.8546114792885, "symmetry": null, "property_name": null, "material_id": "mp-1191079", "deprecated": null, "deprecation_reasons": null, "last_updated": null, "origins": null, "warnings": null, "structure": {"@module": "pymatgen.core.structure", "@class": "Structure", "charge": 0, "lattice": {"matrix": [[0.00017658, -3.39829725, -0.00021328000000000002], [-7.06345895, 1.699635129999999, 1.85872397], [0.01894852, -0.0008566800000000001, -13.61976576]], "pbc": [true, true, true], "a": 3.398297261280481, "b": 7.4990710564787815, "c": 13.619778968014833, "alpha": 104.42929065692819, "beta": 89.99279604279663, "gamma": 103.10348728344334, "volume": 326.80145254434694}, "properties": {}, "sites": [{"species": [{"element": "Ti", "occu": 1}], "abc": [-1.7140000000000002e-05, -2.7800000000000005e-05, -2.6330000000000004e-05], "properties": {"magmom": 0.0}, "label": "Ti", "xyz": [0.00019586221769720005, 1.1019514635400027e-05, 0.000306939561714]}, {"species": [{"element": "Ti", "occu": 1}], "abc": [0.49999964, -1.4e-06, 0.5000285800000001], "properties": {"magmom": -0.0}, "label": "Ti", "xyz": [0.009572980327662801, -1.6995781455860866, -6.810381375042199]}, {"species": [{"element": "Ti", "occu": 1}], "abc": [0.4291409, 0.8583133, 0.83042811], "properties": {"magmom": 0.0}, "label": "Ti", "xyz": [-6.046849599438016, -0.00024031425957185093, -9.714960361410865]}, {"species": [{"element": "Ti", "occu": 1}], "abc": [0.57084667, 0.14166669, 0.16953036], "properties": {"magmom": 0.0}, "label": "Ti", "xyz": [-0.9973436998753197, -1.6992702190266429, -2.0457662701326917]}, {"species": [{"element": "Ti", "occu": 1}], "abc": [0.19639276, 0.392519299999999, 0.30757183], "properties": {"magmom": 0.0}, "label": "Ti", "xyz": [-2.7666812526269755, -0.0005248753802275148, -3.459513134024774]}, {"species": [{"element": "Ti", "occu": 1}], "abc": [0.80361379, 0.60747811, 0.69245119], "properties": {"magmom": 0.0}, "label": "Ti", "xyz": [-4.277633865662808, -1.6990206052425234, -8.30206027847509]}, {"species": [{"element": "Ti", "occu": 1}], "abc": [0.20515256, 0.41044348, 0.79397328], "properties": {"magmom": 0.0}, "label": "Ti", "xyz": [-2.884069827860556, -0.0002454040205184289, -10.050872713630675]}, {"species": [{"element": "Ti", "occu": 1}], "abc": [0.7948397700000001, 0.589548699999999, 0.20601377], "properties": {"magmom": 0.0}, "label": "Ti", "xyz": [-4.160209032628152, -1.6992606110922877, -1.710220513988324]}, {"species": [{"element": "Ti", "occu": 1}], "abc": [0.33967135, 0.67933342, 0.03149366], "properties": {"magmom": 0.0}, "label": "Ti", "xyz": [-4.797786988119743, 0.0002877510176077634, 0.8336845941454678]}, {"species": [{"element": "Ti", "occu": 1}], "abc": [0.66032875, 0.32067339, 0.9684495], "properties": {"magmom": 0.0}, "label": "Ti", "xyz": [-2.2465960410519257, -1.6997952676384072, -12.59415285877076]}, {"species": [{"element": "Ti", "occu": 1}], "abc": [0.00376894, 0.00765685, 0.66288065], "properties": {"magmom": 0.0}, "label": "Ti", "xyz": [-0.0415225728877443, -0.0003620037875165101, -9.014048013046372]}, {"species": [{"element": "Ti", "occu": 1}], "abc": [0.99623637, 0.99234532, 0.33714903], "properties": {"magmom": 0.0}, "label": "Ti", "xyz": [-7.002826041488464, -1.6991711783889125, -2.7476072593028866]}, {"species": [{"element": "Ti", "occu": 1}], "abc": [0.17915103000000002, 0.35815403, 0.54164349], "properties": {"magmom": -0.0}, "label": "Ti", "xyz": [-2.5195113116900565, -0.0005412963896072519, -6.711386188047482]}, {"species": [{"element": "Ti", "occu": 1}], "abc": [0.8208665900000001, 0.64187108, 0.45840952], "properties": {"magmom": -0.0}, "label": "Ti", "xyz": [-4.5249988941917945, -1.6989947491824313, -5.050544196934563]}, {"species": [{"element": "P", "occu": 1}], "abc": [0.17855685000000002, 0.3569484, 0.10974927], "properties": {"magmom": -0.0}, "label": "P", "xyz": [-2.519179254862027, -0.0002012320909944781, -0.8313288852028152]}, {"species": [{"element": "P", "occu": 1}], "abc": [0.8214414600000001, 0.64305579, 0.89020653], "properties": {"magmom": -0.0}, "label": "P", "xyz": [-4.525185028853977, -1.6993046654502038, -10.929316402736715]}, {"species": [{"element": "P", "occu": 1}], "abc": [0.37289085, 0.745807999999999, 0.60412527], "properties": {"magmom": -0.0}, "label": "P", "xyz": [-5.256471067754201, -0.00011001510642848732, -6.8418729906394855]}, {"species": [{"element": "P", "occu": 1}], "abc": [0.62713014, 0.25420967, 0.39592019], "properties": {"magmom": -0.0}, "label": "P", "xyz": [-1.7879867284593067, -1.6994501215447775, -4.9199683947361645]}, {"species": [{"element": "P", "occu": 1}], "abc": [0.36954358, 0.73909933, 0.3426802], "properties": {"magmom": -0.0}, "label": "P", "xyz": [-5.214039240798844, 8.668688457111394e-05, -3.2935212299627548]}, {"species": [{"element": "P", "occu": 1}], "abc": [0.63045684, 0.26090623, 0.6573531300000001], "properties": {"magmom": -0.0}, "label": "P", "xyz": [-1.8303332504045837, -1.6995974927512392, -8.468177452414333]}, {"species": [{"element": "P", "occu": 1}], "abc": [0.06156045, 0.12292712, 0.84974318], "properties": {"magmom": -0.0}, "label": "P", "xyz": [-0.8521784199763695, -0.0009974143494794405, -11.344828612863228]}, {"species": [{"element": "P", "occu": 1}], "abc": [0.93842983, 0.87706701, 0.15022262], "properties": {"magmom": -0.0}, "label": "P", "xyz": [-6.192114617275336, -1.698498301761009, -0.41597156978440397]}]}, "task_ids": null, "uncorrected_energy_per_atom": null, "energy_per_atom": -12.705895705909091, "formation_energy_per_atom": -1.199295311233766, "energy_above_hull": 0.0, "is_stable": true, "equilibrium_reaction_energy_per_atom": null, "decomposes_to": null, "xas": null, "grain_boundaries": null, "band_gap": 0.0, "cbm": null, "vbm": null, "efermi": 7.75492163, "is_gap_direct": null, "is_metal": null, "es_source_calc_id": null, "bandstructure": null, "dos": null, "dos_energy_up": null, "dos_energy_down": null, "is_magnetic": null, "ordering": null, "total_magnetization": 0.002633, "total_magnetization_normalized_vol": null, "total_magnetization_normalized_formula_units": null, "num_magnetic_sites": null, "num_unique_magnetic_sites": null, "types_of_magnetic_species": null, "bulk_modulus": null, "shear_modulus": null, "universal_anisotropy": null, "homogeneous_poisson": null, "e_total": null, "e_ionic": null, "e_electronic": null, "n": null, "e_ij_max": null, "weighted_surface_energy_EV_PER_ANG2": null, "weighted_surface_energy": null, "weighted_work_function": null, "surface_anisotropy": null, "shape_factor": null, "has_reconstructed": null, "possible_species": null, "has_props": null, "theoretical": null, "database_IDs": null, "fields_not_requested": ["builder_meta", "nsites", "elements", "nelements", "composition", "composition_reduced", "chemsys", "symmetry", "property_name", "deprecated", "deprecation_reasons", "last_updated", "origins", "warnings", "task_ids", "uncorrected_energy_per_atom", "equilibrium_reaction_energy_per_atom", "decomposes_to", "xas", "grain_boundaries", "cbm", "vbm", "is_gap_direct", "is_metal", "es_source_calc_id", "bandstructure", "dos", "dos_energy_up", "dos_energy_down", "is_magnetic", "ordering", "total_magnetization_normalized_vol", "total_magnetization_normalized_formula_units", "num_magnetic_sites", "num_unique_magnetic_sites", "types_of_magnetic_species", "bulk_modulus", "shear_modulus", "universal_anisotropy", "homogeneous_poisson", "e_total", "e_ionic", "e_electronic", "n", "e_ij_max", "weighted_surface_energy_EV_PER_ANG2", "weighted_surface_energy", "weighted_work_function", "surface_anisotropy", "shape_factor", "has_reconstructed", "possible_species", "has_props", "theoretical", "database_IDs"]}