{"builder_meta": null, "nsites": null, "elements": null, "nelements": null, "composition": null, "composition_reduced": null, "formula_pretty": "Ti8C5", "formula_anonymous": "A5B8", "chemsys": null, "volume": 160.89014492087287, "density": 4.572072274565825, "density_atomic": 12.376164993913298, "symmetry": null, "property_name": null, "material_id": "mp-27919", "deprecated": null, "deprecation_reasons": null, "last_updated": null, "origins": null, "warnings": null, "structure": {"@module": "pymatgen.core.structure", "@class": "Structure", "charge": 0, "lattice": {"matrix": [[5.28648262, -0.01037703, 3.00676555], [1.7440947800000002, 4.99050456, 3.00676555], [-0.01464943, -0.01037705, 6.08172088]], "pbc": [true, true, true], "a": 6.08174689106514, "b": 6.081746577889516, "c": 6.0817473764695285, "alpha": 60.50821580998295, "beta": 60.50821670345608, "gamma": 60.508200619638906, "volume": 160.89014492087287}, "properties": {}, "sites": [{"species": [{"element": "Ti", "occu": 1}], "abc": [0.24968831, 0.76317164, 0.24968831], "properties": {"magmom": -0.0}, "label": "Ti", "xyz": [2.6473587933810485, 3.8034294983218735, 4.563967013053635]}, {"species": [{"element": "Ti", "occu": 1}], "abc": [0.24968831, 0.24968831, 0.76317164], "properties": {"magmom": -0.0}, "label": "Ti", "xyz": [1.744272959812029, 1.2355601562833123, 6.142905315503284]}, {"species": [{"element": "Ti", "occu": 1}], "abc": [0.76317164, 0.24968831, 0.24968831], "properties": {"magmom": -0.0}, "label": "Ti", "xyz": [4.466315897615755, 1.235560166552979, 4.563967013053635]}, {"species": [{"element": "Ti", "occu": 1}], "abc": [0.23682836000000002, 0.75031169, 0.75031169], "properties": {"magmom": -0.0}, "label": "Ti", "xyz": [2.549612072384245, 3.7341903134470207, 7.531284966946364]}, {"species": [{"element": "Ti", "occu": 1}], "abc": [0.75031169, 0.23682836000000002, 0.75031169], "properties": {"magmom": -0.0}, "label": "Ti", "xyz": [4.368569176618951, 1.1663209816781261, 7.531284966946364]}, {"species": [{"element": "Ti", "occu": 1}], "abc": [0.75031169, 0.75031169, 0.23682836000000002], "properties": {"magmom": -0.0}, "label": "Ti", "xyz": [5.2716550101879704, 3.7341903237166876, 5.952346664496716]}, {"species": [{"element": "Ti", "occu": 1}], "abc": [0.24458575000000002, 0.24458575000000002, 0.24458575000000002], "properties": {"magmom": 0.0}, "label": "Ti", "xyz": [1.715996004488428, 1.21553014846366, 2.958326276967285]}, {"species": [{"element": "Ti", "occu": 1}], "abc": [0.7554142500000001, 0.7554142500000001, 0.7554142500000001], "properties": {"magmom": 0.0}, "label": "Ti", "xyz": [5.299931965511573, 3.75422033153634, 9.136925703032716]}, {"species": [{"element": "C", "occu": 1}], "abc": [0.0, -0.0, 0.5], "properties": {"magmom": 0.0}, "label": "C", "xyz": [-0.007324715, -0.005188525, 3.04086044]}, {"species": [{"element": "C", "occu": 1}], "abc": [0.5, -0.0, 0.0], "properties": {"magmom": 0.0}, "label": "C", "xyz": [2.64324131, -0.005188515, 1.503382775]}, {"species": [{"element": "C", "occu": 1}], "abc": [0.0, 0.5, 0.0], "properties": {"magmom": 0.0}, "label": "C", "xyz": [0.8720473900000001, 2.49525228, 1.503382775]}, {"species": [{"element": "C", "occu": 1}], "abc": [0.5, 0.5, 0.5], "properties": {"magmom": 0.0}, "label": "C", "xyz": [3.507963985, 2.48487524, 6.04762599]}, {"species": [{"element": "C", "occu": 1}], "abc": [0.0, -0.0, 0.0], "properties": {"magmom": 0.0}, "label": "C", "xyz": [0.0, 0.0, 0.0]}]}, "task_ids": null, "uncorrected_energy_per_atom": null, "energy_per_atom": -9.126612936923078, "formation_energy_per_atom": -0.718361891089745, "energy_above_hull": 0.0, "is_stable": true, "equilibrium_reaction_energy_per_atom": null, "decomposes_to": null, "xas": null, "grain_boundaries": null, "band_gap": 0.0, "cbm": null, "vbm": null, "efermi": 6.20072789, "is_gap_direct": null, "is_metal": null, "es_source_calc_id": null, "bandstructure": null, "dos": null, "dos_energy_up": null, "dos_energy_down": null, "is_magnetic": null, "ordering": null, "total_magnetization": 0.0, "total_magnetization_normalized_vol": null, "total_magnetization_normalized_formula_units": null, "num_magnetic_sites": null, "num_unique_magnetic_sites": null, "types_of_magnetic_species": null, "bulk_modulus": null, "shear_modulus": null, "universal_anisotropy": null, "homogeneous_poisson": null, "e_total": null, "e_ionic": null, "e_electronic": null, "n": null, "e_ij_max": null, "weighted_surface_energy_EV_PER_ANG2": null, "weighted_surface_energy": null, "weighted_work_function": null, "surface_anisotropy": null, "shape_factor": null, "has_reconstructed": null, "possible_species": null, "has_props": null, "theoretical": null, "database_IDs": null, "fields_not_requested": ["builder_meta", "nsites", "elements", "nelements", "composition", "composition_reduced", "chemsys", "symmetry", "property_name", "deprecated", "deprecation_reasons", "last_updated", "origins", "warnings", "task_ids", "uncorrected_energy_per_atom", "equilibrium_reaction_energy_per_atom", "decomposes_to", "xas", "grain_boundaries", "cbm", "vbm", "is_gap_direct", "is_metal", "es_source_calc_id", "bandstructure", "dos", "dos_energy_up", "dos_energy_down", "is_magnetic", "ordering", "total_magnetization_normalized_vol", "total_magnetization_normalized_formula_units", "num_magnetic_sites", "num_unique_magnetic_sites", "types_of_magnetic_species", "bulk_modulus", "shear_modulus", "universal_anisotropy", "homogeneous_poisson", "e_total", "e_ionic", "e_electronic", "n", "e_ij_max", "weighted_surface_energy_EV_PER_ANG2", "weighted_surface_energy", "weighted_work_function", "surface_anisotropy", "shape_factor", "has_reconstructed", "possible_species", "has_props", "theoretical", "database_IDs"]}