{
  "builder_meta": null,
  "nsites": null,
  "elements": null,
  "nelements": null,
  "composition": null,
  "composition_reduced": null,
  "formula_pretty": "Ti8In5",
  "formula_anonymous": "A5B8",
  "chemsys": null,
  "volume": 1003.6494304686134,
  "density": 6.333602202155104,
  "density_atomic": 19.300950585934874,
  "symmetry": null,
  "property_name": null,
  "material_id": "mp-1205133",
  "deprecated": null,
  "deprecation_reasons": null,
  "last_updated": null,
  "origins": null,
  "warnings": null,
  "structure": {
    "@module": "pymatgen.core.structure",
    "@class": "Structure",
    "charge": 0,
    "lattice": {
      "matrix": [
        [10.01215, 0.0, 0.0],
        [0.0, 10.01215, 0.0],
        [0.0, 0.0, 10.01215]
      ],
      "pbc": [true, true, true],
      "a": 10.01215,
      "b": 10.01215,
      "c": 10.01215,
      "alpha": 90.0,
      "beta": 90.0,
      "gamma": 90.0,
      "volume": 1003.6494304686134
    },
    "properties": {},
    "sites": [
      {
        "species": [{ "element": "Ti", "occu": 1 }],
        "abc": [0.481966, 0.831773, 0.168227],
        "properties": { "magmom": -0.001 },
        "label": "Ti",
        "xyz": [4.8255158869, 8.32783604195, 1.68431395805]
      },
      {
        "species": [{ "element": "Ti", "occu": 1 }],
        "abc": [0.831773, 0.831773, 0.518034],
        "properties": { "magmom": -0.001 },
        "label": "Ti",
        "xyz": [8.32783604195, 8.32783604195, 5.1866341131]
      },
      {
        "species": [{ "element": "Ti", "occu": 1 }],
        "abc": [0.831773, 0.481966, 0.168227],
        "properties": { "magmom": -0.001 },
        "label": "Ti",
        "xyz": [8.32783604195, 4.8255158869, 1.68431395805]
      },
      {
        "species": [{ "element": "Ti", "occu": 1 }],
        "abc": [0.481966, 0.168227, 0.831773],
        "properties": { "magmom": -0.0 },
        "label": "Ti",
        "xyz": [4.8255158869, 1.68431395805, 8.32783604195]
      },
      {
        "species": [{ "element": "Ti", "occu": 1 }],
        "abc": [0.831773, 0.168227, 0.481966],
        "properties": { "magmom": -0.001 },
        "label": "Ti",
        "xyz": [8.32783604195, 1.68431395805, 4.8255158869]
      },
      {
        "species": [{ "element": "Ti", "occu": 1 }],
        "abc": [0.831773, 0.518034, 0.831773],
        "properties": { "magmom": -0.001 },
        "label": "Ti",
        "xyz": [8.32783604195, 5.1866341131, 8.32783604195]
      },
      {
        "species": [{ "element": "Ti", "occu": 1 }],
        "abc": [0.518034, 0.831773, 0.831773],
        "properties": { "magmom": -0.001 },
        "label": "Ti",
        "xyz": [5.1866341131, 8.32783604195, 8.32783604195]
      },
      {
        "species": [{ "element": "Ti", "occu": 1 }],
        "abc": [0.168227, 0.831773, 0.481966],
        "properties": { "magmom": -0.001 },
        "label": "Ti",
        "xyz": [1.68431395805, 8.32783604195, 4.8255158869]
      },
      {
        "species": [{ "element": "Ti", "occu": 1 }],
        "abc": [0.168227, 0.481966, 0.831773],
        "properties": { "magmom": -0.001 },
        "label": "Ti",
        "xyz": [1.68431395805, 4.8255158869, 8.32783604195]
      },
      {
        "species": [{ "element": "Ti", "occu": 1 }],
        "abc": [0.518034, 0.168227, 0.168227],
        "properties": { "magmom": -0.002 },
        "label": "Ti",
        "xyz": [5.1866341131, 1.68431395805, 1.68431395805]
      },
      {
        "species": [{ "element": "Ti", "occu": 1 }],
        "abc": [0.168227, 0.168227, 0.518034],
        "properties": { "magmom": -0.001 },
        "label": "Ti",
        "xyz": [1.68431395805, 1.68431395805, 5.1866341131]
      },
      {
        "species": [{ "element": "Ti", "occu": 1 }],
        "abc": [0.168227, 0.518034, 0.168227],
        "properties": { "magmom": -0.001 },
        "label": "Ti",
        "xyz": [1.68431395805, 5.1866341131, 1.68431395805]
      },
      {
        "species": [{ "element": "Ti", "occu": 1 }],
        "abc": [0.5, 0.5, 0.139663999999999],
        "properties": { "magmom": 0.002 },
        "label": "Ti",
        "xyz": [5.006075, 5.006075, 1.39833691759999]
      },
      {
        "species": [{ "element": "Ti", "occu": 1 }],
        "abc": [0.5, 0.860336, 0.5],
        "properties": { "magmom": 0.002 },
        "label": "Ti",
        "xyz": [5.006075, 8.6138130824, 5.006075]
      },
      {
        "species": [{ "element": "Ti", "occu": 1 }],
        "abc": [0.860336, 0.5, 0.5],
        "properties": { "magmom": 0.003 },
        "label": "Ti",
        "xyz": [8.6138130824, 5.006075, 5.006075]
      },
      {
        "species": [{ "element": "Ti", "occu": 1 }],
        "abc": [0.5, 0.5, 0.860336],
        "properties": { "magmom": 0.002 },
        "label": "Ti",
        "xyz": [5.006075, 5.006075, 8.6138130824]
      },
      {
        "species": [{ "element": "Ti", "occu": 1 }],
        "abc": [0.5, 0.139663999999999, 0.5],
        "properties": { "magmom": 0.002 },
        "label": "Ti",
        "xyz": [5.006075, 1.39833691759999, 5.006075]
      },
      {
        "species": [{ "element": "Ti", "occu": 1 }],
        "abc": [0.139663999999999, 0.5, 0.5],
        "properties": { "magmom": 0.003 },
        "label": "Ti",
        "xyz": [1.39833691759999, 5.006075, 5.006075]
      },
      {
        "species": [{ "element": "Ti", "occu": 1 }],
        "abc": [0.0, 0.0, 0.357228999999999],
        "properties": { "magmom": -0.001 },
        "label": "Ti",
        "xyz": [0.0, 0.0, 3.5766303323499904]
      },
      {
        "species": [{ "element": "Ti", "occu": 1 }],
        "abc": [0.0, 0.642771, 0.0],
        "properties": { "magmom": 0.0 },
        "label": "Ti",
        "xyz": [0.0, 6.4355196676499995, 0.0]
      },
      {
        "species": [{ "element": "Ti", "occu": 1 }],
        "abc": [0.642771, 0.0, 0.0],
        "properties": { "magmom": -0.001 },
        "label": "Ti",
        "xyz": [6.4355196676499995, 0.0, 0.0]
      },
      {
        "species": [{ "element": "Ti", "occu": 1 }],
        "abc": [0.0, 0.0, 0.642771],
        "properties": { "magmom": 0.0 },
        "label": "Ti",
        "xyz": [0.0, 0.0, 6.4355196676499995]
      },
      {
        "species": [{ "element": "Ti", "occu": 1 }],
        "abc": [0.0, 0.357228999999999, 0.0],
        "properties": { "magmom": 0.0 },
        "label": "Ti",
        "xyz": [0.0, 3.5766303323499904, 0.0]
      },
      {
        "species": [{ "element": "Ti", "occu": 1 }],
        "abc": [0.357228999999999, 0.0, 0.0],
        "properties": { "magmom": -0.0 },
        "label": "Ti",
        "xyz": [3.5766303323499904, 0.0, 0.0]
      },
      {
        "species": [{ "element": "Ti", "occu": 1 }],
        "abc": [0.9031600000000001, 0.9031600000000001, 0.09684000000000001],
        "properties": { "magmom": -0.0 },
        "label": "Ti",
        "xyz": [9.042573394000001, 9.042573394000001, 0.9695766060000001]
      },
      {
        "species": [{ "element": "Ti", "occu": 1 }],
        "abc": [0.9031600000000001, 0.09684000000000001, 0.9031600000000001],
        "properties": { "magmom": 0.0 },
        "label": "Ti",
        "xyz": [9.042573394000001, 0.9695766060000001, 9.042573394000001]
      },
      {
        "species": [{ "element": "Ti", "occu": 1 }],
        "abc": [0.09684000000000001, 0.9031600000000001, 0.9031600000000001],
        "properties": { "magmom": -0.0 },
        "label": "Ti",
        "xyz": [0.9695766060000001, 9.042573394000001, 9.042573394000001]
      },
      {
        "species": [{ "element": "Ti", "occu": 1 }],
        "abc": [0.09684000000000001, 0.09684000000000001, 0.09684000000000001],
        "properties": { "magmom": -0.001 },
        "label": "Ti",
        "xyz": [0.9695766060000001, 0.9695766060000001, 0.9695766060000001]
      },
      {
        "species": [{ "element": "Ti", "occu": 1 }],
        "abc": [0.170936, 0.170936, 0.829063999999999],
        "properties": { "magmom": 0.0 },
        "label": "Ti",
        "xyz": [1.7114368724, 1.7114368724, 8.300713127599991]
      },
      {
        "species": [{ "element": "Ti", "occu": 1 }],
        "abc": [0.170936, 0.829063999999999, 0.170936],
        "properties": { "magmom": -0.001 },
        "label": "Ti",
        "xyz": [1.7114368724, 8.300713127599991, 1.7114368724]
      },
      {
        "species": [{ "element": "Ti", "occu": 1 }],
        "abc": [0.829063999999999, 0.170936, 0.170936],
        "properties": { "magmom": -0.002 },
        "label": "Ti",
        "xyz": [8.300713127599991, 1.7114368724, 1.7114368724]
      },
      {
        "species": [{ "element": "Ti", "occu": 1 }],
        "abc": [0.829063999999999, 0.829063999999999, 0.829063999999999],
        "properties": { "magmom": -0.001 },
        "label": "Ti",
        "xyz": [8.300713127599991, 8.300713127599991, 8.300713127599991]
      },
      {
        "species": [{ "element": "In", "occu": 1 }],
        "abc": [0.974529, 0.689838, 0.310162],
        "properties": { "magmom": -0.0 },
        "label": "In",
        "xyz": [9.75713052735, 6.9067615317, 3.1053884683]
      },
      {
        "species": [{ "element": "In", "occu": 1 }],
        "abc": [0.689838, 0.689838, 0.025470999999999],
        "properties": { "magmom": -0.0 },
        "label": "In",
        "xyz": [6.9067615317, 6.9067615317, 0.25501947264999003]
      },
      {
        "species": [{ "element": "In", "occu": 1 }],
        "abc": [0.689838, 0.974529, 0.310162],
        "properties": { "magmom": -0.0 },
        "label": "In",
        "xyz": [6.9067615317, 9.75713052735, 3.1053884683]
      },
      {
        "species": [{ "element": "In", "occu": 1 }],
        "abc": [0.974529, 0.310162, 0.689838],
        "properties": { "magmom": -0.0 },
        "label": "In",
        "xyz": [9.75713052735, 3.1053884683, 6.9067615317]
      },
      {
        "species": [{ "element": "In", "occu": 1 }],
        "abc": [0.689838, 0.310162, 0.974529],
        "properties": { "magmom": -0.0 },
        "label": "In",
        "xyz": [6.9067615317, 3.1053884683, 9.75713052735]
      },
      {
        "species": [{ "element": "In", "occu": 1 }],
        "abc": [0.689838, 0.025470999999999, 0.689838],
        "properties": { "magmom": -0.0 },
        "label": "In",
        "xyz": [6.9067615317, 0.25501947264999003, 6.9067615317]
      },
      {
        "species": [{ "element": "In", "occu": 1 }],
        "abc": [0.025470999999999, 0.689838, 0.689838],
        "properties": { "magmom": -0.0 },
        "label": "In",
        "xyz": [0.25501947264999003, 6.9067615317, 6.9067615317]
      },
      {
        "species": [{ "element": "In", "occu": 1 }],
        "abc": [0.310162, 0.689838, 0.974529],
        "properties": { "magmom": -0.0 },
        "label": "In",
        "xyz": [3.1053884683, 6.9067615317, 9.75713052735]
      },
      {
        "species": [{ "element": "In", "occu": 1 }],
        "abc": [0.310162, 0.974529, 0.689838],
        "properties": { "magmom": -0.0 },
        "label": "In",
        "xyz": [3.1053884683, 9.75713052735, 6.9067615317]
      },
      {
        "species": [{ "element": "In", "occu": 1 }],
        "abc": [0.025470999999999, 0.310162, 0.310162],
        "properties": { "magmom": -0.0 },
        "label": "In",
        "xyz": [0.25501947264999003, 3.1053884683, 3.1053884683]
      },
      {
        "species": [{ "element": "In", "occu": 1 }],
        "abc": [0.310162, 0.310162, 0.025470999999999],
        "properties": { "magmom": -0.0 },
        "label": "In",
        "xyz": [3.1053884683, 3.1053884683, 0.25501947264999003]
      },
      {
        "species": [{ "element": "In", "occu": 1 }],
        "abc": [0.310162, 0.025470999999999, 0.310162],
        "properties": { "magmom": -0.0 },
        "label": "In",
        "xyz": [3.1053884683, 0.25501947264999003, 3.1053884683]
      },
      {
        "species": [{ "element": "In", "occu": 1 }],
        "abc": [0.65993, 0.65993, 0.34007000000000004],
        "properties": { "magmom": -0.0 },
        "label": "In",
        "xyz": [6.6073181495, 6.6073181495, 3.4048318505000004]
      },
      {
        "species": [{ "element": "In", "occu": 1 }],
        "abc": [0.65993, 0.34007000000000004, 0.65993],
        "properties": { "magmom": -0.0 },
        "label": "In",
        "xyz": [6.6073181495, 3.4048318505000004, 6.6073181495]
      },
      {
        "species": [{ "element": "In", "occu": 1 }],
        "abc": [0.34007000000000004, 0.65993, 0.65993],
        "properties": { "magmom": -0.0 },
        "label": "In",
        "xyz": [3.4048318505000004, 6.6073181495, 6.6073181495]
      },
      {
        "species": [{ "element": "In", "occu": 1 }],
        "abc": [0.34007000000000004, 0.34007000000000004, 0.34007000000000004],
        "properties": { "magmom": -0.0 },
        "label": "In",
        "xyz": [3.4048318505000004, 3.4048318505000004, 3.4048318505000004]
      },
      {
        "species": [{ "element": "In", "occu": 1 }],
        "abc": [0.350526, 0.350526, 0.649474],
        "properties": { "magmom": -0.0 },
        "label": "In",
        "xyz": [3.5095188909, 3.5095188909, 6.5026311091]
      },
      {
        "species": [{ "element": "In", "occu": 1 }],
        "abc": [0.350526, 0.649474, 0.350526],
        "properties": { "magmom": -0.0 },
        "label": "In",
        "xyz": [3.5095188909, 6.5026311091, 3.5095188909]
      },
      {
        "species": [{ "element": "In", "occu": 1 }],
        "abc": [0.649474, 0.350526, 0.350526],
        "properties": { "magmom": -0.0 },
        "label": "In",
        "xyz": [6.5026311091, 3.5095188909, 3.5095188909]
      },
      {
        "species": [{ "element": "In", "occu": 1 }],
        "abc": [0.649474, 0.649474, 0.649474],
        "properties": { "magmom": -0.0 },
        "label": "In",
        "xyz": [6.5026311091, 6.5026311091, 6.5026311091]
      }
    ]
  },
  "task_ids": null,
  "uncorrected_energy_per_atom": null,
  "energy_per_atom": -6.022378090961538,
  "formation_energy_per_atom": -0.10239310249999901,
  "energy_above_hull": 0.030343543269230003,
  "is_stable": false,
  "equilibrium_reaction_energy_per_atom": null,
  "decomposes_to": null,
  "xas": null,
  "grain_boundaries": null,
  "band_gap": 0.0,
  "cbm": null,
  "vbm": null,
  "efermi": 7.28537165,
  "is_gap_direct": null,
  "is_metal": null,
  "es_source_calc_id": null,
  "bandstructure": null,
  "dos": null,
  "dos_energy_up": null,
  "dos_energy_down": null,
  "is_magnetic": null,
  "ordering": null,
  "total_magnetization": 0.004141199999999,
  "total_magnetization_normalized_vol": null,
  "total_magnetization_normalized_formula_units": null,
  "num_magnetic_sites": null,
  "num_unique_magnetic_sites": null,
  "types_of_magnetic_species": null,
  "bulk_modulus": null,
  "shear_modulus": null,
  "universal_anisotropy": null,
  "homogeneous_poisson": null,
  "e_total": null,
  "e_ionic": null,
  "e_electronic": null,
  "n": null,
  "e_ij_max": null,
  "weighted_surface_energy_EV_PER_ANG2": null,
  "weighted_surface_energy": null,
  "weighted_work_function": null,
  "surface_anisotropy": null,
  "shape_factor": null,
  "has_reconstructed": null,
  "possible_species": null,
  "has_props": null,
  "theoretical": null,
  "database_IDs": null,
  "fields_not_requested": [
    "builder_meta",
    "nsites",
    "elements",
    "nelements",
    "composition",
    "composition_reduced",
    "chemsys",
    "symmetry",
    "property_name",
    "deprecated",
    "deprecation_reasons",
    "last_updated",
    "origins",
    "warnings",
    "task_ids",
    "uncorrected_energy_per_atom",
    "equilibrium_reaction_energy_per_atom",
    "decomposes_to",
    "xas",
    "grain_boundaries",
    "cbm",
    "vbm",
    "is_gap_direct",
    "is_metal",
    "es_source_calc_id",
    "bandstructure",
    "dos",
    "dos_energy_up",
    "dos_energy_down",
    "is_magnetic",
    "ordering",
    "total_magnetization_normalized_vol",
    "total_magnetization_normalized_formula_units",
    "num_magnetic_sites",
    "num_unique_magnetic_sites",
    "types_of_magnetic_species",
    "bulk_modulus",
    "shear_modulus",
    "universal_anisotropy",
    "homogeneous_poisson",
    "e_total",
    "e_ionic",
    "e_electronic",
    "n",
    "e_ij_max",
    "weighted_surface_energy_EV_PER_ANG2",
    "weighted_surface_energy",
    "weighted_work_function",
    "surface_anisotropy",
    "shape_factor",
    "has_reconstructed",
    "possible_species",
    "has_props",
    "theoretical",
    "database_IDs"
  ]
}
