{
  "builder_meta": null,
  "nsites": null,
  "elements": null,
  "nelements": null,
  "composition": null,
  "composition_reduced": null,
  "formula_pretty": "Ti8S3",
  "formula_anonymous": "A3B8",
  "chemsys": null,
  "volume": 672.402206717294,
  "density": 4.732975207820129,
  "density_atomic": 15.281868334483955,
  "symmetry": null,
  "property_name": null,
  "material_id": "mp-680850",
  "deprecated": null,
  "deprecation_reasons": null,
  "last_updated": null,
  "origins": null,
  "warnings": null,
  "structure": {
    "@module": "pymatgen.core.structure",
    "@class": "Structure",
    "charge": 0,
    "lattice": {
      "matrix": [
        [1.667927, 12.497719, 0.0],
        [-1.667927, 12.497719, 0.0],
        [0.0, 10.440699, 16.128402]
      ],
      "pbc": [true, true, true],
      "a": 12.608527300215913,
      "b": 12.608527300215913,
      "c": 19.21284847913513,
      "alpha": 57.408421266887636,
      "beta": 57.408421266887636,
      "gamma": 15.203380536985637,
      "volume": 672.402206717294
    },
    "properties": {},
    "sites": [
      {
        "species": [{ "element": "Ti", "occu": 1 }],
        "abc": [0.595268999999999, 0.595268999999999, 0.585446999999999],
        "properties": { "magmom": 0.033 },
        "label": "Ti",
        "xyz": [0.0, 20.991485290274966, 9.442324565693985]
      },
      {
        "species": [{ "element": "Ti", "occu": 1 }],
        "abc": [0.011436, 0.011436, 0.574925],
        "properties": { "magmom": 0.011 },
        "label": "Ti",
        "xyz": [0.0, 6.288466701543001, 9.27262151985]
      },
      {
        "species": [{ "element": "Ti", "occu": 1 }],
        "abc": [0.940044, 0.940044, 0.2805],
        "properties": { "magmom": -0.016 },
        "label": "Ti",
        "xyz": [0.0, 26.425427588772003, 4.524016761]
      },
      {
        "species": [{ "element": "Ti", "occu": 1 }],
        "abc": [0.5512400000000001, 0.5512400000000001, 0.278167],
        "properties": { "magmom": 0.02 },
        "label": "Ti",
        "xyz": [0.0, 16.682743161853004, 4.486389199134]
      },
      {
        "species": [{ "element": "Ti", "occu": 1 }],
        "abc": [0.8479200000000001, 0.8479200000000001, 0.202713999999999],
        "properties": { "magmom": -0.003 },
        "label": "Ti",
        "xyz": [0.0, 23.310607646045995, 3.2694528830279843]
      },
      {
        "species": [{ "element": "Ti", "occu": 1 }],
        "abc": [0.836519, 0.836519, 0.8458],
        "properties": { "magmom": 0.011 },
        "label": "Ti",
        "xyz": [0.0, 29.739902014522002, 13.641402411600001]
      },
      {
        "species": [{ "element": "Ti", "occu": 1 }],
        "abc": [0.009866999999999002, 0.009866999999999002, 0.088604999999999],
        "properties": { "magmom": 0.014 },
        "label": "Ti",
        "xyz": [0.0, 1.1717281216409647, 1.429057059209984]
      },
      {
        "species": [{ "element": "Ti", "occu": 1 }],
        "abc": [0.163481, 0.163481, 0.1542],
        "properties": { "magmom": 0.011 },
        "label": "Ti",
        "xyz": [0.0, 5.696234985478, 2.4869995884000002]
      },
      {
        "species": [{ "element": "Ti", "occu": 1 }],
        "abc": [0.328911, 0.328911, 0.339472999999999],
        "properties": { "magmom": 0.08 },
        "label": "Ti",
        "xyz": [0.0, 11.76560991964499, 5.475157012145985]
      },
      {
        "species": [{ "element": "Ti", "occu": 1 }],
        "abc": [0.988564, 0.988564, 0.425075],
        "properties": { "magmom": 0.011 },
        "label": "Ti",
        "xyz": [0.0, 29.147670298457, 6.85578048015]
      },
      {
        "species": [{ "element": "Ti", "occu": 1 }],
        "abc": [0.580149, 0.580149, 0.427699],
        "properties": { "magmom": -0.01 },
        "label": "Ti",
        "xyz": [0.0, 18.966554881863, 6.898101406998]
      },
      {
        "species": [{ "element": "Ti", "occu": 1 }],
        "abc": [0.718255, 0.718255, 0.392980999999999],
        "properties": { "magmom": -0.032 },
        "label": "Ti",
        "xyz": [0.0, 22.05609465440899, 6.3381555463619845]
      },
      {
        "species": [{ "element": "Ti", "occu": 1 }],
        "abc": [0.7048800000000001, 0.7048800000000001, 0.872641999999999],
        "properties": { "magmom": 0.029 },
        "label": "Ti",
        "xyz": [0.0, 26.729776794197992, 14.074320978083986]
      },
      {
        "species": [{ "element": "Ti", "occu": 1 }],
        "abc": [0.432550999999999, 0.432550999999999, 0.056212],
        "properties": { "magmom": 0.004 },
        "label": "Ti",
        "xyz": [0.0, 11.398694274525976, 0.9066097332240001]
      },
      {
        "species": [{ "element": "Ti", "occu": 1 }],
        "abc": [0.801493999999999, 0.801493999999999, 0.467076],
        "properties": { "magmom": 0.316 },
        "label": "Ti",
        "xyz": [0.0, 24.910293510495976, 7.533189492552]
      },
      {
        "species": [{ "element": "Ti", "occu": 1 }],
        "abc": [0.44876000000000005, 0.44876000000000005, 0.721833],
        "properties": { "magmom": 0.02 },
        "label": "Ti",
        "xyz": [0.0, 18.753393838147, 11.642012800866]
      },
      {
        "species": [{ "element": "Ti", "occu": 1 }],
        "abc": [0.15208000000000002, 0.15208000000000002, 0.797285999999999],
        "properties": { "magmom": -0.003 },
        "label": "Ti",
        "xyz": [0.0, 12.12552935395399, 12.858949116971985]
      },
      {
        "species": [{ "element": "Ti", "occu": 1 }],
        "abc": [0.29512000000000005, 0.29512000000000005, 0.127358],
        "properties": { "magmom": 0.029 },
        "label": "Ti",
        "xyz": [0.0, 8.706360205802001, 2.054081021916]
      },
      {
        "species": [{ "element": "Ti", "occu": 1 }],
        "abc": [0.766687999999999, 0.766687999999999, 0.040919],
        "properties": { "magmom": 0.231 },
        "label": "Ti",
        "xyz": [0.0, 19.590925331724975, 0.659958081438]
      },
      {
        "species": [{ "element": "Ti", "occu": 1 }],
        "abc": [0.233312, 0.233312, 0.959081],
        "properties": { "magmom": 0.231 },
        "label": "Ti",
        "xyz": [0.0, 15.845211668274999, 15.468443918562]
      },
      {
        "species": [{ "element": "Ti", "occu": 1 }],
        "abc": [0.059955999999999, 0.059955999999999, 0.7195],
        "properties": { "magmom": -0.016 },
        "label": "Ti",
        "xyz": [0.0, 9.010709411227976, 11.604385239]
      },
      {
        "species": [{ "element": "Ti", "occu": 1 }],
        "abc": [0.567449, 0.567449, 0.943788],
        "properties": { "magmom": 0.004 },
        "label": "Ti",
        "xyz": [0.0, 24.037442725474, 15.221792266776001]
      },
      {
        "species": [{ "element": "Ti", "occu": 1 }],
        "abc": [0.671088999999999, 0.671088999999999, 0.660527],
        "properties": { "magmom": 0.08 },
        "label": "Ti",
        "xyz": [0.0, 23.670527080354976, 10.653244987854]
      },
      {
        "species": [{ "element": "Ti", "occu": 1 }],
        "abc": [0.990132999999999, 0.990132999999999, 0.911395],
        "properties": { "magmom": 0.014 },
        "label": "Ti",
        "xyz": [0.0, 34.26440887835898, 14.69934494079]
      },
      {
        "species": [{ "element": "Ti", "occu": 1 }],
        "abc": [0.378807, 0.378807, 0.931846],
        "properties": { "magmom": 0.002 },
        "label": "Ti",
        "xyz": [0.0, 19.19757048282, 15.029186890092001]
      },
      {
        "species": [{ "element": "Ti", "occu": 1 }],
        "abc": [0.404731, 0.404731, 0.414553],
        "properties": { "magmom": 0.033 },
        "label": "Ti",
        "xyz": [0.0, 14.444651709725001, 6.686077434306001]
      },
      {
        "species": [{ "element": "Ti", "occu": 1 }],
        "abc": [0.419851, 0.419851, 0.572301],
        "properties": { "magmom": -0.01 },
        "label": "Ti",
        "xyz": [0.0, 16.469582118136998, 9.230300593002]
      },
      {
        "species": [{ "element": "Ti", "occu": 1 }],
        "abc": [0.695928, 0.695928, 0.250537],
        "properties": { "magmom": 0.002 },
        "label": "Ti",
        "xyz": [0.0, 20.010806581826998, 4.040761451874]
      },
      {
        "species": [{ "element": "Ti", "occu": 1 }],
        "abc": [0.281744999999999, 0.281744999999999, 0.607019],
        "properties": { "magmom": -0.032 },
        "label": "Ti",
        "xyz": [0.0, 13.380042345590976, 9.790246453638]
      },
      {
        "species": [{ "element": "Ti", "occu": 1 }],
        "abc": [0.304072, 0.304072, 0.749463],
        "properties": { "magmom": 0.002 },
        "label": "Ti",
        "xyz": [0.0, 15.425330418173, 12.087640548126]
      },
      {
        "species": [{ "element": "Ti", "occu": 1 }],
        "abc": [0.198506, 0.198506, 0.532924],
        "properties": { "magmom": 0.316 },
        "label": "Ti",
        "xyz": [0.0, 10.525843489504, 8.595212507448]
      },
      {
        "species": [{ "element": "Ti", "occu": 1 }],
        "abc": [0.621193, 0.621193, 0.06815399999999901],
        "properties": { "magmom": 0.002 },
        "label": "Ti",
        "xyz": [0.0, 16.23856651717999, 1.099215109907984]
      },
      {
        "species": [{ "element": "S", "occu": 1 }],
        "abc": [0.946238999999999, 0.946238999999999, 0.823647999999999],
        "properties": { "magmom": -0.0 },
        "label": "S",
        "xyz": [0.0, 32.25111910763397, 13.284126050495985]
      },
      {
        "species": [{ "element": "S", "occu": 1 }],
        "abc": [0.743722999999999, 0.743722999999999, 0.719807],
        "properties": { "magmom": -0.0 },
        "label": "S",
        "xyz": [0.0, 26.104970360766977, 11.609336658414]
      },
      {
        "species": [{ "element": "S", "occu": 1 }],
        "abc": [0.128977999999999, 0.128977999999999, 0.967409],
        "properties": { "magmom": -0.001 },
        "label": "S",
        "xyz": [0.0, 13.324287781254975, 15.602761250418]
      },
      {
        "species": [{ "element": "S", "occu": 1 }],
        "abc": [0.053760999999999004, 0.053760999999999004, 0.176351999999999],
        "properties": { "magmom": -0.0 },
        "label": "S",
        "xyz": [0.0, 3.185017892365965, 2.8442759495039844]
      },
      {
        "species": [{ "element": "S", "occu": 1 }],
        "abc": [0.108011, 0.108011, 0.314534],
        "properties": { "magmom": -0.0 },
        "label": "S",
        "xyz": [0.0, 5.983737073084, 5.072930794668]
      },
      {
        "species": [{ "element": "S", "occu": 1 }],
        "abc": [0.130128, 0.130128, 0.472522],
        "properties": { "magmom": -0.001 },
        "label": "S",
        "xyz": [0.0, 8.186066328942001, 7.621024769844]
      },
      {
        "species": [{ "element": "S", "occu": 1 }],
        "abc": [0.891988999999999, 0.891988999999999, 0.685466],
        "properties": { "magmom": -0.0 },
        "label": "S",
        "xyz": [0.0, 29.452399926915977, 11.055471205332001]
      },
      {
        "species": [{ "element": "S", "occu": 1 }],
        "abc": [0.42812000000000006, 0.42812000000000006, 0.191172999999999],
        "properties": { "magmom": -0.0 },
        "label": "S",
        "xyz": [0.0, 12.697026666486991, 3.0833149955459844]
      },
      {
        "species": [{ "element": "S", "occu": 1 }],
        "abc": [0.869872, 0.869872, 0.527478],
        "properties": { "magmom": -0.001 },
        "label": "S",
        "xyz": [0.0, 27.250070671058, 8.507377230156001]
      },
      {
        "species": [{ "element": "S", "occu": 1 }],
        "abc": [0.256277, 0.256277, 0.280192999999999],
        "properties": { "magmom": -0.0 },
        "label": "S",
        "xyz": [0.0, 9.33116663923299, 4.519065341585985]
      },
      {
        "species": [{ "element": "S", "occu": 1 }],
        "abc": [0.57188, 0.57188, 0.808827],
        "properties": { "magmom": -0.0 },
        "label": "S",
        "xyz": [0.0, 22.739110333513, 13.045087004454]
      },
      {
        "species": [{ "element": "S", "occu": 1 }],
        "abc": [0.871022, 0.871022, 0.032591],
        "properties": { "magmom": -0.001 },
        "label": "S",
        "xyz": [0.0, 22.111849218745, 0.525640749582]
      }
    ]
  },
  "task_ids": null,
  "uncorrected_energy_per_atom": null,
  "energy_per_atom": -7.889367291136364,
  "formation_energy_per_atom": -1.018547760606061,
  "energy_above_hull": 0.007596891666665001,
  "is_stable": false,
  "equilibrium_reaction_energy_per_atom": null,
  "decomposes_to": null,
  "xas": null,
  "grain_boundaries": null,
  "band_gap": 0.0,
  "cbm": null,
  "vbm": null,
  "efermi": 7.5858446,
  "is_gap_direct": null,
  "is_metal": null,
  "es_source_calc_id": null,
  "bandstructure": null,
  "dos": null,
  "dos_energy_up": null,
  "dos_energy_down": null,
  "is_magnetic": null,
  "ordering": null,
  "total_magnetization": 1.691743499999999,
  "total_magnetization_normalized_vol": null,
  "total_magnetization_normalized_formula_units": null,
  "num_magnetic_sites": null,
  "num_unique_magnetic_sites": null,
  "types_of_magnetic_species": null,
  "bulk_modulus": null,
  "shear_modulus": null,
  "universal_anisotropy": null,
  "homogeneous_poisson": null,
  "e_total": null,
  "e_ionic": null,
  "e_electronic": null,
  "n": null,
  "e_ij_max": null,
  "weighted_surface_energy_EV_PER_ANG2": null,
  "weighted_surface_energy": null,
  "weighted_work_function": null,
  "surface_anisotropy": null,
  "shape_factor": null,
  "has_reconstructed": null,
  "possible_species": null,
  "has_props": null,
  "theoretical": null,
  "database_IDs": null,
  "fields_not_requested": [
    "builder_meta",
    "nsites",
    "elements",
    "nelements",
    "composition",
    "composition_reduced",
    "chemsys",
    "symmetry",
    "property_name",
    "deprecated",
    "deprecation_reasons",
    "last_updated",
    "origins",
    "warnings",
    "task_ids",
    "uncorrected_energy_per_atom",
    "equilibrium_reaction_energy_per_atom",
    "decomposes_to",
    "xas",
    "grain_boundaries",
    "cbm",
    "vbm",
    "is_gap_direct",
    "is_metal",
    "es_source_calc_id",
    "bandstructure",
    "dos",
    "dos_energy_up",
    "dos_energy_down",
    "is_magnetic",
    "ordering",
    "total_magnetization_normalized_vol",
    "total_magnetization_normalized_formula_units",
    "num_magnetic_sites",
    "num_unique_magnetic_sites",
    "types_of_magnetic_species",
    "bulk_modulus",
    "shear_modulus",
    "universal_anisotropy",
    "homogeneous_poisson",
    "e_total",
    "e_ionic",
    "e_electronic",
    "n",
    "e_ij_max",
    "weighted_surface_energy_EV_PER_ANG2",
    "weighted_surface_energy",
    "weighted_work_function",
    "surface_anisotropy",
    "shape_factor",
    "has_reconstructed",
    "possible_species",
    "has_props",
    "theoretical",
    "database_IDs"
  ]
}
