{"builder_meta": null, "nsites": null, "elements": null, "nelements": null, "composition": null, "composition_reduced": null, "formula_pretty": "Ti8Se3", "formula_anonymous": "A3B8", "chemsys": null, "volume": 733.8190194739768, "density": 5.610258959172397, "density_atomic": 16.677704988044926, "symmetry": null, "property_name": null, "material_id": "mp-679962", "deprecated": null, "deprecation_reasons": null, "last_updated": null, "origins": null, "warnings": null, "structure": {"@module": "pymatgen.core.structure", "@class": "Structure", "charge": 0, "lattice": {"matrix": [[1.720324999999999, 12.770973, 0.0], [-1.720324999999999, 12.770973, 0.0], [0.0, 10.526837, 16.700308]], "pbc": [true, true, true], "a": 12.886321021624209, "b": 12.886321021624209, "c": 19.741190048207148, "alpha": 58.09792281675746, "beta": 58.09792281675746, "gamma": 15.343792457093969, "volume": 733.8190194739764}, "properties": {}, "sites": [{"species": [{"element": "Ti", "occu": 1}], "abc": [0.925524999999999, 0.925524999999999, 0.567112], "properties": {"magmom": 0.001}, "label": "Ti", "xyz": [0.0, 29.609605156393975, 9.470945070495999]}, {"species": [{"element": "Ti", "occu": 1}], "abc": [0.298106, 0.298106, 0.464257], "properties": {"magmom": -0.001}, "label": "Ti", "xyz": [0.0, 12.501365119385, 7.753234891156]}, {"species": [{"element": "Ti", "occu": 1}], "abc": [0.831521, 0.831521, 0.340955], "properties": {"magmom": -0.001}, "label": "Ti", "xyz": [0.0, 24.827842189201, 5.69405351414]}, {"species": [{"element": "Ti", "occu": 1}], "abc": [0.209611, 0.209611, 0.869979], "properties": {"magmom": 0.001}, "label": "Ti", "xyz": [0.0, 14.511999969429, 14.528917253531999]}, {"species": [{"element": "Ti", "occu": 1}], "abc": [0.701894, 0.701894, 0.535743], "properties": {"magmom": -0.001}, "label": "Ti", "xyz": [0.0, 23.567417880614997, 8.947073108844]}, {"species": [{"element": "Ti", "occu": 1}], "abc": [0.2617, 0.2617, 0.043587], "properties": {"magmom": 0.023}, "label": "Ti", "xyz": [0.0, 7.143160512519, 0.727916324796]}, {"species": [{"element": "Ti", "occu": 1}], "abc": [0.934701999999999, 0.934701999999999, 0.054338], "properties": {"magmom": -0.003}, "label": "Ti", "xyz": [0.0, 24.446115278997972, 0.9074613361039999]}, {"species": [{"element": "Ti", "occu": 1}], "abc": [0.489807999999999, 0.489807999999999, 0.916793], "properties": {"magmom": -0.001}, "label": "Ti", "xyz": [0.0, 22.161579960108973, 15.310725472244]}, {"species": [{"element": "Ti", "occu": 1}], "abc": [0.775544999999999, 0.775544999999999, 0.603949], "properties": {"magmom": 0.0}, "label": "Ti", "xyz": [0.0, 26.166601189882975, 10.086134316291998]}, {"species": [{"element": "Ti", "occu": 1}], "abc": [0.095392999999999, 0.095392999999999, 0.586701], "properties": {"magmom": 0.0}, "label": "Ti", "xyz": [0.0, 8.612628649514974, 9.798087403908001]}, {"species": [{"element": "Ti", "occu": 1}], "abc": [0.487975999999999, 0.487975999999999, 0.425208], "properties": {"magmom": 0.003}, "label": "Ti", "xyz": [0.0, 16.939951948391975, 7.101104564063999]}, {"species": [{"element": "Ti", "occu": 1}], "abc": [0.168479, 0.168479, 0.659045], "properties": {"magmom": -0.001}, "label": "Ti", "xyz": [0.0, 11.240940810799, 11.00625448586]}, {"species": [{"element": "Ti", "occu": 1}], "abc": [0.074475, 0.074475, 0.432888], "properties": {"magmom": 0.001}, "label": "Ti", "xyz": [0.0, 6.459177843606001, 7.229362929504]}, {"species": [{"element": "Ti", "occu": 1}], "abc": [0.7383000000000001, 0.7383000000000001, 0.956413], "properties": {"magmom": 0.023}, "label": "Ti", "xyz": [0.0, 28.925622487481, 15.972391675204]}, {"species": [{"element": "Ti", "occu": 1}], "abc": [0.512023999999999, 0.512023999999999, 0.574792], "properties": {"magmom": 0.003}, "label": "Ti", "xyz": [0.0, 19.128831051607975, 9.599203435936]}, {"species": [{"element": "Ti", "occu": 1}], "abc": [0.650705, 0.650705, 0.803754], "properties": {"magmom": -0.001}, "label": "Ti", "xyz": [0.0, 25.081259318027996, 13.422939356232]}, {"species": [{"element": "Ti", "occu": 1}], "abc": [0.349294999999999, 0.349294999999999, 0.196246], "properties": {"magmom": -0.001}, "label": "Ti", "xyz": [0.0, 10.987523681971975, 3.277368643768]}, {"species": [{"element": "Ti", "occu": 1}], "abc": [0.666362, 0.666362, 0.153196], "properties": {"magmom": 0.003}, "label": "Ti", "xyz": [0.0, 18.632851541504, 2.558420384368]}, {"species": [{"element": "Ti", "occu": 1}], "abc": [0.562035, 0.562035, 0.712908], "properties": {"magmom": -0.001}, "label": "Ti", "xyz": [0.0, 21.860133932106, 11.905783175664]}, {"species": [{"element": "Ti", "occu": 1}], "abc": [0.790389, 0.790389, 0.130021], "properties": {"magmom": 0.001}, "label": "Ti", "xyz": [0.0, 21.556783030571, 2.171390746468]}, {"species": [{"element": "Ti", "occu": 1}], "abc": [0.333638, 0.333638, 0.846804], "properties": {"magmom": 0.003}, "label": "Ti", "xyz": [0.0, 17.435931458496, 14.141887615632]}, {"species": [{"element": "Ti", "occu": 1}], "abc": [0.510192, 0.510192, 0.083206999999999], "properties": {"magmom": -0.001}, "label": "Ti", "xyz": [0.0, 13.907203039890987, 1.3895825277559832]}, {"species": [{"element": "Ti", "occu": 1}], "abc": [0.872284, 0.872284, 0.9332], "properties": {"magmom": -0.001}, "label": "Ti", "xyz": [0.0, 32.103475113064, 15.5847274256]}, {"species": [{"element": "Ti", "occu": 1}], "abc": [0.437963999999999, 0.437963999999999, 0.287092], "properties": {"magmom": -0.001}, "label": "Ti", "xyz": [0.0, 14.208623525947974, 4.794524824336]}, {"species": [{"element": "Ti", "occu": 1}], "abc": [0.046019, 0.046019, 0.282674], "properties": {"magmom": 0.002}, "label": "Ti", "xyz": [0.0, 4.151077935112, 4.720742863591999]}, {"species": [{"element": "Ti", "occu": 1}], "abc": [0.127716, 0.127716, 0.0668], "properties": {"magmom": -0.001}, "label": "Ti", "xyz": [0.0, 3.965307886936, 1.1155805744]}, {"species": [{"element": "Ti", "occu": 1}], "abc": [0.802531, 0.802531, 0.7543300000000001], "properties": {"magmom": 0.002}, "label": "Ti", "xyz": [0.0, 28.438912419536003, 12.597543333640001]}, {"species": [{"element": "Ti", "occu": 1}], "abc": [0.197468999999999, 0.197468999999999, 0.24567000000000003], "properties": {"magmom": 0.002}, "label": "Ti", "xyz": [0.0, 7.629870580463974, 4.102764666360001]}, {"species": [{"element": "Ti", "occu": 1}], "abc": [0.953981, 0.953981, 0.717326], "properties": {"magmom": 0.002}, "label": "Ti", "xyz": [0.0, 31.917705064887997, 11.979565136408]}, {"species": [{"element": "Ti", "occu": 1}], "abc": [0.904606999999999, 0.904606999999999, 0.41329899999999903], "properties": {"magmom": 0.0}, "label": "Ti", "xyz": [0.0, 27.456154350484965, 6.902220596091984]}, {"species": [{"element": "Ti", "occu": 1}], "abc": [0.065298, 0.065298, 0.945662], "properties": {"magmom": -0.003}, "label": "Ti", "xyz": [0.0, 11.622667721002, 15.792846663896]}, {"species": [{"element": "Ti", "occu": 1}], "abc": [0.224455, 0.224455, 0.396051], "properties": {"magmom": 0.0}, "label": "Ti", "xyz": [0.0, 9.902181810117, 6.614173683708]}, {"species": [{"element": "Se", "occu": 1}], "abc": [0.757981999999999, 0.757981999999999, 0.280751], "properties": {"magmom": -0.0}, "label": "Se", "xyz": [0.0, 22.315755327558975, 4.688628171307999]}, {"species": [{"element": "Se", "occu": 1}], "abc": [0.392515, 0.392515, 0.683929], "properties": {"magmom": -0.0}, "label": "Se", "xyz": [0.0, 17.225206036763, 11.421824950132]}, {"species": [{"element": "Se", "occu": 1}], "abc": [0.36746, 0.36746, 0.530585], "properties": {"magmom": -0.0}, "label": "Se", "xyz": [0.0, 14.971025286805, 8.86093292018]}, {"species": [{"element": "Se", "occu": 1}], "abc": [0.630437, 0.630437, 0.964393], "properties": {"magmom": -0.0}, "label": "Se", "xyz": [0.0, 26.254595725343002, 16.105660133043997]}, {"species": [{"element": "Se", "occu": 1}], "abc": [0.070201, 0.070201, 0.808636999999999], "properties": {"magmom": -0.0}, "label": "Se", "xyz": [0.0, 10.30546004231499, 13.504486960195983]}, {"species": [{"element": "Se", "occu": 1}], "abc": [0.369563, 0.369563, 0.035607], "properties": {"magmom": -0.0}, "label": "Se", "xyz": [0.0, 9.814187274657, 0.594647866956]}, {"species": [{"element": "Se", "occu": 1}], "abc": [0.445366999999999, 0.445366999999999, 0.824004], "properties": {"magmom": -0.0}, "label": "Se", "xyz": [0.0, 20.049695659529974, 13.761120593231999]}, {"species": [{"element": "Se", "occu": 1}], "abc": [0.607484999999999, 0.607484999999999, 0.316071], "properties": {"magmom": -0.0}, "label": "Se", "xyz": [0.0, 18.843576963236977, 5.278483049868]}, {"species": [{"element": "Se", "occu": 1}], "abc": [0.554632999999999, 0.554632999999999, 0.17599599999999901], "properties": {"magmom": -0.0}, "label": "Se", "xyz": [0.0, 16.019087340469966, 2.9391874067679833]}, {"species": [{"element": "Se", "occu": 1}], "abc": [0.929798999999999, 0.929798999999999, 0.191362999999999], "properties": {"magmom": -0.0}, "label": "Se", "xyz": [0.0, 25.763322957684963, 3.1958210398039832]}, {"species": [{"element": "Se", "occu": 1}], "abc": [0.242017999999999, 0.242017999999999, 0.719248999999999], "properties": {"magmom": -0.0}, "label": "Se", "xyz": [0.0, 13.753027672440965, 12.011679828691983]}, {"species": [{"element": "Se", "occu": 1}], "abc": [0.6325400000000001, 0.6325400000000001, 0.469414999999999], "properties": {"magmom": -0.0}, "label": "Se", "xyz": [0.0, 21.09775771319499, 7.839375079819984]}]}, "task_ids": null, "uncorrected_energy_per_atom": null, "energy_per_atom": -7.499047256363636, "formation_energy_per_atom": -0.803440841245265, "energy_above_hull": 0.005985146404429, "is_stable": false, "equilibrium_reaction_energy_per_atom": null, "decomposes_to": null, "xas": null, "grain_boundaries": null, "band_gap": 0.0, "cbm": null, "vbm": null, "efermi": 6.92632385, "is_gap_direct": null, "is_metal": null, "es_source_calc_id": null, "bandstructure": null, "dos": null, "dos_energy_up": null, "dos_energy_down": null, "is_magnetic": null, "ordering": null, "total_magnetization": 0.1474819, "total_magnetization_normalized_vol": null, "total_magnetization_normalized_formula_units": null, "num_magnetic_sites": null, "num_unique_magnetic_sites": null, "types_of_magnetic_species": null, "bulk_modulus": null, "shear_modulus": null, "universal_anisotropy": null, "homogeneous_poisson": null, "e_total": null, "e_ionic": null, "e_electronic": null, "n": null, "e_ij_max": null, "weighted_surface_energy_EV_PER_ANG2": null, "weighted_surface_energy": null, "weighted_work_function": null, "surface_anisotropy": null, "shape_factor": null, "has_reconstructed": null, "possible_species": null, "has_props": null, "theoretical": null, "database_IDs": null, "fields_not_requested": ["builder_meta", "nsites", "elements", "nelements", "composition", "composition_reduced", "chemsys", "symmetry", "property_name", "deprecated", "deprecation_reasons", "last_updated", "origins", "warnings", "task_ids", "uncorrected_energy_per_atom", "equilibrium_reaction_energy_per_atom", "decomposes_to", "xas", "grain_boundaries", "cbm", "vbm", "is_gap_direct", "is_metal", "es_source_calc_id", "bandstructure", "dos", "dos_energy_up", "dos_energy_down", "is_magnetic", "ordering", "total_magnetization_normalized_vol", "total_magnetization_normalized_formula_units", "num_magnetic_sites", "num_unique_magnetic_sites", "types_of_magnetic_species", "bulk_modulus", "shear_modulus", "universal_anisotropy", "homogeneous_poisson", "e_total", "e_ionic", "e_electronic", "n", "e_ij_max", "weighted_surface_energy_EV_PER_ANG2", "weighted_surface_energy", "weighted_work_function", "surface_anisotropy", "shape_factor", "has_reconstructed", "possible_species", "has_props", "theoretical", "database_IDs"]}