{"builder_meta": null, "nsites": null, "elements": null, "nelements": null, "composition": null, "composition_reduced": null, "formula_pretty": "TiAl2", "formula_anonymous": "AB2", "chemsys": null, "volume": 188.30075890256603, "density": 3.591973231143247, "density_atomic": 15.691729908547169, "symmetry": null, "property_name": null, "material_id": "mp-567705", "deprecated": null, "deprecation_reasons": null, "last_updated": null, "origins": null, "warnings": null, "structure": {"@module": "pymatgen.core.structure", "@class": "Structure", "charge": 0, "lattice": {"matrix": [[3.89838881, -0.0, -0.62839129], [-0.10129241, 3.89707191, -0.62839129], [-0.00184347, -0.00189234, 12.39509558]], "pbc": [true, true, true], "a": 3.9487100333249443, "b": 3.948709312849266, "c": 12.395095861536038, "alpha": 99.16541232713078, "beta": 99.16540910755212, "gamma": 90.00000582182285, "volume": 188.30075890256603}, "properties": {}, "sites": [{"species": [{"element": "Ti", "occu": 1}], "abc": [0.54700349, 0.79700349, 0.59400597], "properties": {"magmom": 0.0}, "label": "Ti", "xyz": [2.0506068479809203, 3.104855851793696, 6.518198493309408]}, {"species": [{"element": "Ti", "occu": 1}], "abc": [0.29700349, 0.04700349, 0.09400597000000001], "properties": {"magmom": 0.0}, "label": "Ti", "xyz": [1.15290068798092, 0.18299808929369613, 0.9490419933094084]}, {"species": [{"element": "Ti", "occu": 1}], "abc": [0.70299651, 0.9529965100000001, 0.90599403], "properties": {"magmom": 0.0}, "label": "Ti", "xyz": [2.64235224201908, 3.7121814807063043, 10.189271006690591]}, {"species": [{"element": "Ti", "occu": 1}], "abc": [0.45299651, 0.20299651, 0.40599403], "properties": {"magmom": 0.0}, "label": "Ti", "xyz": [1.74464608201908, 0.7903237182063039, 4.620114506690591]}, {"species": [{"element": "Al", "occu": 1}], "abc": [0.7886205, 0.5386205, 0.07723999000000001], "properties": {"magmom": -0.0}, "label": "Al", "xyz": [3.0196487744118348, 2.098896656377478, 0.12337037451735433]}, {"species": [{"element": "Al", "occu": 1}], "abc": [0.62503416, 0.37503416, 0.7500683300000001], "properties": {"magmom": 0.0}, "label": "Al", "xyz": [2.3972553328487187, 1.4601157059228536, 8.668734420188049]}, {"species": [{"element": "Al", "occu": 1}], "abc": [0.12496584000000001, 0.87496584, 0.74993167], "properties": {"magmom": 0.0}, "label": "Al", "xyz": [0.39715555715128115, 3.408385671577147, 8.667126369811953]}, {"species": [{"element": "Al", "occu": 1}], "abc": [0.2113795, 0.4613795, 0.92276001], "properties": {"magmom": -0.0}, "label": "Al", "xyz": [0.7756041555881653, 1.7962829136225218, 11.014942625482647]}, {"species": [{"element": "Al", "occu": 1}], "abc": [0.038620499999999, 0.2886205, 0.57723999], "properties": {"magmom": -0.0}, "label": "Al", "xyz": [0.12025853441183082, 1.1236825088774784, 6.949309454517355]}, {"species": [{"element": "Al", "occu": 1}], "abc": [0.37496584, 0.62496584, 0.24993167], "properties": {"magmom": 0.0}, "label": "Al", "xyz": [1.397997597151281, 2.4350638640771467, 2.4695785798119507]}, {"species": [{"element": "Al", "occu": 1}], "abc": [0.87503416, 0.12503416, 0.25006833], "properties": {"magmom": 0.0}, "label": "Al", "xyz": [3.398097372848719, 0.4867938984228534, 2.4711866301880487]}, {"species": [{"element": "Al", "occu": 1}], "abc": [0.961379499999999, 0.711379499999999, 0.42276001], "properties": {"magmom": -0.0}, "label": "Al", "xyz": [3.6749943955881617, 2.7714970611225183, 4.189003545482647]}]}, "task_ids": null, "uncorrected_energy_per_atom": null, "energy_per_atom": -9.273389312499999, "formation_energy_per_atom": -0.47273808805555406, "energy_above_hull": 0.0, "is_stable": true, "equilibrium_reaction_energy_per_atom": null, "decomposes_to": null, "xas": null, "grain_boundaries": null, "band_gap": 0.0, "cbm": null, "vbm": null, "efermi": 7.44214952, "is_gap_direct": null, "is_metal": null, "es_source_calc_id": null, "bandstructure": null, "dos": null, "dos_energy_up": null, "dos_energy_down": null, "is_magnetic": null, "ordering": null, "total_magnetization": 0.0, "total_magnetization_normalized_vol": null, "total_magnetization_normalized_formula_units": null, "num_magnetic_sites": null, "num_unique_magnetic_sites": null, "types_of_magnetic_species": null, "bulk_modulus": null, "shear_modulus": null, "universal_anisotropy": null, "homogeneous_poisson": null, "e_total": null, "e_ionic": null, "e_electronic": null, "n": null, "e_ij_max": null, "weighted_surface_energy_EV_PER_ANG2": null, "weighted_surface_energy": null, "weighted_work_function": null, "surface_anisotropy": null, "shape_factor": null, "has_reconstructed": null, "possible_species": null, "has_props": null, "theoretical": null, "database_IDs": null, "fields_not_requested": ["builder_meta", "nsites", "elements", "nelements", "composition", "composition_reduced", "chemsys", "symmetry", "property_name", "deprecated", "deprecation_reasons", "last_updated", "origins", "warnings", "task_ids", "uncorrected_energy_per_atom", "equilibrium_reaction_energy_per_atom", "decomposes_to", "xas", "grain_boundaries", "cbm", "vbm", "is_gap_direct", "is_metal", "es_source_calc_id", "bandstructure", "dos", "dos_energy_up", "dos_energy_down", "is_magnetic", "ordering", "total_magnetization_normalized_vol", "total_magnetization_normalized_formula_units", "num_magnetic_sites", "num_unique_magnetic_sites", "types_of_magnetic_species", "bulk_modulus", "shear_modulus", "universal_anisotropy", "homogeneous_poisson", "e_total", "e_ionic", "e_electronic", "n", "e_ij_max", "weighted_surface_energy_EV_PER_ANG2", "weighted_surface_energy", "weighted_work_function", "surface_anisotropy", "shape_factor", "has_reconstructed", "possible_species", "has_props", "theoretical", "database_IDs"]}