{"builder_meta": null, "nsites": null, "elements": null, "nelements": null, "composition": null, "composition_reduced": null, "formula_pretty": "TiAs2", "formula_anonymous": "AB2", "chemsys": null, "volume": 413.44126933790596, "density": 6.352641312098427, "density_atomic": 17.226719555746083, "symmetry": null, "property_name": null, "material_id": "mp-604647", "deprecated": null, "deprecation_reasons": null, "last_updated": null, "origins": null, "warnings": null, "structure": {"@module": "pymatgen.core.structure", "@class": "Structure", "charge": 0, "lattice": {"matrix": [[3.49239261, 0.0, 0.0], [0.0, 8.94079592, -0.0], [0.0, 0.0, 13.24081089]], "pbc": [true, true, true], "a": 3.49239261, "b": 8.94079592, "c": 13.24081089, "alpha": 90.0, "beta": 90.0, "gamma": 90.0, "volume": 413.44126933790596}, "properties": {}, "sites": [{"species": [{"element": "Ti", "occu": 1}], "abc": [0.0, 0.67267172, 0.99269104], "properties": {"magmom": -0.0}, "label": "Ti", "xyz": [0.0, 6.014220569675381, 13.144034332837427]}, {"species": [{"element": "Ti", "occu": 1}], "abc": [0.0, 0.5179947500000001, 0.24737406], "properties": {"magmom": -0.0}, "label": "Ti", "xyz": [0.0, 4.631285347381421, 3.2754331475515137]}, {"species": [{"element": "Ti", "occu": 1}], "abc": [0.0, 0.48200525, 0.75262594], "properties": {"magmom": -0.0}, "label": "Ti", "xyz": [0.0, 4.30951057261858, 9.965377742448487]}, {"species": [{"element": "Ti", "occu": 1}], "abc": [0.5, 0.82732828, 0.49269104], "properties": {"magmom": -0.0}, "label": "Ti", "xyz": [1.746196305, 7.396973310324618, 6.523628887837426]}, {"species": [{"element": "Ti", "occu": 1}], "abc": [0.5, 0.98200525, 0.7473740600000001], "properties": {"magmom": -0.0}, "label": "Ti", "xyz": [1.746196305, 8.77990853261858, 9.895838592551515]}, {"species": [{"element": "Ti", "occu": 1}], "abc": [0.5, 0.17267172, 0.50730896], "properties": {"magmom": -0.0}, "label": "Ti", "xyz": [1.746196305, 1.5438226096753822, 6.717182002162575]}, {"species": [{"element": "Ti", "occu": 1}], "abc": [0.5, 0.01799475, 0.25262594], "properties": {"magmom": -0.0}, "label": "Ti", "xyz": [1.746196305, 0.16088738738142, 3.3449722974484866]}, {"species": [{"element": "Ti", "occu": 1}], "abc": [0.0, 0.32732828, 0.00730896], "properties": {"magmom": -0.0}, "label": "Ti", "xyz": [0.0, 2.9265753503246175, 0.0967765571625744]}, {"species": [{"element": "As", "occu": 1}], "abc": [0.5, 0.48802107, 0.90027535], "properties": {"magmom": 0.0}, "label": "As", "xyz": [1.746196305, 4.3632967915300345, 11.920375658278562]}, {"species": [{"element": "As", "occu": 1}], "abc": [0.5, 0.72453327, 0.30245466], "properties": {"magmom": 0.0}, "label": "As", "xyz": [1.746196305, 6.477904104320258, 4.004744955859247]}, {"species": [{"element": "As", "occu": 1}], "abc": [0.0, 0.01197893, 0.40027535000000003], "properties": {"magmom": 0.0}, "label": "As", "xyz": [0.0, 0.10710116846996559, 5.299970213278562]}, {"species": [{"element": "As", "occu": 1}], "abc": [-0.0, 0.77546673, 0.80245466], "properties": {"magmom": 0.0}, "label": "As", "xyz": [0.0, 6.933289775679741, 10.625150400859248]}, {"species": [{"element": "As", "occu": 1}], "abc": [0.5, 0.11374546, 0.05793723], "properties": {"magmom": 0.0}, "label": "As", "xyz": [1.746196305, 1.0169749446865233, 0.7671359059204347]}, {"species": [{"element": "As", "occu": 1}], "abc": [0.5, 0.33262145, 0.33591623], "properties": {"magmom": 0.0}, "label": "As", "xyz": [1.746196305, 2.973900503064484, 4.4478032763117445]}, {"species": [{"element": "As", "occu": 1}], "abc": [0.5, 0.66737855, 0.66408377], "properties": {"magmom": 0.0}, "label": "As", "xyz": [1.746196305, 5.9668954169355155, 8.793007613688255]}, {"species": [{"element": "As", "occu": 1}], "abc": [0.0, 0.16737855000000001, 0.83591623], "properties": {"magmom": 0.0}, "label": "As", "xyz": [0.0, 1.496497456935516, 11.068208721311745]}, {"species": [{"element": "As", "occu": 1}], "abc": [0.0, 0.61374546, 0.44206277], "properties": {"magmom": 0.0}, "label": "As", "xyz": [0.0, 5.487372904686523, 5.853269539079565]}, {"species": [{"element": "As", "occu": 1}], "abc": [0.0, 0.38625454000000004, 0.5579372300000001], "properties": {"magmom": 0.0}, "label": "As", "xyz": [0.0, 3.453423015313477, 7.3875413509204355]}, {"species": [{"element": "As", "occu": 1}], "abc": [-0.0, 0.22453327, 0.19754534], "properties": {"magmom": 0.0}, "label": "As", "xyz": [0.0, 2.007506144320258, 2.615660489140753]}, {"species": [{"element": "As", "occu": 1}], "abc": [0.0, 0.9880210700000001, 0.59972465], "properties": {"magmom": 0.0}, "label": "As", "xyz": [0.0, 8.833694751530034, 7.940840676721439]}, {"species": [{"element": "As", "occu": 1}], "abc": [0.5, 0.27546673, 0.69754534], "properties": {"magmom": 0.0}, "label": "As", "xyz": [1.746196305, 2.4628918156797415, 9.236065934140754]}, {"species": [{"element": "As", "occu": 1}], "abc": [0.5, 0.51197893, 0.09972465], "properties": {"magmom": 0.0}, "label": "As", "xyz": [1.746196305, 4.577499128469966, 1.3204352317214385]}, {"species": [{"element": "As", "occu": 1}], "abc": [0.0, 0.83262145, 0.16408377], "properties": {"magmom": 0.0}, "label": "As", "xyz": [0.0, 7.4442984630644835, 2.1726021686882553]}, {"species": [{"element": "As", "occu": 1}], "abc": [0.5, 0.88625454, 0.94206277], "properties": {"magmom": 0.0}, "label": "As", "xyz": [1.746196305, 7.923820975313476, 12.473674984079567]}]}, "task_ids": null, "uncorrected_energy_per_atom": null, "energy_per_atom": -14.808948167916666, "formation_energy_per_atom": -0.6913418384722211, "energy_above_hull": 0.011234058750000001, "is_stable": false, "equilibrium_reaction_energy_per_atom": null, "decomposes_to": null, "xas": null, "grain_boundaries": null, "band_gap": 0.0, "cbm": null, "vbm": null, "efermi": 6.91448414, "is_gap_direct": null, "is_metal": null, "es_source_calc_id": null, "bandstructure": null, "dos": null, "dos_energy_up": null, "dos_energy_down": null, "is_magnetic": null, "ordering": null, "total_magnetization": 0.0, "total_magnetization_normalized_vol": null, "total_magnetization_normalized_formula_units": null, "num_magnetic_sites": null, "num_unique_magnetic_sites": null, "types_of_magnetic_species": null, "bulk_modulus": null, "shear_modulus": null, "universal_anisotropy": null, "homogeneous_poisson": null, "e_total": null, "e_ionic": null, "e_electronic": null, "n": null, "e_ij_max": null, "weighted_surface_energy_EV_PER_ANG2": null, "weighted_surface_energy": null, "weighted_work_function": null, "surface_anisotropy": null, "shape_factor": null, "has_reconstructed": null, "possible_species": null, "has_props": null, "theoretical": null, "database_IDs": null, "fields_not_requested": ["builder_meta", "nsites", "elements", "nelements", "composition", "composition_reduced", "chemsys", "symmetry", "property_name", "deprecated", "deprecation_reasons", "last_updated", "origins", "warnings", "task_ids", "uncorrected_energy_per_atom", "equilibrium_reaction_energy_per_atom", "decomposes_to", "xas", "grain_boundaries", "cbm", "vbm", "is_gap_direct", "is_metal", "es_source_calc_id", "bandstructure", "dos", "dos_energy_up", "dos_energy_down", "is_magnetic", "ordering", "total_magnetization_normalized_vol", "total_magnetization_normalized_formula_units", "num_magnetic_sites", "num_unique_magnetic_sites", "types_of_magnetic_species", "bulk_modulus", "shear_modulus", "universal_anisotropy", "homogeneous_poisson", "e_total", "e_ionic", "e_electronic", "n", "e_ij_max", "weighted_surface_energy_EV_PER_ANG2", "weighted_surface_energy", "weighted_work_function", "surface_anisotropy", "shape_factor", "has_reconstructed", "possible_species", "has_props", "theoretical", "database_IDs"]}