{"builder_meta": null, "nsites": null, "elements": null, "nelements": null, "composition": null, "composition_reduced": null, "formula_pretty": "TiAs3", "formula_anonymous": "AB3", "chemsys": null, "volume": 147.49317381059737, "density": 6.138802806953365, "density_atomic": 18.43664672632467, "symmetry": null, "property_name": null, "material_id": "mp-1187559", "deprecated": null, "deprecation_reasons": null, "last_updated": null, "origins": null, "warnings": null, "structure": {"@module": "pymatgen.core.structure", "@class": "Structure", "charge": 0, "lattice": {"matrix": [[2.940175, -5.092533, 0.0], [2.940175, 5.092533, 0.0], [0.0, 0.0, 4.925325]], "pbc": [true, true, true], "a": 5.880350447610584, "b": 5.880350447610584, "c": 4.925325, "alpha": 90.0, "beta": 90.0, "gamma": 120.00000503603958, "volume": 147.49317381059737}, "properties": {}, "sites": [{"species": [{"element": "Ti", "occu": 1}], "abc": [0.333333, 0.666667, 0.75], "properties": {"magmom": -0.001}, "label": "Ti", "xyz": [2.940175, 1.6975143950220002, 3.6939937499999997]}, {"species": [{"element": "Ti", "occu": 1}], "abc": [0.666667, 0.333333, 0.25], "properties": {"magmom": -0.001}, "label": "Ti", "xyz": [2.940175, -1.6975143950220002, 1.23133125]}, {"species": [{"element": "As", "occu": 1}], "abc": [0.184075, 0.368149, 0.25], "properties": {"magmom": 0.0}, "label": "As", "xyz": [1.6236351992, 0.9374029194420003, 1.23133125]}, {"species": [{"element": "As", "occu": 1}], "abc": [0.631850999999999, 0.815925, 0.25], "properties": {"magmom": -0.0}, "label": "As", "xyz": [4.2567148007999975, 0.9374029194420048, 1.23133125]}, {"species": [{"element": "As", "occu": 1}], "abc": [0.184075, 0.815925, 0.25], "properties": {"magmom": 0.0}, "label": "As", "xyz": [2.940175, 3.21771697605, 1.23133125]}, {"species": [{"element": "As", "occu": 1}], "abc": [0.815925, 0.631850999999999, 0.75], "properties": {"magmom": 0.0}, "label": "As", "xyz": [4.2567148007999975, -0.9374029194420048, 3.6939937499999997]}, {"species": [{"element": "As", "occu": 1}], "abc": [0.368149, 0.184075, 0.75], "properties": {"magmom": -0.0}, "label": "As", "xyz": [1.6236351992, -0.9374029194420003, 3.6939937499999997]}, {"species": [{"element": "As", "occu": 1}], "abc": [0.815925, 0.184075, 0.75], "properties": {"magmom": 0.0}, "label": "As", "xyz": [2.940175, -3.21771697605, 3.6939937499999997]}]}, "task_ids": null, "uncorrected_energy_per_atom": null, "energy_per_atom": -14.357182465624998, "formation_energy_per_atom": -0.09209497166666401, "energy_above_hull": 0.43483695125000205, "is_stable": false, "equilibrium_reaction_energy_per_atom": null, "decomposes_to": null, "xas": null, "grain_boundaries": null, "band_gap": 0.0, "cbm": null, "vbm": null, "efermi": 6.75837439, "is_gap_direct": null, "is_metal": null, "es_source_calc_id": null, "bandstructure": null, "dos": null, "dos_energy_up": null, "dos_energy_down": null, "is_magnetic": null, "ordering": null, "total_magnetization": 0.0043452, "total_magnetization_normalized_vol": null, "total_magnetization_normalized_formula_units": null, "num_magnetic_sites": null, "num_unique_magnetic_sites": null, "types_of_magnetic_species": null, "bulk_modulus": null, "shear_modulus": null, "universal_anisotropy": null, "homogeneous_poisson": null, "e_total": null, "e_ionic": null, "e_electronic": null, "n": null, "e_ij_max": null, "weighted_surface_energy_EV_PER_ANG2": null, "weighted_surface_energy": null, "weighted_work_function": null, "surface_anisotropy": null, "shape_factor": null, "has_reconstructed": null, "possible_species": null, "has_props": null, "theoretical": null, "database_IDs": null, "fields_not_requested": ["builder_meta", "nsites", "elements", "nelements", "composition", "composition_reduced", "chemsys", "symmetry", "property_name", "deprecated", "deprecation_reasons", "last_updated", "origins", "warnings", "task_ids", "uncorrected_energy_per_atom", "equilibrium_reaction_energy_per_atom", "decomposes_to", "xas", "grain_boundaries", "cbm", "vbm", "is_gap_direct", "is_metal", "es_source_calc_id", "bandstructure", "dos", "dos_energy_up", "dos_energy_down", "is_magnetic", "ordering", "total_magnetization_normalized_vol", "total_magnetization_normalized_formula_units", "num_magnetic_sites", "num_unique_magnetic_sites", "types_of_magnetic_species", "bulk_modulus", "shear_modulus", "universal_anisotropy", "homogeneous_poisson", "e_total", "e_ionic", "e_electronic", "n", "e_ij_max", "weighted_surface_energy_EV_PER_ANG2", "weighted_surface_energy", "weighted_work_function", "surface_anisotropy", "shape_factor", "has_reconstructed", "possible_species", "has_props", "theoretical", "database_IDs"]}