{
  "builder_meta": null,
  "nsites": null,
  "elements": null,
  "nelements": null,
  "composition": null,
  "composition_reduced": null,
  "formula_pretty": "TiAu4",
  "formula_anonymous": "AB4",
  "chemsys": null,
  "volume": 85.01659117570142,
  "density": 16.323493271890175,
  "density_atomic": 17.003318235140284,
  "symmetry": null,
  "property_name": null,
  "material_id": "mp-12635",
  "deprecated": null,
  "deprecation_reasons": null,
  "last_updated": null,
  "origins": null,
  "warnings": null,
  "structure": {
    "@module": "pymatgen.core.structure",
    "@class": "Structure",
    "charge": 0,
    "lattice": {
      "matrix": [
        [3.63438431, -0.0, 1.58171983],
        [1.81722852, 4.63130861, 0.79077428],
        [-0.03095875, 9.323000000000001e-5, 5.03743048]
      ],
      "pbc": [true, true, true],
      "a": 3.963658276565906,
      "b": 5.037525473570435,
      "c": 5.037525612215428,
      "alpha": 81.09632131759227,
      "beta": 66.83297111155204,
      "gamma": 66.83296265465819,
      "volume": 85.01659117570142
    },
    "properties": {},
    "sites": [
      {
        "species": [{ "element": "Ti", "occu": 1 }],
        "abc": [-0.0, 0.0, -0.0],
        "properties": { "magmom": 0.176 },
        "label": "Ti",
        "xyz": [0.0, 0.0, 0.0]
      },
      {
        "species": [{ "element": "Au", "occu": 1 }],
        "abc": [0.60486904, 0.60227154, 0.18799437],
        "properties": { "magmom": -0.001 },
        "label": "Au",
        "xyz": [3.2869714971508457, 2.789322895475075, 2.3800027680354523]
      },
      {
        "species": [{ "element": "Au", "occu": 1 }],
        "abc": [0.39513096000000003, 0.39772846, 0.81200563],
        "properties": { "magmom": -0.001 },
        "label": "Au",
        "xyz": [2.1336825828491546, 1.8420789445249253, 5.029921821964548]
      },
      {
        "species": [{ "element": "Au", "occu": 1 }],
        "abc": [0.7928604100000001, 0.81200563, 0.60227154],
        "properties": { "magmom": -0.001 },
        "label": "Au",
        "xyz": [4.338513649321761, 3.7607048153631486, 4.930097213170667]
      },
      {
        "species": [{ "element": "Au", "occu": 1 }],
        "abc": [0.20713959, 0.18799437, 0.39772846],
        "properties": { "magmom": -0.001 },
        "label": "Au",
        "xyz": [1.0821404306782403, 0.8706970246368514, 2.479827376829334]
      }
    ]
  },
  "task_ids": null,
  "uncorrected_energy_per_atom": null,
  "energy_per_atom": -43.366729394000004,
  "formation_energy_per_atom": -0.311209871333329,
  "energy_above_hull": 0.0,
  "is_stable": true,
  "equilibrium_reaction_energy_per_atom": null,
  "decomposes_to": null,
  "xas": null,
  "grain_boundaries": null,
  "band_gap": 0.0,
  "cbm": null,
  "vbm": null,
  "efermi": 6.14237248,
  "is_gap_direct": null,
  "is_metal": null,
  "es_source_calc_id": null,
  "bandstructure": null,
  "dos": null,
  "dos_energy_up": null,
  "dos_energy_down": null,
  "is_magnetic": null,
  "ordering": null,
  "total_magnetization": 0.1848854,
  "total_magnetization_normalized_vol": null,
  "total_magnetization_normalized_formula_units": null,
  "num_magnetic_sites": null,
  "num_unique_magnetic_sites": null,
  "types_of_magnetic_species": null,
  "bulk_modulus": null,
  "shear_modulus": null,
  "universal_anisotropy": null,
  "homogeneous_poisson": null,
  "e_total": null,
  "e_ionic": null,
  "e_electronic": null,
  "n": null,
  "e_ij_max": null,
  "weighted_surface_energy_EV_PER_ANG2": null,
  "weighted_surface_energy": null,
  "weighted_work_function": null,
  "surface_anisotropy": null,
  "shape_factor": null,
  "has_reconstructed": null,
  "possible_species": null,
  "has_props": null,
  "theoretical": null,
  "database_IDs": null,
  "fields_not_requested": [
    "builder_meta",
    "nsites",
    "elements",
    "nelements",
    "composition",
    "composition_reduced",
    "chemsys",
    "symmetry",
    "property_name",
    "deprecated",
    "deprecation_reasons",
    "last_updated",
    "origins",
    "warnings",
    "task_ids",
    "uncorrected_energy_per_atom",
    "equilibrium_reaction_energy_per_atom",
    "decomposes_to",
    "xas",
    "grain_boundaries",
    "cbm",
    "vbm",
    "is_gap_direct",
    "is_metal",
    "es_source_calc_id",
    "bandstructure",
    "dos",
    "dos_energy_up",
    "dos_energy_down",
    "is_magnetic",
    "ordering",
    "total_magnetization_normalized_vol",
    "total_magnetization_normalized_formula_units",
    "num_magnetic_sites",
    "num_unique_magnetic_sites",
    "types_of_magnetic_species",
    "bulk_modulus",
    "shear_modulus",
    "universal_anisotropy",
    "homogeneous_poisson",
    "e_total",
    "e_ionic",
    "e_electronic",
    "n",
    "e_ij_max",
    "weighted_surface_energy_EV_PER_ANG2",
    "weighted_surface_energy",
    "weighted_work_function",
    "surface_anisotropy",
    "shape_factor",
    "has_reconstructed",
    "possible_species",
    "has_props",
    "theoretical",
    "database_IDs"
  ]
}
