{"builder_meta": null, "nsites": null, "elements": null, "nelements": null, "composition": null, "composition_reduced": null, "formula_pretty": "TiAu", "formula_anonymous": "AB", "chemsys": null, "volume": 67.36054947246946, "density": 12.071032950993597, "density_atomic": 16.840137368117365, "symmetry": null, "property_name": null, "material_id": "mp-998972", "deprecated": null, "deprecation_reasons": null, "last_updated": null, "origins": null, "warnings": null, "structure": {"@module": "pymatgen.core.structure", "@class": "Structure", "charge": 0, "lattice": {"matrix": [[3.32226218, 0.0, 0.0], [0.0, 3.32226218, 0.0], [-0.0, -0.0, 6.10292196]], "pbc": [true, true, true], "a": 3.32226218, "b": 3.32226218, "c": 6.10292196, "alpha": 90.0, "beta": 90.0, "gamma": 90.0, "volume": 67.36054947246946}, "properties": {}, "sites": [{"species": [{"element": "Ti", "occu": 1}], "abc": [0.75, 0.75, 0.86449885], "properties": {"magmom": -0.0}, "label": "Ti", "xyz": [2.4916966350000003, 2.4916966350000003, 5.275969016059746]}, {"species": [{"element": "Ti", "occu": 1}], "abc": [0.25, 0.25, 0.13550115000000001], "properties": {"magmom": -0.0}, "label": "Ti", "xyz": [0.830565545, 0.830565545, 0.8269529439402541]}, {"species": [{"element": "Au", "occu": 1}], "abc": [0.75, 0.75, 0.36034485], "properties": {"magmom": -0.0}, "label": "Au", "xyz": [2.4916966350000003, 2.4916966350000003, 2.199156498237906]}, {"species": [{"element": "Au", "occu": 1}], "abc": [0.25, 0.25, 0.6396551500000001], "properties": {"magmom": -0.0}, "label": "Au", "xyz": [0.830565545, 0.830565545, 3.9037654617620943]}]}, "task_ids": null, "uncorrected_energy_per_atom": null, "energy_per_atom": -32.2372663225, "formation_energy_per_atom": -0.47590774083333104, "energy_above_hull": 0.0, "is_stable": true, "equilibrium_reaction_energy_per_atom": null, "decomposes_to": null, "xas": null, "grain_boundaries": null, "band_gap": 0.0, "cbm": null, "vbm": null, "efermi": 6.09796466, "is_gap_direct": null, "is_metal": null, "es_source_calc_id": null, "bandstructure": null, "dos": null, "dos_energy_up": null, "dos_energy_down": null, "is_magnetic": null, "ordering": null, "total_magnetization": 1e-07, "total_magnetization_normalized_vol": null, "total_magnetization_normalized_formula_units": null, "num_magnetic_sites": null, "num_unique_magnetic_sites": null, "types_of_magnetic_species": null, "bulk_modulus": null, "shear_modulus": null, "universal_anisotropy": null, "homogeneous_poisson": null, "e_total": null, "e_ionic": null, "e_electronic": null, "n": null, "e_ij_max": null, "weighted_surface_energy_EV_PER_ANG2": null, "weighted_surface_energy": null, "weighted_work_function": null, "surface_anisotropy": null, "shape_factor": null, "has_reconstructed": null, "possible_species": null, "has_props": null, "theoretical": null, "database_IDs": null, "fields_not_requested": ["builder_meta", "nsites", "elements", "nelements", "composition", "composition_reduced", "chemsys", "symmetry", "property_name", "deprecated", "deprecation_reasons", "last_updated", "origins", "warnings", "task_ids", "uncorrected_energy_per_atom", "equilibrium_reaction_energy_per_atom", "decomposes_to", "xas", "grain_boundaries", "cbm", "vbm", "is_gap_direct", "is_metal", "es_source_calc_id", "bandstructure", "dos", "dos_energy_up", "dos_energy_down", "is_magnetic", "ordering", "total_magnetization_normalized_vol", "total_magnetization_normalized_formula_units", "num_magnetic_sites", "num_unique_magnetic_sites", "types_of_magnetic_species", "bulk_modulus", "shear_modulus", "universal_anisotropy", "homogeneous_poisson", "e_total", "e_ionic", "e_electronic", "n", "e_ij_max", "weighted_surface_energy_EV_PER_ANG2", "weighted_surface_energy", "weighted_work_function", "surface_anisotropy", "shape_factor", "has_reconstructed", "possible_species", "has_props", "theoretical", "database_IDs"]}