{
  "builder_meta": null,
  "nsites": null,
  "elements": null,
  "nelements": null,
  "composition": null,
  "composition_reduced": null,
  "formula_pretty": "TiBe2",
  "formula_anonymous": "AB2",
  "chemsys": null,
  "volume": 66.70157199316887,
  "density": 3.280737793848888,
  "density_atomic": 11.116928665528144,
  "symmetry": null,
  "property_name": null,
  "material_id": "mp-2749",
  "deprecated": null,
  "deprecation_reasons": null,
  "last_updated": null,
  "origins": null,
  "warnings": null,
  "structure": {
    "@module": "pymatgen.core.structure",
    "@class": "Structure",
    "charge": 0,
    "lattice": {
      "matrix": [
        [3.94229715, -6.595e-5, 2.27593603],
        [1.3140315, 3.71686467, 2.27594934],
        [-7.13e-5, -3.429e-5, 4.55199874]
      ],
      "pbc": [true, true, true],
      "a": 4.552097498505462,
      "b": 4.552110187191529,
      "c": 4.551998740687555,
      "alpha": 60.00224305154388,
      "beta": 60.00253567356545,
      "gamma": 60.002720466191015,
      "volume": 66.70157199316887
    },
    "properties": {},
    "sites": [
      {
        "species": [{ "element": "Ti", "occu": 1 }],
        "abc": [0.87500425, 0.8750018700000001, 0.87499045],
        "properties": { "magmom": 0.979 },
        "label": "Ti",
        "xyz": [4.5992443939327075, 3.252175826834115, 7.965869053415426]
      },
      {
        "species": [{ "element": "Ti", "occu": 1 }],
        "abc": [0.12499507, 0.12499708, 0.12501118],
        "properties": { "magmom": 0.979 },
        "label": "Ti",
        "xyz": [0.6570088954559364, 0.4645847004469349, 1.1380185389592126]
      },
      {
        "species": [{ "element": "Be", "occu": 1 }],
        "abc": [0.49999852, 0.49999851, 0.49999826],
        "properties": { "magmom": -0.001 },
        "label": "Be",
        "xyz": [2.628120882617345, 1.8583766770289123, 4.551927374972351]
      },
      {
        "species": [{ "element": "Be", "occu": 1 }],
        "abc": [0.49999853, 0.499998499999999, 4.929999999999998e-6],
        "properties": { "magmom": -0.001 },
        "label": "Be",
        "xyz": [2.628156558424429, 1.8583937846308882, 2.275958366803812]
      },
      {
        "species": [{ "element": "Be", "occu": 1 }],
        "abc": [4.96e-6, 0.49999814000000004, 0.49999856000000004],
        "properties": { "magmom": -0.001 },
        "label": "Be",
        "xyz": [0.6569972097979461, 1.8584082763539798, 3.413974540498751]
      },
      {
        "species": [{ "element": "Be", "occu": 1 }],
        "abc": [0.49999866, 4.9000000000000005e-6, 0.49999862],
        "properties": { "magmom": -0.001 },
        "label": "Be",
        "xyz": [1.9711140811745627, -3.19072274238e-5, 3.4139692056392246]
      }
    ]
  },
  "task_ids": null,
  "uncorrected_energy_per_atom": null,
  "energy_per_atom": -5.318555258333333,
  "formation_energy_per_atom": -0.19378267611111102,
  "energy_above_hull": 0.0,
  "is_stable": true,
  "equilibrium_reaction_energy_per_atom": null,
  "decomposes_to": null,
  "xas": null,
  "grain_boundaries": null,
  "band_gap": 0.0,
  "cbm": null,
  "vbm": null,
  "efermi": 4.72771321,
  "is_gap_direct": null,
  "is_metal": null,
  "es_source_calc_id": null,
  "bandstructure": null,
  "dos": null,
  "dos_energy_up": null,
  "dos_energy_down": null,
  "is_magnetic": null,
  "ordering": null,
  "total_magnetization": 2.4710068,
  "total_magnetization_normalized_vol": null,
  "total_magnetization_normalized_formula_units": null,
  "num_magnetic_sites": null,
  "num_unique_magnetic_sites": null,
  "types_of_magnetic_species": null,
  "bulk_modulus": null,
  "shear_modulus": null,
  "universal_anisotropy": null,
  "homogeneous_poisson": null,
  "e_total": null,
  "e_ionic": null,
  "e_electronic": null,
  "n": null,
  "e_ij_max": null,
  "weighted_surface_energy_EV_PER_ANG2": null,
  "weighted_surface_energy": null,
  "weighted_work_function": null,
  "surface_anisotropy": null,
  "shape_factor": null,
  "has_reconstructed": null,
  "possible_species": null,
  "has_props": null,
  "theoretical": null,
  "database_IDs": null,
  "fields_not_requested": [
    "builder_meta",
    "nsites",
    "elements",
    "nelements",
    "composition",
    "composition_reduced",
    "chemsys",
    "symmetry",
    "property_name",
    "deprecated",
    "deprecation_reasons",
    "last_updated",
    "origins",
    "warnings",
    "task_ids",
    "uncorrected_energy_per_atom",
    "equilibrium_reaction_energy_per_atom",
    "decomposes_to",
    "xas",
    "grain_boundaries",
    "cbm",
    "vbm",
    "is_gap_direct",
    "is_metal",
    "es_source_calc_id",
    "bandstructure",
    "dos",
    "dos_energy_up",
    "dos_energy_down",
    "is_magnetic",
    "ordering",
    "total_magnetization_normalized_vol",
    "total_magnetization_normalized_formula_units",
    "num_magnetic_sites",
    "num_unique_magnetic_sites",
    "types_of_magnetic_species",
    "bulk_modulus",
    "shear_modulus",
    "universal_anisotropy",
    "homogeneous_poisson",
    "e_total",
    "e_ionic",
    "e_electronic",
    "n",
    "e_ij_max",
    "weighted_surface_energy_EV_PER_ANG2",
    "weighted_surface_energy",
    "weighted_work_function",
    "surface_anisotropy",
    "shape_factor",
    "has_reconstructed",
    "possible_species",
    "has_props",
    "theoretical",
    "database_IDs"
  ]
}
