{"builder_meta": null, "nsites": null, "elements": null, "nelements": null, "composition": null, "composition_reduced": null, "formula_pretty": "TiBe3", "formula_anonymous": "AB3", "chemsys": null, "volume": 123.06100885631598, "density": 3.032161011415756, "density_atomic": 10.255084071359665, "symmetry": null, "property_name": null, "material_id": "mp-1103465", "deprecated": null, "deprecation_reasons": null, "last_updated": null, "origins": null, "warnings": null, "structure": {"@module": "pymatgen.core.structure", "@class": "Structure", "charge": 0, "lattice": {"matrix": [[-2.24334509, -3.885588519999999, 0.0], [2.24334509, -3.885588519999999, 0.0], [0.0, -2.59039234, 7.05890899]], "pbc": [true, true, true], "a": 4.486690911973199, "b": 4.486690911973199, "c": 7.519197337763752, "alpha": 72.64152731596434, "beta": 72.64152731596434, "gamma": 59.9999892065318, "volume": 123.06100885631594}, "properties": {}, "sites": [{"species": [{"element": "Ti", "occu": 1}], "abc": [0.14227604, 0.14227604, 0.57317187], "properties": {"magmom": 0.887}, "label": "Ti", "xyz": [0.0, -2.590392316941597, 4.045968065958111]}, {"species": [{"element": "Ti", "occu": 1}], "abc": [0.8577239600000001, 0.8577239600000001, 0.42682813000000003], "properties": {"magmom": 0.887}, "label": "Ti", "xyz": [0.0, -7.771177063058402, 3.0129409240418887]}, {"species": [{"element": "Ti", "occu": 1}], "abc": [0.0, -0.0, -0.0], "properties": {"magmom": 0.47500000000000003}, "label": "Ti", "xyz": [0.0, 0.0, 0.0]}, {"species": [{"element": "Be", "occu": 1}], "abc": [0.07929407000000001, 0.58208472, 0.7565365], "properties": {"magmom": -0.001}, "label": "Be", "xyz": [1.1279329359754084, -4.529572188325901, 5.340322301113135]}, {"species": [{"element": "Be", "occu": 1}], "abc": [0.58208472, 0.58208472, 0.7565365], "properties": {"magmom": -0.001}, "label": "Be", "xyz": [0.0, -6.483209765929238, 5.340322301113135]}, {"species": [{"element": "Be", "occu": 1}], "abc": [0.58208472, 0.07929407000000001, 0.7565365], "properties": {"magmom": -0.001}, "label": "Be", "xyz": [-1.1279329359754084, -4.529572188325901, 5.340322301113135]}, {"species": [{"element": "Be", "occu": 1}], "abc": [0.92070593, 0.41791528, 0.2434635], "properties": {"magmom": -0.001}, "label": "Be", "xyz": [-1.1279329359754087, -5.831997191674097, 1.718586688886865]}, {"species": [{"element": "Be", "occu": 1}], "abc": [0.41791528, 0.41791528, 0.2434635], "properties": {"magmom": -0.001}, "label": "Be", "xyz": [0.0, -3.87835961407076, 1.718586688886865]}, {"species": [{"element": "Be", "occu": 1}], "abc": [0.41791528, 0.92070593, 0.2434635], "properties": {"magmom": -0.001}, "label": "Be", "xyz": [1.1279329359754087, -5.831997191674097, 1.718586688886865]}, {"species": [{"element": "Be", "occu": 1}], "abc": [0.33376545, 0.33376545, 0.99870565], "properties": {"magmom": 0.012}, "label": "Be", "xyz": [0.0, -5.180789867459989, 7.049772291148793]}, {"species": [{"element": "Be", "occu": 1}], "abc": [0.66623455, 0.66623455, 0.00129435], "properties": {"magmom": 0.012}, "label": "Be", "xyz": [0.0, -5.18077951254001, 0.0091366988512065]}, {"species": [{"element": "Be", "occu": 1}], "abc": [0.5, 0.5, 0.5], "properties": {"magmom": -0.031}, "label": "Be", "xyz": [0.0, -5.180784689999999, 3.529454495]}]}, "task_ids": null, "uncorrected_energy_per_atom": null, "energy_per_atom": -4.983233549166667, "formation_energy_per_atom": -0.204800896249999, "energy_above_hull": 0.0, "is_stable": true, "equilibrium_reaction_energy_per_atom": null, "decomposes_to": null, "xas": null, "grain_boundaries": null, "band_gap": 0.0, "cbm": null, "vbm": null, "efermi": 4.40059426, "is_gap_direct": null, "is_metal": null, "es_source_calc_id": null, "bandstructure": null, "dos": null, "dos_energy_up": null, "dos_energy_down": null, "is_magnetic": null, "ordering": null, "total_magnetization": 2.8280557, "total_magnetization_normalized_vol": null, "total_magnetization_normalized_formula_units": null, "num_magnetic_sites": null, "num_unique_magnetic_sites": null, "types_of_magnetic_species": null, "bulk_modulus": null, "shear_modulus": null, "universal_anisotropy": null, "homogeneous_poisson": null, "e_total": null, "e_ionic": null, "e_electronic": null, "n": null, "e_ij_max": null, "weighted_surface_energy_EV_PER_ANG2": null, "weighted_surface_energy": null, "weighted_work_function": null, "surface_anisotropy": null, "shape_factor": null, "has_reconstructed": null, "possible_species": null, "has_props": null, "theoretical": null, "database_IDs": null, "fields_not_requested": ["builder_meta", "nsites", "elements", "nelements", "composition", "composition_reduced", "chemsys", "symmetry", "property_name", "deprecated", "deprecation_reasons", "last_updated", "origins", "warnings", "task_ids", "uncorrected_energy_per_atom", "equilibrium_reaction_energy_per_atom", "decomposes_to", "xas", "grain_boundaries", "cbm", "vbm", "is_gap_direct", "is_metal", "es_source_calc_id", "bandstructure", "dos", "dos_energy_up", "dos_energy_down", "is_magnetic", "ordering", "total_magnetization_normalized_vol", "total_magnetization_normalized_formula_units", "num_magnetic_sites", "num_unique_magnetic_sites", "types_of_magnetic_species", "bulk_modulus", "shear_modulus", "universal_anisotropy", "homogeneous_poisson", "e_total", "e_ionic", "e_electronic", "n", "e_ij_max", "weighted_surface_energy_EV_PER_ANG2", "weighted_surface_energy", "weighted_work_function", "surface_anisotropy", "shape_factor", "has_reconstructed", "possible_species", "has_props", "theoretical", "database_IDs"]}