{"builder_meta": null, "nsites": null, "elements": null, "nelements": null, "composition": null, "composition_reduced": null, "formula_pretty": "TiBr3", "formula_anonymous": "AB3", "chemsys": null, "volume": 241.63311591943446, "density": 3.95257216641598, "density_atomic": 30.204139489929307, "symmetry": null, "property_name": null, "material_id": "mp-28214", "deprecated": null, "deprecation_reasons": null, "last_updated": null, "origins": null, "warnings": null, "structure": {"@module": "pymatgen.core.structure", "@class": "Structure", "charge": 0, "lattice": {"matrix": [[5.84638787, 0.00398919, 2.8462878700000003], [2.192656099999999, 5.54652118, 2.9120706800000002], [-0.08406927, 0.0073738, 7.41513013]], "pbc": [true, true, true], "a": 6.502431981884095, "b": 6.637152523362068, "c": 7.415610349790406, "alpha": 64.16313215608487, "beta": 64.69061626104302, "gamma": 60.68592120932835, "volume": 241.63311591943446}, "properties": {}, "sites": [{"species": [{"element": "Ti", "occu": 1}], "abc": [0.33779162, 0.82488639, 0.9994358400000001], "properties": {"magmom": 0.9520000000000001}, "label": "Ti", "xyz": [3.699531163115491, 4.58396698817832, 10.774526471429555]}, {"species": [{"element": "Ti", "occu": 1}], "abc": [0.66257292, 0.17478862, 0.00050385], "properties": {"magmom": 0.9510000000000001}, "label": "Ti", "xyz": [4.256867258030373, 0.9721156274088365, 2.398606194002143]}, {"species": [{"element": "Br", "occu": 1}], "abc": [0.27952912, 0.42303028000000004, 0.23166014000000001], "properties": {"magmom": -0.012}, "label": "Br", "xyz": [2.542320081548584, 2.3491697181118756, 3.745304502741983]}, {"species": [{"element": "Br", "occu": 1}], "abc": [0.72083638, 0.57686886, 0.76809897], "properties": {"magmom": -0.012}, "label": "Br", "xyz": [5.414590573370105, 3.208154711536173, 9.427144553328702]}, {"species": [{"element": "Br", "occu": 1}], "abc": [0.56222269, 0.7789904400000001, 0.23129324], "properties": {"magmom": -0.023}, "label": "Br", "xyz": [4.975585401319719, 4.324635297703352, 5.583792315899391]}, {"species": [{"element": "Br", "occu": 1}], "abc": [0.43744511, 0.22119523, 0.76890024], "properties": {"magmom": -0.023}, "label": "Br", "xyz": [2.977837973365594, 1.2342787963580442, 7.590726190810903]}, {"species": [{"element": "Br", "occu": 1}], "abc": [0.08018333, 0.93274283, 0.7692358300000001], "properties": {"magmom": -0.022}, "label": "Br", "xyz": [2.4492980091330248, 5.179469919789596, 8.648421666886989]}, {"species": [{"element": "Br", "occu": 1}], "abc": [0.91941984, 0.06750135, 0.23087289], "properties": {"magmom": -0.023}, "label": "Br", "xyz": [5.503882931523986, 0.3797678184014046, 4.525454763063935]}]}, "task_ids": null, "uncorrected_energy_per_atom": null, "energy_per_atom": -4.826468975000001, "formation_energy_per_atom": -1.624886069583334, "energy_above_hull": 0.0, "is_stable": true, "equilibrium_reaction_energy_per_atom": null, "decomposes_to": null, "xas": null, "grain_boundaries": null, "band_gap": 0.0, "cbm": null, "vbm": null, "efermi": 1.73894904, "is_gap_direct": null, "is_metal": null, "es_source_calc_id": null, "bandstructure": null, "dos": null, "dos_energy_up": null, "dos_energy_down": null, "is_magnetic": null, "ordering": null, "total_magnetization": 2.0000001, "total_magnetization_normalized_vol": null, "total_magnetization_normalized_formula_units": null, "num_magnetic_sites": null, "num_unique_magnetic_sites": null, "types_of_magnetic_species": null, "bulk_modulus": null, "shear_modulus": null, "universal_anisotropy": null, "homogeneous_poisson": null, "e_total": null, "e_ionic": null, "e_electronic": null, "n": null, "e_ij_max": null, "weighted_surface_energy_EV_PER_ANG2": null, "weighted_surface_energy": null, "weighted_work_function": null, "surface_anisotropy": null, "shape_factor": null, "has_reconstructed": null, "possible_species": null, "has_props": null, "theoretical": null, "database_IDs": null, "fields_not_requested": ["builder_meta", "nsites", "elements", "nelements", "composition", "composition_reduced", "chemsys", "symmetry", "property_name", "deprecated", "deprecation_reasons", "last_updated", "origins", "warnings", "task_ids", "uncorrected_energy_per_atom", "equilibrium_reaction_energy_per_atom", "decomposes_to", "xas", "grain_boundaries", "cbm", "vbm", "is_gap_direct", "is_metal", "es_source_calc_id", "bandstructure", "dos", "dos_energy_up", "dos_energy_down", "is_magnetic", "ordering", "total_magnetization_normalized_vol", "total_magnetization_normalized_formula_units", "num_magnetic_sites", "num_unique_magnetic_sites", "types_of_magnetic_species", "bulk_modulus", "shear_modulus", "universal_anisotropy", "homogeneous_poisson", "e_total", "e_ionic", "e_electronic", "n", "e_ij_max", "weighted_surface_energy_EV_PER_ANG2", "weighted_surface_energy", "weighted_work_function", "surface_anisotropy", "shape_factor", "has_reconstructed", "possible_species", "has_props", "theoretical", "database_IDs"]}