{"builder_meta": null, "nsites": null, "elements": null, "nelements": null, "composition": null, "composition_reduced": null, "formula_pretty": "TiBr4", "formula_anonymous": "AB4", "chemsys": null, "volume": 1498.950674987776, "density": 3.256784298476501, "density_atomic": 37.4737668746944, "symmetry": null, "property_name": null, "material_id": "mp-569814", "deprecated": null, "deprecation_reasons": null, "last_updated": null, "origins": null, "warnings": null, "structure": {"@module": "pymatgen.core.structure", "@class": "Structure", "charge": 0, "lattice": {"matrix": [[11.44447252, 0.0, 0.0], [-0.0, 11.44447252, 0.0], [-0.0, -0.0, 11.44447252]], "pbc": [true, true, true], "a": 11.44447252, "b": 11.44447252, "c": 11.44447252, "alpha": 90.0, "beta": 90.0, "gamma": 90.0, "volume": 1498.950674987776}, "properties": {}, "sites": [{"species": [{"element": "Ti", "occu": 1}], "abc": [0.13065265, 0.13065265, 0.13065265], "properties": {"magmom": 0.0}, "label": "Ti", "xyz": [1.495250662590178, 1.495250662590178, 1.495250662590178]}, {"species": [{"element": "Ti", "occu": 1}], "abc": [0.36934735, 0.63065265, 0.13065265], "properties": {"magmom": 0.0}, "label": "Ti", "xyz": [4.226985597409822, 7.2174869225901785, 1.495250662590178]}, {"species": [{"element": "Ti", "occu": 1}], "abc": [0.63065265, 0.36934735, 0.86934735], "properties": {"magmom": 0.0}, "label": "Ti", "xyz": [7.2174869225901785, 4.226985597409822, 9.949221857409821]}, {"species": [{"element": "Ti", "occu": 1}], "abc": [0.13065265, 0.36934735, 0.63065265], "properties": {"magmom": 0.0}, "label": "Ti", "xyz": [1.495250662590178, 4.226985597409822, 7.2174869225901785]}, {"species": [{"element": "Ti", "occu": 1}], "abc": [0.86934735, 0.86934735, 0.86934735], "properties": {"magmom": 0.0}, "label": "Ti", "xyz": [9.949221857409821, 9.949221857409821, 9.949221857409821]}, {"species": [{"element": "Ti", "occu": 1}], "abc": [0.36934735, 0.86934735, 0.63065265], "properties": {"magmom": 0.0}, "label": "Ti", "xyz": [4.226985597409822, 9.949221857409821, 7.2174869225901785]}, {"species": [{"element": "Ti", "occu": 1}], "abc": [0.86934735, 0.63065265, 0.36934735], "properties": {"magmom": 0.0}, "label": "Ti", "xyz": [9.949221857409821, 7.2174869225901785, 4.226985597409822]}, {"species": [{"element": "Ti", "occu": 1}], "abc": [0.63065265, 0.13065265, 0.36934735], "properties": {"magmom": 0.0}, "label": "Ti", "xyz": [7.2174869225901785, 1.495250662590178, 4.226985597409822]}, {"species": [{"element": "Br", "occu": 1}], "abc": [0.7521559, 0.7521559, 0.7521559], "properties": {"magmom": -0.0}, "label": "Br", "xyz": [8.608027528305868, 8.608027528305868, 8.608027528305868]}, {"species": [{"element": "Br", "occu": 1}], "abc": [0.01102143, 0.24792242, 0.01561614], "properties": {"magmom": 0.0}, "label": "Br", "xyz": [0.1261344527661036, 2.8373413227818984, 0.1787184850984728]}, {"species": [{"element": "Br", "occu": 1}], "abc": [0.247844099999999, 0.247844099999999, 0.247844099999999], "properties": {"magmom": -0.0}, "label": "Br", "xyz": [2.836444991694121, 2.836444991694121, 2.836444991694121]}, {"species": [{"element": "Br", "occu": 1}], "abc": [0.25207758, 0.98438386, 0.51102143], "properties": {"magmom": 0.0}, "label": "Br", "xyz": [2.884894937218102, 11.265754034901526, 5.848370712766103]}, {"species": [{"element": "Br", "occu": 1}], "abc": [0.24792242, 0.48438386, 0.51102143], "properties": {"magmom": 0.0}, "label": "Br", "xyz": [2.8373413227818984, 5.543517774901527, 5.848370712766103]}, {"species": [{"element": "Br", "occu": 1}], "abc": [0.24792242, 0.01561614, 0.01102143], "properties": {"magmom": 0.0}, "label": "Br", "xyz": [2.8373413227818984, 0.1787184850984728, 0.1261344527661036]}, {"species": [{"element": "Br", "occu": 1}], "abc": [0.74792242, 0.01561614, 0.48897857], "properties": {"magmom": 0.0}, "label": "Br", "xyz": [8.559577582781898, 0.1787184850984728, 5.596101807233897]}, {"species": [{"element": "Br", "occu": 1}], "abc": [0.48897857, 0.74792242, 0.01561614], "properties": {"magmom": 0.0}, "label": "Br", "xyz": [5.596101807233897, 8.559577582781898, 0.1787184850984728]}, {"species": [{"element": "Br", "occu": 1}], "abc": [0.48897857, 0.75207758, 0.51561614], "properties": {"magmom": 0.0}, "label": "Br", "xyz": [5.596101807233897, 8.607131197218102, 5.900954745098472]}, {"species": [{"element": "Br", "occu": 1}], "abc": [0.75207758, 0.51561614, 0.48897857], "properties": {"magmom": 0.0}, "label": "Br", "xyz": [8.607131197218102, 5.900954745098472, 5.596101807233897]}, {"species": [{"element": "Br", "occu": 1}], "abc": [0.247844099999999, 0.2521559, 0.7478441], "properties": {"magmom": -0.0}, "label": "Br", "xyz": [2.836444991694121, 2.885791268305868, 8.558681251694132]}, {"species": [{"element": "Br", "occu": 1}], "abc": [0.98897857, 0.74792242, 0.48438386], "properties": {"magmom": 0.0}, "label": "Br", "xyz": [11.318338067233896, 8.559577582781898, 5.543517774901527]}, {"species": [{"element": "Br", "occu": 1}], "abc": [0.51102143, 0.24792242, 0.48438386], "properties": {"magmom": 0.0}, "label": "Br", "xyz": [5.848370712766103, 2.8373413227818984, 5.543517774901527]}, {"species": [{"element": "Br", "occu": 1}], "abc": [0.25207758, 0.51561614, 0.01102143], "properties": {"magmom": 0.0}, "label": "Br", "xyz": [2.884894937218102, 5.900954745098472, 0.1261344527661036]}, {"species": [{"element": "Br", "occu": 1}], "abc": [0.01561614, 0.01102143, 0.24792242], "properties": {"magmom": 0.0}, "label": "Br", "xyz": [0.1787184850984728, 0.1261344527661036, 2.8373413227818984]}, {"species": [{"element": "Br", "occu": 1}], "abc": [0.75207758, 0.98438386, 0.98897857], "properties": {"magmom": 0.0}, "label": "Br", "xyz": [8.607131197218102, 11.265754034901526, 11.318338067233896]}, {"species": [{"element": "Br", "occu": 1}], "abc": [0.98438386, 0.98897857, 0.75207758], "properties": {"magmom": 0.0}, "label": "Br", "xyz": [11.265754034901526, 11.318338067233896, 8.607131197218102]}, {"species": [{"element": "Br", "occu": 1}], "abc": [0.51561614, 0.48897857, 0.75207758], "properties": {"magmom": 0.0}, "label": "Br", "xyz": [5.900954745098472, 5.596101807233897, 8.607131197218102]}, {"species": [{"element": "Br", "occu": 1}], "abc": [0.2521559, 0.7521559, 0.7478441], "properties": {"magmom": -0.0}, "label": "Br", "xyz": [2.885791268305868, 8.608027528305868, 8.558681251694132]}, {"species": [{"element": "Br", "occu": 1}], "abc": [0.7478441, 0.2521559, 0.7521559], "properties": {"magmom": -0.0}, "label": "Br", "xyz": [8.558681251694132, 2.885791268305868, 8.608027528305868]}, {"species": [{"element": "Br", "occu": 1}], "abc": [0.98897857, 0.75207758, 0.98438386], "properties": {"magmom": 0.0}, "label": "Br", "xyz": [11.318338067233896, 8.607131197218102, 11.265754034901526]}, {"species": [{"element": "Br", "occu": 1}], "abc": [0.51102143, 0.25207758, 0.98438386], "properties": {"magmom": 0.0}, "label": "Br", "xyz": [5.848370712766103, 2.884894937218102, 11.265754034901526]}, {"species": [{"element": "Br", "occu": 1}], "abc": [0.48438386, 0.51102143, 0.24792242], "properties": {"magmom": 0.0}, "label": "Br", "xyz": [5.543517774901527, 5.848370712766103, 2.8373413227818984]}, {"species": [{"element": "Br", "occu": 1}], "abc": [0.7478441, 0.247844099999999, 0.2521559], "properties": {"magmom": -0.0}, "label": "Br", "xyz": [8.558681251694132, 2.836444991694121, 2.885791268305868]}, {"species": [{"element": "Br", "occu": 1}], "abc": [0.74792242, 0.48438386, 0.98897857], "properties": {"magmom": 0.0}, "label": "Br", "xyz": [8.559577582781898, 5.543517774901527, 11.318338067233896]}, {"species": [{"element": "Br", "occu": 1}], "abc": [0.48438386, 0.98897857, 0.74792242], "properties": {"magmom": 0.0}, "label": "Br", "xyz": [5.543517774901527, 11.318338067233896, 8.559577582781898]}, {"species": [{"element": "Br", "occu": 1}], "abc": [0.51561614, 0.01102143, 0.25207758], "properties": {"magmom": 0.0}, "label": "Br", "xyz": [5.900954745098472, 0.1261344527661036, 2.884894937218102]}, {"species": [{"element": "Br", "occu": 1}], "abc": [0.01102143, 0.25207758, 0.51561614], "properties": {"magmom": 0.0}, "label": "Br", "xyz": [0.1261344527661036, 2.884894937218102, 5.900954745098472]}, {"species": [{"element": "Br", "occu": 1}], "abc": [0.2521559, 0.7478441, 0.247844099999999], "properties": {"magmom": -0.0}, "label": "Br", "xyz": [2.885791268305868, 8.558681251694132, 2.836444991694121]}, {"species": [{"element": "Br", "occu": 1}], "abc": [0.7521559, 0.7478441, 0.2521559], "properties": {"magmom": -0.0}, "label": "Br", "xyz": [8.608027528305868, 8.558681251694132, 2.885791268305868]}, {"species": [{"element": "Br", "occu": 1}], "abc": [0.01561614, 0.48897857, 0.74792242], "properties": {"magmom": 0.0}, "label": "Br", "xyz": [0.1787184850984728, 5.596101807233897, 8.559577582781898]}, {"species": [{"element": "Br", "occu": 1}], "abc": [0.98438386, 0.51102143, 0.25207758], "properties": {"magmom": 0.0}, "label": "Br", "xyz": [11.265754034901526, 5.848370712766103, 2.884894937218102]}]}, "task_ids": null, "uncorrected_energy_per_atom": null, "energy_per_atom": -4.547424562250001, "formation_energy_per_atom": -1.658768930916667, "energy_above_hull": 0.0, "is_stable": true, "equilibrium_reaction_energy_per_atom": null, "decomposes_to": null, "xas": null, "grain_boundaries": null, "band_gap": 2.4977, "cbm": null, "vbm": null, "efermi": -2.7744137700000002, "is_gap_direct": null, "is_metal": null, "es_source_calc_id": null, "bandstructure": null, "dos": null, "dos_energy_up": null, "dos_energy_down": null, "is_magnetic": null, "ordering": null, "total_magnetization": 0.0, "total_magnetization_normalized_vol": null, "total_magnetization_normalized_formula_units": null, "num_magnetic_sites": null, "num_unique_magnetic_sites": null, "types_of_magnetic_species": null, "bulk_modulus": null, "shear_modulus": null, "universal_anisotropy": null, "homogeneous_poisson": null, "e_total": null, "e_ionic": null, "e_electronic": null, "n": null, "e_ij_max": null, "weighted_surface_energy_EV_PER_ANG2": null, "weighted_surface_energy": null, "weighted_work_function": null, "surface_anisotropy": null, "shape_factor": null, "has_reconstructed": null, "possible_species": null, "has_props": null, "theoretical": null, "database_IDs": null, "fields_not_requested": ["builder_meta", "nsites", "elements", "nelements", "composition", "composition_reduced", "chemsys", "symmetry", "property_name", "deprecated", "deprecation_reasons", "last_updated", "origins", "warnings", "task_ids", "uncorrected_energy_per_atom", "equilibrium_reaction_energy_per_atom", "decomposes_to", "xas", "grain_boundaries", "cbm", "vbm", "is_gap_direct", "is_metal", "es_source_calc_id", "bandstructure", "dos", "dos_energy_up", "dos_energy_down", "is_magnetic", "ordering", "total_magnetization_normalized_vol", "total_magnetization_normalized_formula_units", "num_magnetic_sites", "num_unique_magnetic_sites", "types_of_magnetic_species", "bulk_modulus", "shear_modulus", "universal_anisotropy", "homogeneous_poisson", "e_total", "e_ionic", "e_electronic", "n", "e_ij_max", "weighted_surface_energy_EV_PER_ANG2", "weighted_surface_energy", "weighted_work_function", "surface_anisotropy", "shape_factor", "has_reconstructed", "possible_species", "has_props", "theoretical", "database_IDs"]}