{"builder_meta": null, "nsites": null, "elements": null, "nelements": null, "composition": null, "composition_reduced": null, "formula_pretty": "TiCd3", "formula_anonymous": "AB3", "chemsys": null, "volume": 161.0121044950526, "density": 7.943174167595693, "density_atomic": 20.126513061881575, "symmetry": null, "property_name": null, "material_id": "mp-1187478", "deprecated": null, "deprecation_reasons": null, "last_updated": null, "origins": null, "warnings": null, "structure": {"@module": "pymatgen.core.structure", "@class": "Structure", "charge": 0, "lattice": {"matrix": [[3.101575, -5.372086, 0.0], [3.101575, 5.372086, 0.0], [0.0, 0.0, 4.831737]], "pbc": [true, true, true], "a": 6.203150447314736, "b": 6.203150447314736, "c": 4.831737, "alpha": 90.0, "beta": 90.0, "gamma": 120.0000047708184, "volume": 161.0121044950526}, "properties": {}, "sites": [{"species": [{"element": "Ti", "occu": 1}], "abc": [0.333333, 0.666667, 0.75], "properties": {"magmom": 0.021}, "label": "Ti", "xyz": [3.1015749999999995, 1.7906989147240002, 3.6238027500000003]}, {"species": [{"element": "Ti", "occu": 1}], "abc": [0.666667, 0.333333, 0.25], "properties": {"magmom": 0.02}, "label": "Ti", "xyz": [3.1015749999999995, -1.7906989147240002, 1.20793425]}, {"species": [{"element": "Cd", "occu": 1}], "abc": [0.169984, 0.339968, 0.25], "properties": {"magmom": -0.0}, "label": "Cd", "xyz": [1.5816543743999998, 0.9131686666240001, 1.20793425]}, {"species": [{"element": "Cd", "occu": 1}], "abc": [0.660032, 0.830016, 0.25], "properties": {"magmom": 0.0}, "label": "Cd", "xyz": [4.6214956256, 0.9131686666240002, 1.20793425]}, {"species": [{"element": "Cd", "occu": 1}], "abc": [0.169984, 0.830016, 0.25], "properties": {"magmom": -0.0}, "label": "Cd", "xyz": [3.101575, 3.545748666752, 1.20793425]}, {"species": [{"element": "Cd", "occu": 1}], "abc": [0.830016, 0.660032, 0.75], "properties": {"magmom": -0.0}, "label": "Cd", "xyz": [4.6214956256, -0.9131686666240002, 3.6238027500000003]}, {"species": [{"element": "Cd", "occu": 1}], "abc": [0.339968, 0.169984, 0.75], "properties": {"magmom": 0.0}, "label": "Cd", "xyz": [1.5816543743999998, -0.9131686666240001, 3.6238027500000003]}, {"species": [{"element": "Cd", "occu": 1}], "abc": [0.830016, 0.169984, 0.75], "properties": {"magmom": -0.0}, "label": "Cd", "xyz": [3.101575, -3.545748666752, 3.6238027500000003]}]}, "task_ids": null, "uncorrected_energy_per_atom": null, "energy_per_atom": -18.2765131275, "formation_energy_per_atom": 0.036666893333336004, "energy_above_hull": 0.07280399875, "is_stable": false, "equilibrium_reaction_energy_per_atom": null, "decomposes_to": null, "xas": null, "grain_boundaries": null, "band_gap": 0.0, "cbm": null, "vbm": null, "efermi": 3.57694349, "is_gap_direct": null, "is_metal": null, "es_source_calc_id": null, "bandstructure": null, "dos": null, "dos_energy_up": null, "dos_energy_down": null, "is_magnetic": null, "ordering": null, "total_magnetization": 0.0557051, "total_magnetization_normalized_vol": null, "total_magnetization_normalized_formula_units": null, "num_magnetic_sites": null, "num_unique_magnetic_sites": null, "types_of_magnetic_species": null, "bulk_modulus": null, "shear_modulus": null, "universal_anisotropy": null, "homogeneous_poisson": null, "e_total": null, "e_ionic": null, "e_electronic": null, "n": null, "e_ij_max": null, "weighted_surface_energy_EV_PER_ANG2": null, "weighted_surface_energy": null, "weighted_work_function": null, "surface_anisotropy": null, "shape_factor": null, "has_reconstructed": null, "possible_species": null, "has_props": null, "theoretical": null, "database_IDs": null, "fields_not_requested": ["builder_meta", "nsites", "elements", "nelements", "composition", "composition_reduced", "chemsys", "symmetry", "property_name", "deprecated", "deprecation_reasons", "last_updated", "origins", "warnings", "task_ids", "uncorrected_energy_per_atom", "equilibrium_reaction_energy_per_atom", "decomposes_to", "xas", "grain_boundaries", "cbm", "vbm", "is_gap_direct", "is_metal", "es_source_calc_id", "bandstructure", "dos", "dos_energy_up", "dos_energy_down", "is_magnetic", "ordering", "total_magnetization_normalized_vol", "total_magnetization_normalized_formula_units", "num_magnetic_sites", "num_unique_magnetic_sites", "types_of_magnetic_species", "bulk_modulus", "shear_modulus", "universal_anisotropy", "homogeneous_poisson", "e_total", "e_ionic", "e_electronic", "n", "e_ij_max", "weighted_surface_energy_EV_PER_ANG2", "weighted_surface_energy", "weighted_work_function", "surface_anisotropy", "shape_factor", "has_reconstructed", "possible_species", "has_props", "theoretical", "database_IDs"]}