{"builder_meta": null, "nsites": null, "elements": null, "nelements": null, "composition": null, "composition_reduced": null, "formula_pretty": "TiCl3", "formula_anonymous": "AB3", "chemsys": null, "volume": 390.94633641069476, "density": 2.620291065384653, "density_atomic": 24.434146025668422, "symmetry": null, "property_name": null, "material_id": "mp-2017901", "deprecated": null, "deprecation_reasons": null, "last_updated": null, "origins": null, "warnings": null, "structure": {"@module": "pymatgen.core.structure", "@class": "Structure", "charge": 0, "lattice": {"matrix": [[6.0747148, 0.00064955, 0.00423533], [-3.03678464, 5.25385652, -0.00149035], [0.01593311, 0.00149142, 12.24860433]], "pbc": [true, true, true], "a": 6.074716311176552, "b": 6.068366460887935, "c": 12.248614783771371, "alpha": 90.0453287670006, "beta": 89.88552138322926, "gamma": 120.02224236574544, "volume": 390.9463364106948}, "properties": {}, "sites": [{"species": [{"element": "Ti", "occu": 1}], "abc": [0.98468478, 0.99312067, 0.74990647], "properties": {"magmom": 0.894}, "label": "Ti", "xyz": [2.9777339523544573, 5.219471534732604, 9.187998003135759]}, {"species": [{"element": "Ti", "occu": 1}], "abc": [0.68194378, 0.34187211, 0.74990565], "properties": {"magmom": 0.894}, "label": "Ti", "xyz": [3.116370329852625, 1.7977083949964794, 9.187676339532072]}, {"species": [{"element": "Ti", "occu": 1}], "abc": [0.99145306, 0.00693835, 0.249952999999999], "properties": {"magmom": 0.893}, "label": "Ti", "xyz": [6.005706831024173, 0.037469878623925, 3.065764188415165]}, {"species": [{"element": "Ti", "occu": 1}], "abc": [0.34002226, 0.65809456, 0.24990709], "properties": {"magmom": 0.895}, "label": "Ti", "xyz": [0.07102860083063946, 3.458127972723682, 3.0614723799226495]}, {"species": [{"element": "Cl", "occu": 1}], "abc": [0.66543556, 0.68070783, 0.13300056], "properties": {"magmom": -0.003}, "label": "Cl", "xyz": [1.9772872748590986, 3.576971864223745, 1.630875081384319]}, {"species": [{"element": "Cl", "occu": 1}], "abc": [0.01509405, 0.33223417, 0.13261491], "properties": {"magmom": -0.003}, "label": "Cl", "xyz": [-0.9151186074635388, 1.745718249090538, 1.6239163439360873]}, {"species": [{"element": "Cl", "occu": 1}], "abc": [0.31968689, 0.33702479, 0.36654375], "properties": {"magmom": -0.015}, "label": "Cl", "xyz": [0.9243751583663087, 1.7714342136421555, 4.490501057964485]}, {"species": [{"element": "Cl", "occu": 1}], "abc": [0.33333381, 0.01445479, 0.64223587], "properties": {"magmom": -0.021}, "label": "Cl", "xyz": [1.9912445594636181, 0.0771177530842517, 7.867883294152548]}, {"species": [{"element": "Cl", "occu": 1}], "abc": [0.31870165, 0.98561021, 0.14222909], "properties": {"magmom": -0.021}, "label": "Cl", "xyz": [-1.0547981649795846, 5.178673763953235, 1.7419887501087807]}, {"species": [{"element": "Cl", "occu": 1}], "abc": [0.33328789000000003, 0.32022155, 0.8596224100000001], "properties": {"magmom": 0.006}, "label": "Cl", "xyz": [1.0658814520237754, 1.6838966235156778, 10.530109115303148]}, {"species": [{"element": "Cl", "occu": 1}], "abc": [0.68278869, 0.01250524, 0.86616453], "properties": {"magmom": -0.015}, "label": "Cl", "xyz": [4.123571534398685, 0.06743605720508691, 10.612179810888398]}, {"species": [{"element": "Cl", "occu": 1}], "abc": [0.9826234500000001, 0.66269774, 0.86656683], "properties": {"magmom": -0.015}, "label": "Cl", "xyz": [3.9704940013720873, 3.4836495202518116, 10.617408309172053]}, {"species": [{"element": "Cl", "occu": 1}], "abc": [0.984741699999999, 0.31941779, 0.63294551], "properties": {"magmom": -0.003}, "label": "Cl", "xyz": [5.022106731187244, 1.6797588651592499, 7.756393776200992]}, {"species": [{"element": "Cl", "occu": 1}], "abc": [0.67013742, 0.98736923, 0.366163199999999], "properties": {"magmom": -0.015}, "label": "Cl", "xyz": [1.0783001101787404, 5.1884776575637845, 4.486354884393762]}, {"species": [{"element": "Cl", "occu": 1}], "abc": [0.68297763, 0.66795567, 0.63261294], "properties": {"magmom": -0.003}, "label": "Cl", "xyz": [2.130536289733458, 3.5107303716110096, 7.7505227440109135]}, {"species": [{"element": "Cl", "occu": 1}], "abc": [0.013087370000000001, 0.679777299999999, 0.35962719], "properties": {"magmom": 0.006}, "label": "Cl", "xyz": [-1.9791052434513319, 3.5719972558378843, 4.403973479851459]}]}, "task_ids": null, "uncorrected_energy_per_atom": null, "energy_per_atom": -9.655950175000001, "formation_energy_per_atom": -1.807181748541666, "energy_above_hull": 0.0, "is_stable": true, "equilibrium_reaction_energy_per_atom": null, "decomposes_to": null, "xas": null, "grain_boundaries": null, "band_gap": 0.352199999999999, "cbm": null, "vbm": null, "efermi": 2.39731455, "is_gap_direct": null, "is_metal": null, "es_source_calc_id": null, "bandstructure": null, "dos": null, "dos_energy_up": null, "dos_energy_down": null, "is_magnetic": null, "ordering": null, "total_magnetization": 4.0000003, "total_magnetization_normalized_vol": null, "total_magnetization_normalized_formula_units": null, "num_magnetic_sites": null, "num_unique_magnetic_sites": null, "types_of_magnetic_species": null, "bulk_modulus": null, "shear_modulus": null, "universal_anisotropy": null, "homogeneous_poisson": null, "e_total": null, "e_ionic": null, "e_electronic": null, "n": null, "e_ij_max": null, "weighted_surface_energy_EV_PER_ANG2": null, "weighted_surface_energy": null, "weighted_work_function": null, "surface_anisotropy": null, "shape_factor": null, "has_reconstructed": null, "possible_species": null, "has_props": null, "theoretical": null, "database_IDs": null, "fields_not_requested": ["builder_meta", "nsites", "elements", "nelements", "composition", "composition_reduced", "chemsys", "symmetry", "property_name", "deprecated", "deprecation_reasons", "last_updated", "origins", "warnings", "task_ids", "uncorrected_energy_per_atom", "equilibrium_reaction_energy_per_atom", "decomposes_to", "xas", "grain_boundaries", "cbm", "vbm", "is_gap_direct", "is_metal", "es_source_calc_id", "bandstructure", "dos", "dos_energy_up", "dos_energy_down", "is_magnetic", "ordering", "total_magnetization_normalized_vol", "total_magnetization_normalized_formula_units", "num_magnetic_sites", "num_unique_magnetic_sites", "types_of_magnetic_species", "bulk_modulus", "shear_modulus", "universal_anisotropy", "homogeneous_poisson", "e_total", "e_ionic", "e_electronic", "n", "e_ij_max", "weighted_surface_energy_EV_PER_ANG2", "weighted_surface_energy", "weighted_work_function", "surface_anisotropy", "shape_factor", "has_reconstructed", "possible_species", "has_props", "theoretical", "database_IDs"]}