{"builder_meta": null, "nsites": null, "elements": null, "nelements": null, "composition": null, "composition_reduced": null, "formula_pretty": "TiCl4", "formula_anonymous": "AB4", "chemsys": null, "volume": 629.7601213658072, "density": 2.000567383851006, "density_atomic": 31.48800606829036, "symmetry": null, "property_name": null, "material_id": "mp-30092", "deprecated": null, "deprecation_reasons": null, "last_updated": null, "origins": null, "warnings": null, "structure": {"@module": "pymatgen.core.structure", "@class": "Structure", "charge": 0, "lattice": {"matrix": [[6.60596276, 0.0, 0.0], [0.0, 9.65943799, -2.07140387], [0.0, 0.00515363, 9.8682136]], "pbc": [true, true, true], "a": 6.60596276, "b": 9.879041262962021, "c": 9.868214945729909, "alpha": 102.07347891282714, "beta": 90.0, "gamma": 90.0, "volume": 629.7601213658072}, "properties": {}, "sites": [{"species": [{"element": "Ti", "occu": 1}], "abc": [0.57622765, 0.74846203, 0.36840553], "properties": {"magmom": 0.0}, "label": "Ti", "xyz": [3.806538397182314, 7.231621192446094, 2.085137315971152]}, {"species": [{"element": "Ti", "occu": 1}], "abc": [0.07622765000000001, 0.25153797, 0.13159447], "properties": {"magmom": 0.0}, "label": "Ti", "xyz": [0.503557017182314, 2.4303936125539063, 0.7775656140288479]}, {"species": [{"element": "Ti", "occu": 1}], "abc": [0.42377235, 0.25153797, 0.63159447], "properties": {"magmom": 0.0}, "label": "Ti", "xyz": [2.799424362817686, 2.4329704275539066, 5.711672414028849]}, {"species": [{"element": "Ti", "occu": 1}], "abc": [0.92377235, 0.74846203, 0.86840553], "properties": {"magmom": 0.0}, "label": "Ti", "xyz": [6.102405742817686, 7.2341980074460945, 7.019244115971152]}, {"species": [{"element": "Cl", "occu": 1}], "abc": [0.5748209, 0.57133343, 0.19497846], "properties": {"magmom": 0.0}, "label": "Cl", "xyz": [3.797245459069684, 5.519764685539816, 0.7406268127166817]}, {"species": [{"element": "Cl", "occu": 1}], "abc": [0.0748209, 0.42866657, 0.30502154], "properties": {"magmom": 0.0}, "label": "Cl", "xyz": [0.49426407906968395, 4.1422501194601855, 2.122076117283318]}, {"species": [{"element": "Cl", "occu": 1}], "abc": [0.4251791, 0.42866657, 0.80502154], "properties": {"magmom": 0.0}, "label": "Cl", "xyz": [2.808717300930316, 4.144826934460185, 7.056182917283319]}, {"species": [{"element": "Cl", "occu": 1}], "abc": [0.925179099999999, 0.57133343, 0.69497846], "properties": {"magmom": 0.0}, "label": "Cl", "xyz": [6.111698680930309, 5.522341500539817, 5.674733612716682]}, {"species": [{"element": "Cl", "occu": 1}], "abc": [0.61294465, 0.8078426, 0.92498812], "properties": {"magmom": 0.0}, "label": "Cl", "xyz": [4.049089531841234, 7.80807254690525, 7.454612057631571]}, {"species": [{"element": "Cl", "occu": 1}], "abc": [0.11294465000000001, 0.192157399999999, 0.57501188], "properties": {"magmom": 0.0}, "label": "Cl", "xyz": [0.746108151841234, 1.859095888094741, 5.276304472368433]}, {"species": [{"element": "Cl", "occu": 1}], "abc": [0.38705535, 0.192157399999999, 0.07501188], "properties": {"magmom": 0.0}, "label": "Cl", "xyz": [2.556873228158766, 1.856519073094741, 0.34219767236843207]}, {"species": [{"element": "Cl", "occu": 1}], "abc": [0.88705535, 0.8078426, 0.42498812], "properties": {"magmom": 0.0}, "label": "Cl", "xyz": [5.8598546081587655, 7.80549573190525, 2.5205052576315703]}, {"species": [{"element": "Cl", "occu": 1}], "abc": [0.07964523, 0.92028579, 0.8068065400000001], "properties": {"magmom": -0.0}, "label": "Cl", "xyz": [0.5261334233916347, 8.893601503971903, 6.055455723684938]}, {"species": [{"element": "Cl", "occu": 1}], "abc": [0.57964523, 0.07971421000000001, 0.69319346], "properties": {"magmom": -0.0}, "label": "Cl", "xyz": [3.8291148033916347, 0.7735669310280978, 6.675460806315064]}, {"species": [{"element": "Cl", "occu": 1}], "abc": [0.92035477, 0.07971421000000001, 0.19319346], "properties": {"magmom": -0.0}, "label": "Cl", "xyz": [6.079829336608364, 0.7709901160280979, 1.7413540063150634]}, {"species": [{"element": "Cl", "occu": 1}], "abc": [0.42035477, 0.92028579, 0.30680654], "properties": {"magmom": -0.0}, "label": "Cl", "xyz": [2.776847956608365, 8.891024688971903, 1.1213489236849368]}, {"species": [{"element": "Cl", "occu": 1}], "abc": [0.07816209, 0.6934114, 0.04401029], "properties": {"magmom": -0.0}, "label": "Cl", "xyz": [0.5163358557837684, 6.69819123260994, -1.002032115144174]}, {"species": [{"element": "Cl", "occu": 1}], "abc": [0.57816209, 0.3065886, 0.45598971], "properties": {"magmom": -0.0}, "label": "Cl", "xyz": [3.819317235783768, 2.9638235723900617, 3.864735045144174]}, {"species": [{"element": "Cl", "occu": 1}], "abc": [0.92183791, 0.3065886, 0.95598971], "properties": {"magmom": -0.0}, "label": "Cl", "xyz": [6.089626904216232, 2.9664003873900615, 8.798841845144175]}, {"species": [{"element": "Cl", "occu": 1}], "abc": [0.42183791, 0.6934114, 0.54401029], "properties": {"magmom": -0.0}, "label": "Cl", "xyz": [2.7866455242162314, 6.700768047609939, 3.9320746848558263]}]}, "task_ids": null, "uncorrected_energy_per_atom": null, "energy_per_atom": -9.234863454000001, "formation_energy_per_atom": -1.725360933333334, "energy_above_hull": 0.0, "is_stable": true, "equilibrium_reaction_energy_per_atom": null, "decomposes_to": null, "xas": null, "grain_boundaries": null, "band_gap": 3.4576000000000002, "cbm": null, "vbm": null, "efermi": -3.32972109, "is_gap_direct": null, "is_metal": null, "es_source_calc_id": null, "bandstructure": null, "dos": null, "dos_energy_up": null, "dos_energy_down": null, "is_magnetic": null, "ordering": null, "total_magnetization": 0.0, "total_magnetization_normalized_vol": null, "total_magnetization_normalized_formula_units": null, "num_magnetic_sites": null, "num_unique_magnetic_sites": null, "types_of_magnetic_species": null, "bulk_modulus": null, "shear_modulus": null, "universal_anisotropy": null, "homogeneous_poisson": null, "e_total": null, "e_ionic": null, "e_electronic": null, "n": null, "e_ij_max": null, "weighted_surface_energy_EV_PER_ANG2": null, "weighted_surface_energy": null, "weighted_work_function": null, "surface_anisotropy": null, "shape_factor": null, "has_reconstructed": null, "possible_species": null, "has_props": null, "theoretical": null, "database_IDs": null, "fields_not_requested": ["builder_meta", "nsites", "elements", "nelements", "composition", "composition_reduced", "chemsys", "symmetry", "property_name", "deprecated", "deprecation_reasons", "last_updated", "origins", "warnings", "task_ids", "uncorrected_energy_per_atom", "equilibrium_reaction_energy_per_atom", "decomposes_to", "xas", "grain_boundaries", "cbm", "vbm", "is_gap_direct", "is_metal", "es_source_calc_id", "bandstructure", "dos", "dos_energy_up", "dos_energy_down", "is_magnetic", "ordering", "total_magnetization_normalized_vol", "total_magnetization_normalized_formula_units", "num_magnetic_sites", "num_unique_magnetic_sites", "types_of_magnetic_species", "bulk_modulus", "shear_modulus", "universal_anisotropy", "homogeneous_poisson", "e_total", "e_ionic", "e_electronic", "n", "e_ij_max", "weighted_surface_energy_EV_PER_ANG2", "weighted_surface_energy", "weighted_work_function", "surface_anisotropy", "shape_factor", "has_reconstructed", "possible_species", "has_props", "theoretical", "database_IDs"]}