{"builder_meta": null, "nsites": null, "elements": null, "nelements": null, "composition": null, "composition_reduced": null, "formula_pretty": "TiCo2", "formula_anonymous": "AB2", "chemsys": null, "volume": 74.81443229412244, "density": 7.357050245415669, "density_atomic": 12.469072049020406, "symmetry": null, "property_name": null, "material_id": "mp-695", "deprecated": null, "deprecation_reasons": null, "last_updated": null, "origins": null, "warnings": null, "structure": {"@module": "pymatgen.core.structure", "@class": "Structure", "charge": 0, "lattice": {"matrix": [[4.09606688, -1.3820000000000002e-05, 2.36484263], [1.36534337, 3.8617693600000003, 2.36484246], [4.56e-06, 1.6e-06, 4.72968042]], "pbc": [true, true, true], "a": 4.729719288741061, "b": 4.729683389874698, "c": 4.7296804200024685, "alpha": 59.99995261073147, "beta": 60.00018275709558, "gamma": 60.00021509477497, "volume": 74.81443229412245}, "properties": {}, "sites": [{"species": [{"element": "Ti", "occu": 1}], "abc": [0.12501065, 0.12499664, 0.12499506], "properties": {"magmom": -0.6910000000000001}, "label": "Ti", "xyz": [0.6827158867860225, 0.48270666679986346, 1.182414563832069]}, {"species": [{"element": "Ti", "occu": 1}], "abc": [0.87498935, 0.87500336, 0.8750049400000001], "properties": {"magmom": -0.6910000000000001}, "label": "Ti", "xyz": [4.778698923213978, 3.3790504732001367, 8.276950946167933]}, {"species": [{"element": "Co", "occu": 1}], "abc": [0.0, 0.5, 0.5], "properties": {"magmom": 1.488}, "label": "Co", "xyz": [0.682673965, 1.9308854800000002, 3.54726144]}, {"species": [{"element": "Co", "occu": 1}], "abc": [0.5, -0.0, 0.5], "properties": {"magmom": 1.488}, "label": "Co", "xyz": [2.04803572, -6.110000000000001e-06, 3.547261525]}, {"species": [{"element": "Co", "occu": 1}], "abc": [0.5, 0.5, 0.0], "properties": {"magmom": 1.488}, "label": "Co", "xyz": [2.730705125, 1.9308777700000002, 2.364842545]}, {"species": [{"element": "Co", "occu": 1}], "abc": [0.5, 0.5, 0.5], "properties": {"magmom": 1.488}, "label": "Co", "xyz": [2.730707405, 1.9308785700000002, 4.729682755000001]}]}, "task_ids": null, "uncorrected_energy_per_atom": null, "energy_per_atom": -13.35629477, "formation_energy_per_atom": -0.220888345555555, "energy_above_hull": 0.050515650000001, "is_stable": false, "equilibrium_reaction_energy_per_atom": null, "decomposes_to": null, "xas": null, "grain_boundaries": null, "band_gap": 0.0, "cbm": null, "vbm": null, "efermi": 6.13633849, "is_gap_direct": null, "is_metal": null, "es_source_calc_id": null, "bandstructure": null, "dos": null, "dos_energy_up": null, "dos_energy_down": null, "is_magnetic": null, "ordering": null, "total_magnetization": 4.0632222, "total_magnetization_normalized_vol": null, "total_magnetization_normalized_formula_units": null, "num_magnetic_sites": null, "num_unique_magnetic_sites": null, "types_of_magnetic_species": null, "bulk_modulus": null, "shear_modulus": null, "universal_anisotropy": null, "homogeneous_poisson": null, "e_total": null, "e_ionic": null, "e_electronic": null, "n": null, "e_ij_max": null, "weighted_surface_energy_EV_PER_ANG2": null, "weighted_surface_energy": null, "weighted_work_function": null, "surface_anisotropy": null, "shape_factor": null, "has_reconstructed": null, "possible_species": null, "has_props": null, "theoretical": null, "database_IDs": null, "fields_not_requested": ["builder_meta", "nsites", "elements", "nelements", "composition", "composition_reduced", "chemsys", "symmetry", "property_name", "deprecated", "deprecation_reasons", "last_updated", "origins", "warnings", "task_ids", "uncorrected_energy_per_atom", "equilibrium_reaction_energy_per_atom", "decomposes_to", "xas", "grain_boundaries", "cbm", "vbm", "is_gap_direct", "is_metal", "es_source_calc_id", "bandstructure", "dos", "dos_energy_up", "dos_energy_down", "is_magnetic", "ordering", "total_magnetization_normalized_vol", "total_magnetization_normalized_formula_units", "num_magnetic_sites", "num_unique_magnetic_sites", "types_of_magnetic_species", "bulk_modulus", "shear_modulus", "universal_anisotropy", "homogeneous_poisson", "e_total", "e_ionic", "e_electronic", "n", "e_ij_max", "weighted_surface_energy_EV_PER_ANG2", "weighted_surface_energy", "weighted_work_function", "surface_anisotropy", "shape_factor", "has_reconstructed", "possible_species", "has_props", "theoretical", "database_IDs"]}