{"builder_meta": null, "nsites": null, "elements": null, "nelements": null, "composition": null, "composition_reduced": null, "formula_pretty": "TiCo4", "formula_anonymous": "AB4", "chemsys": null, "volume": 136.33362701895103, "density": 6.90847187544866, "density_atomic": 13.633362701895104, "symmetry": null, "property_name": null, "material_id": "mp-1208216", "deprecated": null, "deprecation_reasons": null, "last_updated": null, "origins": null, "warnings": null, "structure": {"@module": "pymatgen.core.structure", "@class": "Structure", "charge": 0, "lattice": {"matrix": [[-4.08499, -4.08499, 0.0], [-4.08499, 0.0, -4.08499], [0.0, -4.08499, -4.08499]], "pbc": [true, true, true], "a": 5.7770482601584705, "b": 5.7770482601584705, "c": 5.7770482601584705, "alpha": 59.99999999999999, "beta": 59.99999999999999, "gamma": 59.99999999999999, "volume": 136.33362701895103}, "properties": {}, "sites": [{"species": [{"element": "Ti", "occu": 1}], "abc": [0.0, 0.0, 0.0], "properties": {"magmom": -0.47300000000000003}, "label": "Ti", "xyz": [0.0, 0.0, 0.0]}, {"species": [{"element": "Ti", "occu": 1}], "abc": [0.75, 0.75, 0.75], "properties": {"magmom": -0.47300000000000003}, "label": "Ti", "xyz": [-6.127485, -6.127485, -6.127485]}, {"species": [{"element": "Co", "occu": 1}], "abc": [0.599279, 0.599279, 0.599279], "properties": {"magmom": 1.1440000000000001}, "label": "Co", "xyz": [-4.8960974444200005, -4.8960974444200005, -4.8960974444200005]}, {"species": [{"element": "Co", "occu": 1}], "abc": [0.202160999999999, 0.599279, 0.599279], "properties": {"magmom": 1.143}, "label": "Co", "xyz": [-3.273874385599996, -3.273874385599996, -4.8960974444200005]}, {"species": [{"element": "Co", "occu": 1}], "abc": [0.599279, 0.202160999999999, 0.599279], "properties": {"magmom": 1.142}, "label": "Co", "xyz": [-3.273874385599996, -4.8960974444200005, -3.273874385599996]}, {"species": [{"element": "Co", "occu": 1}], "abc": [0.547839, 0.150721, 0.150721], "properties": {"magmom": 1.143}, "label": "Co", "xyz": [-2.8536106144, -2.8536106144, -1.23138755558]}, {"species": [{"element": "Co", "occu": 1}], "abc": [0.150721, 0.150721, 0.150721], "properties": {"magmom": 1.1440000000000001}, "label": "Co", "xyz": [-1.23138755558, -1.23138755558, -1.23138755558]}, {"species": [{"element": "Co", "occu": 1}], "abc": [0.599279, 0.599279, 0.202160999999999], "properties": {"magmom": 1.142}, "label": "Co", "xyz": [-4.8960974444200005, -3.273874385599996, -3.273874385599996]}, {"species": [{"element": "Co", "occu": 1}], "abc": [0.150721, 0.547839, 0.150721], "properties": {"magmom": 1.142}, "label": "Co", "xyz": [-2.8536106144, -1.23138755558, -2.8536106144]}, {"species": [{"element": "Co", "occu": 1}], "abc": [0.150721, 0.150721, 0.547839], "properties": {"magmom": 1.142}, "label": "Co", "xyz": [-1.23138755558, -2.8536106144, -2.8536106144]}]}, "task_ids": null, "uncorrected_energy_per_atom": null, "energy_per_atom": -12.400442784, "formation_energy_per_atom": 0.774493522666665, "energy_above_hull": 0.9373359199999981, "is_stable": false, "equilibrium_reaction_energy_per_atom": null, "decomposes_to": null, "xas": null, "grain_boundaries": null, "band_gap": 0.0, "cbm": null, "vbm": null, "efermi": 4.49968666, "is_gap_direct": null, "is_metal": null, "es_source_calc_id": null, "bandstructure": null, "dos": null, "dos_energy_up": null, "dos_energy_down": null, "is_magnetic": null, "ordering": null, "total_magnetization": 8.0039554, "total_magnetization_normalized_vol": null, "total_magnetization_normalized_formula_units": null, "num_magnetic_sites": null, "num_unique_magnetic_sites": null, "types_of_magnetic_species": null, "bulk_modulus": null, "shear_modulus": null, "universal_anisotropy": null, "homogeneous_poisson": null, "e_total": null, "e_ionic": null, "e_electronic": null, "n": null, "e_ij_max": null, "weighted_surface_energy_EV_PER_ANG2": null, "weighted_surface_energy": null, "weighted_work_function": null, "surface_anisotropy": null, "shape_factor": null, "has_reconstructed": null, "possible_species": null, "has_props": null, "theoretical": null, "database_IDs": null, "fields_not_requested": ["builder_meta", "nsites", "elements", "nelements", "composition", "composition_reduced", "chemsys", "symmetry", "property_name", "deprecated", "deprecation_reasons", "last_updated", "origins", "warnings", "task_ids", "uncorrected_energy_per_atom", "equilibrium_reaction_energy_per_atom", "decomposes_to", "xas", "grain_boundaries", "cbm", "vbm", "is_gap_direct", "is_metal", "es_source_calc_id", "bandstructure", "dos", "dos_energy_up", "dos_energy_down", "is_magnetic", "ordering", "total_magnetization_normalized_vol", "total_magnetization_normalized_formula_units", "num_magnetic_sites", "num_unique_magnetic_sites", "types_of_magnetic_species", "bulk_modulus", "shear_modulus", "universal_anisotropy", "homogeneous_poisson", "e_total", "e_ionic", "e_electronic", "n", "e_ij_max", "weighted_surface_energy_EV_PER_ANG2", "weighted_surface_energy", "weighted_work_function", "surface_anisotropy", "shape_factor", "has_reconstructed", "possible_species", "has_props", "theoretical", "database_IDs"]}