{"builder_meta": null, "nsites": null, "elements": null, "nelements": null, "composition": null, "composition_reduced": null, "formula_pretty": "TiCr2", "formula_anonymous": "AB2", "chemsys": null, "volume": 79.5179451296692, "density": 6.342420790965218, "density_atomic": 13.252990854944867, "symmetry": null, "property_name": null, "material_id": "mp-1425", "deprecated": null, "deprecation_reasons": null, "last_updated": null, "origins": null, "warnings": null, "structure": {"@module": "pymatgen.core.structure", "@class": "Structure", "charge": 0, "lattice": {"matrix": [[4.1801378, -0.0, 2.41340324], [1.3933792600000001, 3.941073, 2.41340324], [-1e-08, -1e-08, 4.82680851]], "pbc": [true, true, true], "a": 4.82680714611961, "b": 4.826808195108818, "c": 4.82680851, "alpha": 60.00001190569689, "beta": 60.00000468384499, "gamma": 60.00001031163649, "volume": 79.5179451296692}, "properties": {}, "sites": [{"species": [{"element": "Ti", "occu": 1}], "abc": [0.125, 0.125, 0.125], "properties": {"magmom": -0.0}, "label": "Ti", "xyz": [0.69668963125, 0.49263412375, 1.2067018737500002]}, {"species": [{"element": "Ti", "occu": 1}], "abc": [0.875, 0.875, 0.875], "properties": {"magmom": -0.0}, "label": "Ti", "xyz": [4.8768274187500005, 3.44843886625, 8.44691311625]}, {"species": [{"element": "Cr", "occu": 1}], "abc": [0.0, 0.5, 0.5], "properties": {"magmom": 0.0}, "label": "Cr", "xyz": [0.6966896250000001, 1.970536495, 3.620105875]}, {"species": [{"element": "Cr", "occu": 1}], "abc": [0.5, -0.0, 0.5], "properties": {"magmom": 0.0}, "label": "Cr", "xyz": [2.090068895, -5e-09, 3.620105875]}, {"species": [{"element": "Cr", "occu": 1}], "abc": [0.5, 0.5, 0.0], "properties": {"magmom": 0.0}, "label": "Cr", "xyz": [2.78675853, 1.9705365, 2.41340324]}, {"species": [{"element": "Cr", "occu": 1}], "abc": [0.5, 0.5, 0.5], "properties": {"magmom": 0.0}, "label": "Cr", "xyz": [2.786758525, 1.970536495, 4.826807495000001]}]}, "task_ids": null, "uncorrected_energy_per_atom": null, "energy_per_atom": -14.277509575000002, "formation_energy_per_atom": 0.083971022777776, "energy_above_hull": 0.083971022777776, "is_stable": false, "equilibrium_reaction_energy_per_atom": null, "decomposes_to": null, "xas": null, "grain_boundaries": null, "band_gap": 0.0, "cbm": null, "vbm": null, "efermi": 6.16787702, "is_gap_direct": null, "is_metal": null, "es_source_calc_id": null, "bandstructure": null, "dos": null, "dos_energy_up": null, "dos_energy_down": null, "is_magnetic": null, "ordering": null, "total_magnetization": 1e-07, "total_magnetization_normalized_vol": null, "total_magnetization_normalized_formula_units": null, "num_magnetic_sites": null, "num_unique_magnetic_sites": null, "types_of_magnetic_species": null, "bulk_modulus": null, "shear_modulus": null, "universal_anisotropy": null, "homogeneous_poisson": null, "e_total": null, "e_ionic": null, "e_electronic": null, "n": null, "e_ij_max": null, "weighted_surface_energy_EV_PER_ANG2": null, "weighted_surface_energy": null, "weighted_work_function": null, "surface_anisotropy": null, "shape_factor": null, "has_reconstructed": null, "possible_species": null, "has_props": null, "theoretical": null, "database_IDs": null, "fields_not_requested": ["builder_meta", "nsites", "elements", "nelements", "composition", "composition_reduced", "chemsys", "symmetry", "property_name", "deprecated", "deprecation_reasons", "last_updated", "origins", "warnings", "task_ids", "uncorrected_energy_per_atom", "equilibrium_reaction_energy_per_atom", "decomposes_to", "xas", "grain_boundaries", "cbm", "vbm", "is_gap_direct", "is_metal", "es_source_calc_id", "bandstructure", "dos", "dos_energy_up", "dos_energy_down", "is_magnetic", "ordering", "total_magnetization_normalized_vol", "total_magnetization_normalized_formula_units", "num_magnetic_sites", "num_unique_magnetic_sites", "types_of_magnetic_species", "bulk_modulus", "shear_modulus", "universal_anisotropy", "homogeneous_poisson", "e_total", "e_ionic", "e_electronic", "n", "e_ij_max", "weighted_surface_energy_EV_PER_ANG2", "weighted_surface_energy", "weighted_work_function", "surface_anisotropy", "shape_factor", "has_reconstructed", "possible_species", "has_props", "theoretical", "database_IDs"]}