{"builder_meta": null, "nsites": null, "elements": null, "nelements": null, "composition": null, "composition_reduced": null, "formula_pretty": "TiCu2", "formula_anonymous": "AB2", "chemsys": null, "volume": 78.6063422009401, "density": 7.391929109501161, "density_atomic": 13.101057033490017, "symmetry": null, "property_name": null, "material_id": "mp-1077023", "deprecated": null, "deprecation_reasons": null, "last_updated": null, "origins": null, "warnings": null, "structure": {"@module": "pymatgen.core.structure", "@class": "Structure", "charge": 0, "lattice": {"matrix": [[2.26201895, -3.97176117, 0.0], [2.26201895, 3.97176117, 0.0], [-0.0, -0.0, 4.37469951]], "pbc": [true, true, true], "a": 4.570734790127171, "b": 4.570734790127171, "c": 4.37469951, "alpha": 90.0, "beta": 90.0, "gamma": 120.67477475674319, "volume": 78.6063422009401}, "properties": {}, "sites": [{"species": [{"element": "Ti", "occu": 1}], "abc": [0.79354019, 0.79354019, 0.25], "properties": {"magmom": -0.447}, "label": "Ti", "xyz": [3.5900058947332005, 0.0, 1.0936748775]}, {"species": [{"element": "Ti", "occu": 1}], "abc": [0.20645981, 0.20645981, 0.75], "properties": {"magmom": -0.447}, "label": "Ti", "xyz": [0.9340320052667989, 0.0, 3.2810246325000003]}, {"species": [{"element": "Cu", "occu": 1}], "abc": [0.13858601, 0.48478035, 0.25], "properties": {"magmom": -0.007}, "label": "Cu", "xyz": [1.410066519112522, 1.375001236885778, 1.0936748775]}, {"species": [{"element": "Cu", "occu": 1}], "abc": [0.51521965, 0.86141399, 0.75], "properties": {"magmom": -0.007}, "label": "Cu", "xyz": [3.113971380887478, 1.3750012368857778, 3.2810246325000003]}, {"species": [{"element": "Cu", "occu": 1}], "abc": [0.86141399, 0.51521965, 0.75], "properties": {"magmom": -0.007}, "label": "Cu", "xyz": [3.113971380887478, -1.3750012368857778, 3.2810246325000003]}, {"species": [{"element": "Cu", "occu": 1}], "abc": [0.48478035, 0.13858601, 0.25], "properties": {"magmom": -0.007}, "label": "Cu", "xyz": [1.410066519112522, -1.375001236885778, 1.0936748775]}]}, "task_ids": null, "uncorrected_energy_per_atom": null, "energy_per_atom": -11.663725158333333, "formation_energy_per_atom": -0.11994215388888801, "energy_above_hull": 0.0, "is_stable": true, "equilibrium_reaction_energy_per_atom": null, "decomposes_to": null, "xas": null, "grain_boundaries": null, "band_gap": 0.0, "cbm": null, "vbm": null, "efermi": 7.01570853, "is_gap_direct": null, "is_metal": null, "es_source_calc_id": null, "bandstructure": null, "dos": null, "dos_energy_up": null, "dos_energy_down": null, "is_magnetic": null, "ordering": null, "total_magnetization": 0.992925, "total_magnetization_normalized_vol": null, "total_magnetization_normalized_formula_units": null, "num_magnetic_sites": null, "num_unique_magnetic_sites": null, "types_of_magnetic_species": null, "bulk_modulus": null, "shear_modulus": null, "universal_anisotropy": null, "homogeneous_poisson": null, "e_total": null, "e_ionic": null, "e_electronic": null, "n": null, "e_ij_max": null, "weighted_surface_energy_EV_PER_ANG2": null, "weighted_surface_energy": null, "weighted_work_function": null, "surface_anisotropy": null, "shape_factor": null, "has_reconstructed": null, "possible_species": null, "has_props": null, "theoretical": null, "database_IDs": null, "fields_not_requested": ["builder_meta", "nsites", "elements", "nelements", "composition", "composition_reduced", "chemsys", "symmetry", "property_name", "deprecated", "deprecation_reasons", "last_updated", "origins", "warnings", "task_ids", "uncorrected_energy_per_atom", "equilibrium_reaction_energy_per_atom", "decomposes_to", "xas", "grain_boundaries", "cbm", "vbm", "is_gap_direct", "is_metal", "es_source_calc_id", "bandstructure", "dos", "dos_energy_up", "dos_energy_down", "is_magnetic", "ordering", "total_magnetization_normalized_vol", "total_magnetization_normalized_formula_units", "num_magnetic_sites", "num_unique_magnetic_sites", "types_of_magnetic_species", "bulk_modulus", "shear_modulus", "universal_anisotropy", "homogeneous_poisson", "e_total", "e_ionic", "e_electronic", "n", "e_ij_max", "weighted_surface_energy_EV_PER_ANG2", "weighted_surface_energy", "weighted_work_function", "surface_anisotropy", "shape_factor", "has_reconstructed", "possible_species", "has_props", "theoretical", "database_IDs"]}