{"builder_meta": null, "nsites": null, "elements": null, "nelements": null, "composition": null, "composition_reduced": null, "formula_pretty": "TiCu4", "formula_anonymous": "AB4", "chemsys": null, "volume": 246.64927907419548, "density": 8.134100168275264, "density_atomic": 12.332463953709773, "symmetry": null, "property_name": null, "material_id": "mp-1188441", "deprecated": null, "deprecation_reasons": null, "last_updated": null, "origins": null, "warnings": null, "structure": {"@module": "pymatgen.core.structure", "@class": "Structure", "charge": 0, "lattice": {"matrix": [[0.0, -4.29938597, 0.0], [-4.4683404, 0.0, 0.0], [0.0, 0.0, -12.83888075]], "pbc": [true, true, true], "a": 4.29938597, "b": 4.4683404, "c": 12.83888075, "alpha": 90.0, "beta": 90.0, "gamma": 90.0, "volume": 246.64927907419548}, "properties": {}, "sites": [{"species": [{"element": "Ti", "occu": 1}], "abc": [0.75, 0.34330619, 0.90296866], "properties": {"magmom": 0.0}, "label": "Ti", "xyz": [-1.534008918347076, -3.2245394775000005, -11.593106946727294]}, {"species": [{"element": "Ti", "occu": 1}], "abc": [0.75, 0.8433061900000001, 0.59703134], "properties": {"magmom": 0.0}, "label": "Ti", "xyz": [-3.768179118347076, -3.2245394775000005, -7.665214178272705]}, {"species": [{"element": "Ti", "occu": 1}], "abc": [0.25, 0.65669381, 0.09703134000000001], "properties": {"magmom": 0.0}, "label": "Ti", "xyz": [-2.934331481652924, -1.0748464925, -1.245773803272705]}, {"species": [{"element": "Ti", "occu": 1}], "abc": [0.25, 0.15669381000000002, 0.40296866000000003], "properties": {"magmom": 0.0}, "label": "Ti", "xyz": [-0.700161281652924, -1.0748464925, -5.173666571727296]}, {"species": [{"element": "Cu", "occu": 1}], "abc": [0.75, 0.33844507, 0.49729666], "properties": {"magmom": -0.0}, "label": "Cu", "xyz": [-1.512287779461828, -3.2245394775000005, -6.384732515113295]}, {"species": [{"element": "Cu", "occu": 1}], "abc": [0.75, 0.83844507, 0.0027033400000000003], "properties": {"magmom": -0.0}, "label": "Cu", "xyz": [-3.746457979461828, -3.2245394775000005, -0.034707859886705]}, {"species": [{"element": "Cu", "occu": 1}], "abc": [0.25, 0.66155493, 0.50270334], "properties": {"magmom": -0.0}, "label": "Cu", "xyz": [-2.9560526205381716, -1.0748464925, -6.454148234886706]}, {"species": [{"element": "Cu", "occu": 1}], "abc": [0.25, 0.16155493, 0.9972966600000001], "properties": {"magmom": -0.0}, "label": "Cu", "xyz": [-0.721882420538172, -1.0748464925, -12.804172890113295]}, {"species": [{"element": "Cu", "occu": 1}], "abc": [0.75, 0.34249306, 0.70057434], "properties": {"magmom": -0.0}, "label": "Cu", "xyz": [-1.530375576717624, -3.2245394775000005, -8.994590407769953]}, {"species": [{"element": "Cu", "occu": 1}], "abc": [0.75, 0.84249306, 0.79942566], "properties": {"magmom": -0.0}, "label": "Cu", "xyz": [-3.764545776717624, -3.2245394775000005, -10.263730717230045]}, {"species": [{"element": "Cu", "occu": 1}], "abc": [0.25, 0.65750694, 0.29942566], "properties": {"magmom": -0.0}, "label": "Cu", "xyz": [-2.9379648232823756, -1.0748464925, -3.8442903422300447]}, {"species": [{"element": "Cu", "occu": 1}], "abc": [0.25, 0.15750694, 0.20057434000000002], "properties": {"magmom": -0.0}, "label": "Cu", "xyz": [-0.703794623282376, -1.0748464925, -2.575150032769955]}, {"species": [{"element": "Cu", "occu": 1}], "abc": [0.75, 0.32132567, 0.10475141], "properties": {"magmom": 0.0}, "label": "Cu", "xyz": [-1.435792472818068, -3.2245394775000005, -1.3448908613843575]}, {"species": [{"element": "Cu", "occu": 1}], "abc": [0.75, 0.82132567, 0.39524859], "properties": {"magmom": 0.0}, "label": "Cu", "xyz": [-3.669962672818068, -3.2245394775000005, -5.074549513615643]}, {"species": [{"element": "Cu", "occu": 1}], "abc": [0.25, 0.67867433, 0.89524859], "properties": {"magmom": 0.0}, "label": "Cu", "xyz": [-3.032547927181932, -1.0748464925, -11.493989888615642]}, {"species": [{"element": "Cu", "occu": 1}], "abc": [0.25, 0.17867433, 0.60475141], "properties": {"magmom": 0.0}, "label": "Cu", "xyz": [-0.7983777271819319, -1.0748464925, -7.764331236384357]}, {"species": [{"element": "Cu", "occu": 1}], "abc": [0.75, 0.32638297, 0.29776672], "properties": {"magmom": 0.0}, "label": "Cu", "xyz": [-1.4583902107229878, -3.2245394775000005, -3.8229914093986395]}, {"species": [{"element": "Cu", "occu": 1}], "abc": [0.75, 0.82638297, 0.20223328000000002], "properties": {"magmom": 0.0}, "label": "Cu", "xyz": [-3.692560410722988, -3.2245394775000005, -2.5964489656013603]}, {"species": [{"element": "Cu", "occu": 1}], "abc": [0.25, 0.6736170300000001, 0.70223328], "properties": {"magmom": 0.0}, "label": "Cu", "xyz": [-3.009950189277012, -1.0748464925, -9.015889340601358]}, {"species": [{"element": "Cu", "occu": 1}], "abc": [0.25, 0.17361703, 0.79776672], "properties": {"magmom": 0.0}, "label": "Cu", "xyz": [-0.775779989277012, -1.0748464925, -10.24243178439864]}]}, "task_ids": null, "uncorrected_energy_per_atom": null, "energy_per_atom": -11.350913976, "formation_energy_per_atom": -0.08592577333333301, "energy_above_hull": 0.0, "is_stable": true, "equilibrium_reaction_energy_per_atom": null, "decomposes_to": null, "xas": null, "grain_boundaries": null, "band_gap": 0.0, "cbm": null, "vbm": null, "efermi": 6.99709291, "is_gap_direct": null, "is_metal": null, "es_source_calc_id": null, "bandstructure": null, "dos": null, "dos_energy_up": null, "dos_energy_down": null, "is_magnetic": null, "ordering": null, "total_magnetization": 0.0001013, "total_magnetization_normalized_vol": null, "total_magnetization_normalized_formula_units": null, "num_magnetic_sites": null, "num_unique_magnetic_sites": null, "types_of_magnetic_species": null, "bulk_modulus": null, "shear_modulus": null, "universal_anisotropy": null, "homogeneous_poisson": null, "e_total": null, "e_ionic": null, "e_electronic": null, "n": null, "e_ij_max": null, "weighted_surface_energy_EV_PER_ANG2": null, "weighted_surface_energy": null, "weighted_work_function": null, "surface_anisotropy": null, "shape_factor": null, "has_reconstructed": null, "possible_species": null, "has_props": null, "theoretical": null, "database_IDs": null, "fields_not_requested": ["builder_meta", "nsites", "elements", "nelements", "composition", "composition_reduced", "chemsys", "symmetry", "property_name", "deprecated", "deprecation_reasons", "last_updated", "origins", "warnings", "task_ids", "uncorrected_energy_per_atom", "equilibrium_reaction_energy_per_atom", "decomposes_to", "xas", "grain_boundaries", "cbm", "vbm", "is_gap_direct", "is_metal", "es_source_calc_id", "bandstructure", "dos", "dos_energy_up", "dos_energy_down", "is_magnetic", "ordering", "total_magnetization_normalized_vol", "total_magnetization_normalized_formula_units", "num_magnetic_sites", "num_unique_magnetic_sites", "types_of_magnetic_species", "bulk_modulus", "shear_modulus", "universal_anisotropy", "homogeneous_poisson", "e_total", "e_ionic", "e_electronic", "n", "e_ij_max", "weighted_surface_energy_EV_PER_ANG2", "weighted_surface_energy", "weighted_work_function", "surface_anisotropy", "shape_factor", "has_reconstructed", "possible_species", "has_props", "theoretical", "database_IDs"]}