{
  "builder_meta": null,
  "nsites": null,
  "elements": null,
  "nelements": null,
  "composition": null,
  "composition_reduced": null,
  "formula_pretty": "TiF3",
  "formula_anonymous": "AB3",
  "chemsys": null,
  "volume": 120.44610881666335,
  "density": 2.891381006186685,
  "density_atomic": 15.05576360208292,
  "symmetry": null,
  "property_name": null,
  "material_id": "mp-246",
  "deprecated": null,
  "deprecation_reasons": null,
  "last_updated": null,
  "origins": null,
  "warnings": null,
  "structure": {
    "@module": "pymatgen.core.structure",
    "@class": "Structure",
    "charge": 0,
    "lattice": {
      "matrix": [
        [4.76975177, -0.04970697, 2.79270744],
        [1.57734222, 4.50166314, 2.79270841],
        [-0.07086678, -0.049708920000000004, 5.52672615]
      ],
      "pbc": [true, true, true],
      "a": 5.527406044042365,
      "b": 5.527404433214012,
      "c": 5.527404003176262,
      "alpha": 60.38280609069512,
      "beta": 60.382810089505746,
      "gamma": 60.38281004133979,
      "volume": 120.44610881666335
    },
    "properties": {},
    "sites": [
      {
        "species": [{ "element": "Ti", "occu": 1 }],
        "abc": [0.5, 0.5, 0.5],
        "properties": { "magmom": 0.9490000000000001 },
        "label": "Ti",
        "xyz": [3.138113605, 2.201123625, 5.556071]
      },
      {
        "species": [{ "element": "Ti", "occu": 1 }],
        "abc": [0.0, -0.0, -0.0],
        "properties": { "magmom": 0.9480000000000001 },
        "label": "Ti",
        "xyz": [0.0, 0.0, 0.0]
      },
      {
        "species": [{ "element": "F", "occu": 1 }],
        "abc": [0.2531889, 0.75002553, 0.24677686000000001],
        "properties": { "magmom": -0.011 },
        "label": "F",
        "xyz": [2.3732068570195186, 3.35151001821174, 4.165553255478013]
      },
      {
        "species": [{ "element": "F", "occu": 1 }],
        "abc": [0.75002553, 0.24677686000000001, 0.2531889],
        "properties": { "magmom": -0.011 },
        "label": "F",
        "xyz": [3.9487444773849756, 1.0610390511730083, 4.183083404656071]
      },
      {
        "species": [{ "element": "F", "occu": 1 }],
        "abc": [0.75322314, 0.7468111, 0.24997447],
        "properties": { "magmom": -0.011 },
        "label": "F",
        "xyz": [4.752949197843493, 3.3120256004582953, 5.570697946890903]
      },
      {
        "species": [{ "element": "F", "occu": 1 }],
        "abc": [0.24997447, 0.75322314, 0.7468111],
        "properties": { "magmom": -0.011 },
        "label": "F",
        "xyz": [2.3274827326150245, 3.3412081988269917, 6.929058595343929]
      },
      {
        "species": [{ "element": "F", "occu": 1 }],
        "abc": [0.7468111, 0.24997447, 0.75322314],
        "properties": { "magmom": -0.011 },
        "label": "F",
        "xyz": [3.903020352980481, 1.05073723178826, 6.946588744521988]
      },
      {
        "species": [{ "element": "F", "occu": 1 }],
        "abc": [0.24677686000000001, 0.2531889, 0.75002553],
        "properties": { "magmom": -0.011 },
        "label": "F",
        "xyz": [1.5232780121565068, 1.090221649541704, 5.541444053109097]
      }
    ]
  },
  "task_ids": null,
  "uncorrected_energy_per_atom": null,
  "energy_per_atom": -7.078806645,
  "formation_energy_per_atom": -3.669544359583334,
  "energy_above_hull": 0.0,
  "is_stable": true,
  "equilibrium_reaction_energy_per_atom": null,
  "decomposes_to": null,
  "xas": null,
  "grain_boundaries": null,
  "band_gap": 0.0,
  "cbm": null,
  "vbm": null,
  "efermi": 1.80170363,
  "is_gap_direct": null,
  "is_metal": null,
  "es_source_calc_id": null,
  "bandstructure": null,
  "dos": null,
  "dos_energy_up": null,
  "dos_energy_down": null,
  "is_magnetic": null,
  "ordering": null,
  "total_magnetization": 2.0000001,
  "total_magnetization_normalized_vol": null,
  "total_magnetization_normalized_formula_units": null,
  "num_magnetic_sites": null,
  "num_unique_magnetic_sites": null,
  "types_of_magnetic_species": null,
  "bulk_modulus": null,
  "shear_modulus": null,
  "universal_anisotropy": null,
  "homogeneous_poisson": null,
  "e_total": null,
  "e_ionic": null,
  "e_electronic": null,
  "n": null,
  "e_ij_max": null,
  "weighted_surface_energy_EV_PER_ANG2": null,
  "weighted_surface_energy": null,
  "weighted_work_function": null,
  "surface_anisotropy": null,
  "shape_factor": null,
  "has_reconstructed": null,
  "possible_species": null,
  "has_props": null,
  "theoretical": null,
  "database_IDs": null,
  "fields_not_requested": [
    "builder_meta",
    "nsites",
    "elements",
    "nelements",
    "composition",
    "composition_reduced",
    "chemsys",
    "symmetry",
    "property_name",
    "deprecated",
    "deprecation_reasons",
    "last_updated",
    "origins",
    "warnings",
    "task_ids",
    "uncorrected_energy_per_atom",
    "equilibrium_reaction_energy_per_atom",
    "decomposes_to",
    "xas",
    "grain_boundaries",
    "cbm",
    "vbm",
    "is_gap_direct",
    "is_metal",
    "es_source_calc_id",
    "bandstructure",
    "dos",
    "dos_energy_up",
    "dos_energy_down",
    "is_magnetic",
    "ordering",
    "total_magnetization_normalized_vol",
    "total_magnetization_normalized_formula_units",
    "num_magnetic_sites",
    "num_unique_magnetic_sites",
    "types_of_magnetic_species",
    "bulk_modulus",
    "shear_modulus",
    "universal_anisotropy",
    "homogeneous_poisson",
    "e_total",
    "e_ionic",
    "e_electronic",
    "n",
    "e_ij_max",
    "weighted_surface_energy_EV_PER_ANG2",
    "weighted_surface_energy",
    "weighted_work_function",
    "surface_anisotropy",
    "shape_factor",
    "has_reconstructed",
    "possible_species",
    "has_props",
    "theoretical",
    "database_IDs"
  ]
}
