{"builder_meta": null, "nsites": null, "elements": null, "nelements": null, "composition": null, "composition_reduced": null, "formula_pretty": "TiF4", "formula_anonymous": "AB4", "chemsys": null, "volume": 821.8814254383005, "density": 3.002993570627025, "density_atomic": 13.698023757305009, "symmetry": null, "property_name": null, "material_id": "mp-28974", "deprecated": null, "deprecation_reasons": null, "last_updated": null, "origins": null, "warnings": null, "structure": {"@module": "pymatgen.core.structure", "@class": "Structure", "charge": 0, "lattice": {"matrix": [[3.86897486, -0.0, 0.0], [-0.0, 9.50155057, 0.0], [0.0, 0.0, 22.3572701]], "pbc": [true, true, true], "a": 3.86897486, "b": 9.50155057, "c": 22.3572701, "alpha": 90.0, "beta": 90.0, "gamma": 90.0, "volume": 821.8814254383005}, "properties": {}, "sites": [{"species": [{"element": "Ti", "occu": 1}], "abc": [0.25, 0.6482697, 0.57387959], "properties": {"magmom": 0.0}, "label": "Ti", "xyz": [0.967243715, 6.159567337548728, 12.830380998507259]}, {"species": [{"element": "Ti", "occu": 1}], "abc": [0.75, 0.3517303, 0.42612041], "properties": {"magmom": 0.0}, "label": "Ti", "xyz": [2.901731145, 3.3419832324512706, 9.526889101492742]}, {"species": [{"element": "Ti", "occu": 1}], "abc": [0.75, 0.1482697, 0.92612041], "properties": {"magmom": 0.0}, "label": "Ti", "xyz": [2.901731145, 1.408792052548729, 20.705524151492742]}, {"species": [{"element": "Ti", "occu": 1}], "abc": [0.25, 0.851730299999999, 0.07387959], "properties": {"magmom": 0.0}, "label": "Ti", "xyz": [0.967243715, 8.09275851745126, 1.651745948507259]}, {"species": [{"element": "Ti", "occu": 1}], "abc": [0.25, 0.44610419, 0.09839445000000001], "properties": {"magmom": 0.0}, "label": "Ti", "xyz": [0.967243715, 4.238681520773888, 2.199831294990945]}, {"species": [{"element": "Ti", "occu": 1}], "abc": [0.75, 0.55389581, 0.90160555], "properties": {"magmom": 0.0}, "label": "Ti", "xyz": [2.901731145, 5.262869049226111, 20.157438805009054]}, {"species": [{"element": "Ti", "occu": 1}], "abc": [0.75, 0.94610419, 0.40160555000000003], "properties": {"magmom": 0.0}, "label": "Ti", "xyz": [2.901731145, 8.989456805773887, 8.978803755009055]}, {"species": [{"element": "Ti", "occu": 1}], "abc": [0.25, 0.05389581, 0.59839445], "properties": {"magmom": 0.0}, "label": "Ti", "xyz": [0.967243715, 0.5120937642261116, 13.378466344990946]}, {"species": [{"element": "Ti", "occu": 1}], "abc": [0.25, 0.80182988, 0.73572558], "properties": {"magmom": -0.0}, "label": "Ti", "xyz": [0.967243715, 7.618627153357031, 16.44881551153916]}, {"species": [{"element": "Ti", "occu": 1}], "abc": [0.75, 0.19817012, 0.26427442], "properties": {"magmom": -0.0}, "label": "Ti", "xyz": [2.901731145, 1.8829234166429683, 5.908454588460843]}, {"species": [{"element": "Ti", "occu": 1}], "abc": [0.75, 0.30182988, 0.76427442], "properties": {"magmom": -0.0}, "label": "Ti", "xyz": [2.901731145, 2.867851868357031, 17.087089638460842]}, {"species": [{"element": "Ti", "occu": 1}], "abc": [0.25, 0.69817012, 0.23572558000000002], "properties": {"magmom": -0.0}, "label": "Ti", "xyz": [0.967243715, 6.633698701642968, 5.270180461539159]}, {"species": [{"element": "F", "occu": 1}], "abc": [0.25, 0.64250895, 0.07002918], "properties": {"magmom": -0.0}, "label": "F", "xyz": [0.967243715, 6.104831280102601, 1.565661292141518]}, {"species": [{"element": "F", "occu": 1}], "abc": [0.75, 0.35749105000000003, 0.92997082], "properties": {"magmom": -0.0}, "label": "F", "xyz": [2.901731145, 3.3967192898973986, 20.79160880785848]}, {"species": [{"element": "F", "occu": 1}], "abc": [0.75, 0.14250895, 0.42997082000000003], "properties": {"magmom": -0.0}, "label": "F", "xyz": [2.901731145, 1.3540559951026014, 9.612973757858484]}, {"species": [{"element": "F", "occu": 1}], "abc": [0.25, 0.85749105, 0.57002918], "properties": {"magmom": -0.0}, "label": "F", "xyz": [0.967243715, 8.147494574897397, 12.744296342141519]}, {"species": [{"element": "F", "occu": 1}], "abc": [0.25, 0.637767699999999, 0.49533131], "properties": {"magmom": -0.0}, "label": "F", "xyz": [0.967243715, 6.0597820534625795, 11.074255886656832]}, {"species": [{"element": "F", "occu": 1}], "abc": [0.75, 0.3622323, 0.50466869], "properties": {"magmom": -0.0}, "label": "F", "xyz": [2.901731145, 3.441768516537411, 11.28301421334317]}, {"species": [{"element": "F", "occu": 1}], "abc": [0.75, 0.1377677, 0.0046686900000000005], "properties": {"magmom": -0.0}, "label": "F", "xyz": [2.901731145, 1.3090067684625888, 0.10437916334316902]}, {"species": [{"element": "F", "occu": 1}], "abc": [0.25, 0.8622323, 0.99533131], "properties": {"magmom": -0.0}, "label": "F", "xyz": [0.967243715, 8.19254380153741, 22.252890936656833]}, {"species": [{"element": "F", "occu": 1}], "abc": [0.25, 0.9238245700000001, 0.79463923], "properties": {"magmom": -0.0}, "label": "F", "xyz": [0.967243715, 8.777765869663504, 17.765963897166024]}, {"species": [{"element": "F", "occu": 1}], "abc": [0.75, 0.07617543, 0.20536077], "properties": {"magmom": -0.0}, "label": "F", "xyz": [2.901731145, 0.723784700336495, 4.5913062028339775]}, {"species": [{"element": "F", "occu": 1}], "abc": [0.75, 0.42382457, 0.70536077], "properties": {"magmom": -0.0}, "label": "F", "xyz": [2.901731145, 4.026990584663505, 15.769941252833977]}, {"species": [{"element": "F", "occu": 1}], "abc": [0.25, 0.57617543, 0.29463923000000003], "properties": {"magmom": -0.0}, "label": "F", "xyz": [0.967243715, 5.474559985336495, 6.587328847166024]}, {"species": [{"element": "F", "occu": 1}], "abc": [0.25, 0.30395753000000003, 0.77217801], "properties": {"magmom": 0.0}, "label": "F", "xyz": [0.967243715, 2.8880678424272923, 17.2637923348505]}, {"species": [{"element": "F", "occu": 1}], "abc": [0.75, 0.69604247, 0.22782199], "properties": {"magmom": 0.0}, "label": "F", "xyz": [2.901731145, 6.613482727572707, 5.093477765149499]}, {"species": [{"element": "F", "occu": 1}], "abc": [0.75, 0.80395753, 0.72782199], "properties": {"magmom": 0.0}, "label": "F", "xyz": [2.901731145, 7.638843127427291, 16.2721128151495]}, {"species": [{"element": "F", "occu": 1}], "abc": [0.25, 0.19604247, 0.27217801], "properties": {"magmom": 0.0}, "label": "F", "xyz": [0.967243715, 1.8627074425727077, 6.085157284850502]}, {"species": [{"element": "F", "occu": 1}], "abc": [0.25, 0.33524078, 0.421118899999999], "properties": {"magmom": 0.0}, "label": "F", "xyz": [0.967243715, 3.1853072242962446, 9.415068991514868]}, {"species": [{"element": "F", "occu": 1}], "abc": [0.75, 0.66475922, 0.578881099999999], "properties": {"magmom": 0.0}, "label": "F", "xyz": [2.901731145, 6.316243345703755, 12.942201108485088]}, {"species": [{"element": "F", "occu": 1}], "abc": [0.75, 0.83524078, 0.0788811], "properties": {"magmom": 0.0}, "label": "F", "xyz": [2.901731145, 7.936082509296244, 1.76356605848511]}, {"species": [{"element": "F", "occu": 1}], "abc": [0.25, 0.16475822, 0.9211189], "properties": {"magmom": 0.0}, "label": "F", "xyz": [0.967243715, 1.5654585591531853, 20.59370404151489]}, {"species": [{"element": "F", "occu": 1}], "abc": [0.25, 0.11582819999999901, 0.52419739], "properties": {"magmom": -0.0}, "label": "F", "xyz": [0.967243715, 1.1005474997320646, 11.71962263394504]}, {"species": [{"element": "F", "occu": 1}], "abc": [0.75, 0.8841718, 0.47580261], "properties": {"magmom": -0.0}, "label": "F", "xyz": [2.901731145, 8.401003070267924, 10.637647466054961]}, {"species": [{"element": "F", "occu": 1}], "abc": [0.75, 0.615828199999999, 0.97580261], "properties": {"magmom": -0.0}, "label": "F", "xyz": [2.901731145, 5.851322784732065, 21.81628251605496]}, {"species": [{"element": "F", "occu": 1}], "abc": [0.25, 0.3841718, 0.02419739], "properties": {"magmom": -0.0}, "label": "F", "xyz": [0.967243715, 3.650227785267926, 0.540987583945039]}, {"species": [{"element": "F", "occu": 1}], "abc": [0.25, 0.03116428, 0.09026046], "properties": {"magmom": -0.0}, "label": "F", "xyz": [0.967243715, 0.29610898239763955, 2.017977483570246]}, {"species": [{"element": "F", "occu": 1}], "abc": [0.75, 0.9688357200000001, 0.90973954], "properties": {"magmom": -0.0}, "label": "F", "xyz": [2.901731145, 9.20544158760236, 20.339292616429756]}, {"species": [{"element": "F", "occu": 1}], "abc": [0.75, 0.53116428, 0.40973954], "properties": {"magmom": -0.0}, "label": "F", "xyz": [2.901731145, 5.0468842673976395, 9.160657566429755]}, {"species": [{"element": "F", "occu": 1}], "abc": [0.25, 0.46883572, 0.59026046], "properties": {"magmom": -0.0}, "label": "F", "xyz": [0.967243715, 4.4546663026023605, 13.196612533570246]}, {"species": [{"element": "F", "occu": 1}], "abc": [0.25, 0.80992945, 0.16072763], "properties": {"magmom": -0.0}, "label": "F", "xyz": [0.967243715, 7.6955856273072865, 3.593431036442863]}, {"species": [{"element": "F", "occu": 1}], "abc": [0.75, 0.19007055, 0.83927237], "properties": {"magmom": -0.0}, "label": "F", "xyz": [2.901731145, 1.8059649426927133, 18.76383906355714]}, {"species": [{"element": "F", "occu": 1}], "abc": [0.75, 0.30992945, 0.33927237], "properties": {"magmom": -0.0}, "label": "F", "xyz": [2.901731145, 2.944810342307286, 7.585204013557137]}, {"species": [{"element": "F", "occu": 1}], "abc": [0.25, 0.6900705500000001, 0.66072763], "properties": {"magmom": -0.0}, "label": "F", "xyz": [0.967243715, 6.556740227692713, 14.772066086442864]}, {"species": [{"element": "F", "occu": 1}], "abc": [0.25, 0.96312381, 0.39927223], "properties": {"magmom": 0.0}, "label": "F", "xyz": [0.967243715, 9.151169585886072, 8.926637089539323]}, {"species": [{"element": "F", "occu": 1}], "abc": [0.75, 0.03687619, 0.60072777], "properties": {"magmom": 0.0}, "label": "F", "xyz": [2.901731145, 0.3503809841139283, 13.430633010460678]}, {"species": [{"element": "F", "occu": 1}], "abc": [0.75, 0.46312381, 0.10072777000000001], "properties": {"magmom": 0.0}, "label": "F", "xyz": [2.901731145, 4.400394300886072, 2.2519979604606775]}, {"species": [{"element": "F", "occu": 1}], "abc": [0.25, 0.53687619, 0.89927223], "properties": {"magmom": 0.0}, "label": "F", "xyz": [0.967243715, 5.101156269113927, 20.105272139539323]}, {"species": [{"element": "F", "occu": 1}], "abc": [0.25, 0.85822529, 0.27537601], "properties": {"magmom": 0.0}, "label": "F", "xyz": [0.967243715, 8.154470993387914, 6.1566558346303015]}, {"species": [{"element": "F", "occu": 1}], "abc": [0.75, 0.14177471, 0.72462399], "properties": {"magmom": 0.0}, "label": "F", "xyz": [2.901731145, 1.3470795766120847, 16.2006142653697]}, {"species": [{"element": "F", "occu": 1}], "abc": [0.75, 0.35822529000000003, 0.22462399], "properties": {"magmom": 0.0}, "label": "F", "xyz": [2.901731145, 3.4036957083879154, 5.021979215369699]}, {"species": [{"element": "F", "occu": 1}], "abc": [0.25, 0.64177471, 0.77537601], "properties": {"magmom": 0.0}, "label": "F", "xyz": [0.967243715, 6.097854861612084, 17.3352908846303]}, {"species": [{"element": "F", "occu": 1}], "abc": [0.25, 0.21420149, 0.63717277], "properties": {"magmom": -0.0}, "label": "F", "xyz": [0.967243715, 2.0352462894043493, 14.245443719255178]}, {"species": [{"element": "F", "occu": 1}], "abc": [0.75, 0.78579851, 0.36282723], "properties": {"magmom": -0.0}, "label": "F", "xyz": [2.901731145, 7.46630428059565, 8.111826380744823]}, {"species": [{"element": "F", "occu": 1}], "abc": [0.75, 0.71420149, 0.8628272300000001], "properties": {"magmom": -0.0}, "label": "F", "xyz": [2.901731145, 6.786021574404349, 19.290461430744823]}, {"species": [{"element": "F", "occu": 1}], "abc": [0.25, 0.28579851, 0.13717277], "properties": {"magmom": -0.0}, "label": "F", "xyz": [0.967243715, 2.7155289955956503, 3.066808669255177]}, {"species": [{"element": "F", "occu": 1}], "abc": [0.25, 0.544813, 0.17652795000000002], "properties": {"magmom": -0.0}, "label": "F", "xyz": [0.967243715, 5.1765682706934095, 3.9466830583492953]}, {"species": [{"element": "F", "occu": 1}], "abc": [0.75, 0.455186, 0.82347205], "properties": {"magmom": -0.0}, "label": "F", "xyz": [2.901731145, 4.324972797756019, 18.410587041650707]}, {"species": [{"element": "F", "occu": 1}], "abc": [0.75, 0.044813, 0.32347205], "properties": {"magmom": -0.0}, "label": "F", "xyz": [2.901731145, 0.42579298569340995, 7.231951991650705]}, {"species": [{"element": "F", "occu": 1}], "abc": [0.25, 0.955187, 0.67652795], "properties": {"magmom": -0.0}, "label": "F", "xyz": [0.967243715, 9.07575758430659, 15.125318108349296]}]}, "task_ids": null, "uncorrected_energy_per_atom": null, "energy_per_atom": -6.796366062, "formation_energy_per_atom": -3.686185758666666, "energy_above_hull": 0.0, "is_stable": true, "equilibrium_reaction_energy_per_atom": null, "decomposes_to": null, "xas": null, "grain_boundaries": null, "band_gap": 4.1709, "cbm": null, "vbm": null, "efermi": -3.593295, "is_gap_direct": null, "is_metal": null, "es_source_calc_id": null, "bandstructure": null, "dos": null, "dos_energy_up": null, "dos_energy_down": null, "is_magnetic": null, "ordering": null, "total_magnetization": 0.0, "total_magnetization_normalized_vol": null, "total_magnetization_normalized_formula_units": null, "num_magnetic_sites": null, "num_unique_magnetic_sites": null, "types_of_magnetic_species": null, "bulk_modulus": null, "shear_modulus": null, "universal_anisotropy": null, "homogeneous_poisson": null, "e_total": null, "e_ionic": null, "e_electronic": null, "n": null, "e_ij_max": null, "weighted_surface_energy_EV_PER_ANG2": null, "weighted_surface_energy": null, "weighted_work_function": null, "surface_anisotropy": null, "shape_factor": null, "has_reconstructed": null, "possible_species": null, "has_props": null, "theoretical": null, "database_IDs": null, "fields_not_requested": ["builder_meta", "nsites", "elements", "nelements", "composition", "composition_reduced", "chemsys", "symmetry", "property_name", "deprecated", "deprecation_reasons", "last_updated", "origins", "warnings", "task_ids", "uncorrected_energy_per_atom", "equilibrium_reaction_energy_per_atom", "decomposes_to", "xas", "grain_boundaries", "cbm", "vbm", "is_gap_direct", "is_metal", "es_source_calc_id", "bandstructure", "dos", "dos_energy_up", "dos_energy_down", "is_magnetic", "ordering", "total_magnetization_normalized_vol", "total_magnetization_normalized_formula_units", "num_magnetic_sites", "num_unique_magnetic_sites", "types_of_magnetic_species", "bulk_modulus", "shear_modulus", "universal_anisotropy", "homogeneous_poisson", "e_total", "e_ionic", "e_electronic", "n", "e_ij_max", "weighted_surface_energy_EV_PER_ANG2", "weighted_surface_energy", "weighted_work_function", "surface_anisotropy", "shape_factor", "has_reconstructed", "possible_species", "has_props", "theoretical", "database_IDs"]}