{"builder_meta": null, "nsites": null, "elements": null, "nelements": null, "composition": null, "composition_reduced": null, "formula_pretty": "TiF6", "formula_anonymous": "AB6", "chemsys": null, "volume": 382.0166303815018, "density": 1.407114488875756, "density_atomic": 27.286902170107272, "symmetry": null, "property_name": null, "material_id": "mp-1209717", "deprecated": null, "deprecation_reasons": null, "last_updated": null, "origins": null, "warnings": null, "structure": {"@module": "pymatgen.core.structure", "@class": "Structure", "charge": 0, "lattice": {"matrix": [[-2.560019, -4.434083, 2.285511999999999], [-3.136255, 4.766773, -1.142755999999999], [3.2002800000000002, 5.543048, -17.488477]], "pbc": [true, true, true], "a": 5.606991567087826, "b": 5.819287888916477, "c": 18.6229428659445, "alpha": 70.39047442645806, "beta": 134.15728734753358, "gamma": 118.8003648751923, "volume": 382.01663038150184}, "properties": {}, "sites": [{"species": [{"element": "Ti", "occu": 1}], "abc": [0.0, 0.0, 0.0], "properties": {"magmom": 0.0}, "label": "Ti", "xyz": [0.0, 0.0, 0.0]}, {"species": [{"element": "Ti", "occu": 1}], "abc": [0.5, 0.0, 0.5], "properties": {"magmom": 0.0}, "label": "Ti", "xyz": [0.3201305000000001, 0.5544824999999998, -7.6014825]}, {"species": [{"element": "F", "occu": 1}], "abc": [0.700885, 0.64322, 0.751062], "properties": {"magmom": 0.0}, "label": "F", "xyz": [-1.4079721605549995, 4.121474182581, -12.268092948774001]}, {"species": [{"element": "F", "occu": 1}], "abc": [0.299114999999999, 0.35678000000000004, 0.248939], "properties": {"magmom": 0.0}, "label": "F", "xyz": [-1.0880186391649973, 1.7542693604670043, -4.077645539703002]}, {"species": [{"element": "F", "occu": 1}], "abc": [0.836631, 0.095229, 0.037377], "properties": {"magmom": -0.0}, "label": "F", "xyz": [-2.3208368178240004, -3.04857376326, 1.1496398741189993]}, {"species": [{"element": "F", "occu": 1}], "abc": [0.442336, 0.64322, 0.748938], "properties": {"magmom": 0.0}, "label": "F", "xyz": [-0.7528792028439999, 5.256128474195999, -12.821864265714]}, {"species": [{"element": "F", "occu": 1}], "abc": [0.163369, 0.904771, 0.962623], "properties": {"magmom": -0.0}, "label": "F", "xyz": [-0.17515718217599918, 8.92431176326, -17.495360874118997]}, {"species": [{"element": "F", "occu": 1}], "abc": [0.557663999999999, 0.35678000000000004, 0.251061], "properties": {"magmom": 0.0}, "label": "F", "xyz": [-1.743117997435998, 0.619603982756004, -3.5238392458090018]}, {"species": [{"element": "F", "occu": 1}], "abc": [0.883598, 0.204185999999999, 0.61033], "properties": {"magmom": -0.0}, "label": "F", "xyz": [-0.9491801393919965, 0.4384499269839952, -8.887603111850002]}, {"species": [{"element": "F", "occu": 1}], "abc": [0.758598, 0.095229, 0.462623], "properties": {"magmom": -0.0}, "label": "F", "xyz": [-0.7601645863169997, -0.34540997471300017, -6.465610374119001]}, {"species": [{"element": "F", "occu": 1}], "abc": [0.116401999999999, 0.795813999999999, 0.38967], "properties": {"magmom": -0.0}, "label": "F", "xyz": [-1.546813860607994, 5.437288073015999, -7.45811788815]}, {"species": [{"element": "F", "occu": 1}], "abc": [0.241401999999999, 0.904771, 0.537377], "properties": {"magmom": -0.0}, "label": "F", "xyz": [-1.7358294136829968, 6.221147974713004, -9.880110625881]}, {"species": [{"element": "F", "occu": 1}], "abc": [0.820589, 0.204185999999999, 0.8896700000000001], "properties": {"magmom": -0.0}, "label": "F", "xyz": [0.10609031297900318, 2.266232091050995, -13.916842102638]}, {"species": [{"element": "F", "occu": 1}], "abc": [0.179411, 0.795813999999999, 0.11033000000000001], "properties": {"magmom": -0.0}, "label": "F", "xyz": [-2.6020843129789966, 3.6095059089489947, -2.4288788973619986]}]}, "task_ids": null, "uncorrected_energy_per_atom": null, "energy_per_atom": -5.147668167142856, "formation_energy_per_atom": -2.379295843333333, "energy_above_hull": 0.25369398428571505, "is_stable": false, "equilibrium_reaction_energy_per_atom": null, "decomposes_to": null, "xas": null, "grain_boundaries": null, "band_gap": 2.9814, "cbm": null, "vbm": null, "efermi": -2.99166769, "is_gap_direct": null, "is_metal": null, "es_source_calc_id": null, "bandstructure": null, "dos": null, "dos_energy_up": null, "dos_energy_down": null, "is_magnetic": null, "ordering": null, "total_magnetization": 0.0005704999999990001, "total_magnetization_normalized_vol": null, "total_magnetization_normalized_formula_units": null, "num_magnetic_sites": null, "num_unique_magnetic_sites": null, "types_of_magnetic_species": null, "bulk_modulus": null, "shear_modulus": null, "universal_anisotropy": null, "homogeneous_poisson": null, "e_total": null, "e_ionic": null, "e_electronic": null, "n": null, "e_ij_max": null, "weighted_surface_energy_EV_PER_ANG2": null, "weighted_surface_energy": null, "weighted_work_function": null, "surface_anisotropy": null, "shape_factor": null, "has_reconstructed": null, "possible_species": null, "has_props": null, "theoretical": null, "database_IDs": null, "fields_not_requested": ["builder_meta", "nsites", "elements", "nelements", "composition", "composition_reduced", "chemsys", "symmetry", "property_name", "deprecated", "deprecation_reasons", "last_updated", "origins", "warnings", "task_ids", "uncorrected_energy_per_atom", "equilibrium_reaction_energy_per_atom", "decomposes_to", "xas", "grain_boundaries", "cbm", "vbm", "is_gap_direct", "is_metal", "es_source_calc_id", "bandstructure", "dos", "dos_energy_up", "dos_energy_down", "is_magnetic", "ordering", "total_magnetization_normalized_vol", "total_magnetization_normalized_formula_units", "num_magnetic_sites", "num_unique_magnetic_sites", "types_of_magnetic_species", "bulk_modulus", "shear_modulus", "universal_anisotropy", "homogeneous_poisson", "e_total", "e_ionic", "e_electronic", "n", "e_ij_max", "weighted_surface_energy_EV_PER_ANG2", "weighted_surface_energy", "weighted_work_function", "surface_anisotropy", "shape_factor", "has_reconstructed", "possible_species", "has_props", "theoretical", "database_IDs"]}