{
  "builder_meta": null,
  "nsites": null,
  "elements": null,
  "nelements": null,
  "composition": null,
  "composition_reduced": null,
  "formula_pretty": "TiFe2",
  "formula_anonymous": "AB2",
  "chemsys": null,
  "volume": 159.38119055127652,
  "density": 6.649483064672066,
  "density_atomic": 13.281765879273044,
  "symmetry": null,
  "property_name": null,
  "material_id": "mp-2454",
  "deprecated": null,
  "deprecation_reasons": null,
  "last_updated": null,
  "origins": null,
  "warnings": null,
  "structure": {
    "@module": "pymatgen.core.structure",
    "@class": "Structure",
    "charge": 0,
    "lattice": {
      "matrix": [
        [2.42281189, -4.19629351, -1.7000000000000001e-7],
        [2.42281185, 4.19629348, -3.1e-7],
        [-7.699999999999999e-7, -1.3e-7, 7.83829352]
      ],
      "pbc": [true, true, true],
      "a": 4.845502726899813,
      "b": 4.845502680918774,
      "c": 7.838293520000039,
      "alpha": 90.00000730286466,
      "beta": 90.00000400153829,
      "gamma": 119.9983473919772,
      "volume": 159.38119055127652
    },
    "properties": {},
    "sites": [
      {
        "species": [{ "element": "Ti", "occu": 1 }],
        "abc": [0.33333175, 0.66666784, 0.43965602000000004],
        "properties": { "magmom": -1.109 },
        "label": "Ti",
        "xyz": [2.422810531445276, 1.398775993960458, 3.4461526692615627]
      },
      {
        "species": [{ "element": "Ti", "occu": 1 }],
        "abc": [0.66666822, 0.33333188, 0.9396388],
        "properties": { "magmom": -1.109 },
        "label": "Ti",
        "xyz": [2.422811395426038, -1.398777252342154, 7.365164500514095]
      },
      {
        "species": [{ "element": "Ti", "occu": 1 }],
        "abc": [0.66666808, 0.33333166000000003, 0.56034756],
        "properties": { "magmom": -1.109 },
        "label": "Ti",
        "xyz": [2.4228108152680212, -1.398777538737767, 4.392168431829423]
      },
      {
        "species": [{ "element": "Ti", "occu": 1 }],
        "abc": [0.33333186, 0.66666802, 0.06035991],
        "properties": { "magmom": -1.109 },
        "label": "Ti",
        "xyz": [2.422811526118722, 1.3987763370094926, 0.47311842808728083]
      },
      {
        "species": [{ "element": "Fe", "occu": 1 }],
        "abc": [0.6620934900000001, 0.8310497800000001, 0.74997365],
        "properties": { "magmom": 2.489 },
        "label": "Fe",
        "xyz": [3.6176046573077785, 0.7089900607726095, 5.8785132307844234]
      },
      {
        "species": [{ "element": "Fe", "occu": 1 }],
        "abc": [0.33792758, 0.16895939000000001, 0.25002623],
        "properties": { "magmom": 2.489 },
        "label": "Fe",
        "xyz": [1.2280915785235007, -0.7090401566656385, 1.9597788686139301]
      },
      {
        "species": [{ "element": "Fe", "occu": 1 }],
        "abc": [0.8310331, 0.16896911, 0.25002634],
        "properties": { "magmom": 2.489 },
        "label": "Fe",
        "xyz": [2.4228170451352304, -2.778214862014203, 1.9597796469952655]
      },
      {
        "species": [{ "element": "Fe", "occu": 1 }],
        "abc": [0.16894926, 0.33790647, 0.74997381],
        "properties": { "magmom": 2.489 },
        "label": "Fe",
        "xyz": [1.2280154981625373, 0.7089939361569175, 5.878514721620331]
      },
      {
        "species": [{ "element": "Fe", "occu": 1 }],
        "abc": [0.16895811, 0.83104275, 0.7499737],
        "properties": { "magmom": 2.489 },
        "label": "Fe",
        "xyz": [2.4228133628967665, 2.7783013554748224, 5.878513706534292]
      },
      {
        "species": [{ "element": "Fe", "occu": 1 }],
        "abc": [0.83103941, 0.6620723, 0.25002611],
        "properties": { "magmom": 2.489 },
        "label": "Fe",
        "xyz": [3.6175285850832353, -0.7090356394620204, 1.9597776913246945]
      },
      {
        "species": [{ "element": "Fe", "occu": 1 }],
        "abc": [9e-8, -1.6e-7, 0.50000455],
        "properties": { "magmom": 2.533 },
        "label": "Fe",
        "xyz": [-5.546003294e-7, -1.1140739642e-6, 3.91918242423555]
      },
      {
        "species": [{ "element": "Fe", "occu": 1 }],
        "abc": [3.0000000000000004e-8, -5e-8, -4.69e-6],
        "properties": { "magmom": 2.534 },
        "label": "Fe",
        "xyz": [
          -4.845262449999997e-8, -3.3570286959999997e-7, -3.67615965984e-5
        ]
      }
    ]
  },
  "task_ids": null,
  "uncorrected_energy_per_atom": null,
  "energy_per_atom": -8.561896716666666,
  "formation_energy_per_atom": -0.283385237777777,
  "energy_above_hull": 0.0,
  "is_stable": true,
  "equilibrium_reaction_energy_per_atom": null,
  "decomposes_to": null,
  "xas": null,
  "grain_boundaries": null,
  "band_gap": 0.0,
  "cbm": null,
  "vbm": null,
  "efermi": 5.78954006,
  "is_gap_direct": null,
  "is_metal": null,
  "es_source_calc_id": null,
  "bandstructure": null,
  "dos": null,
  "dos_energy_up": null,
  "dos_energy_down": null,
  "is_magnetic": null,
  "ordering": null,
  "total_magnetization": 13.676235,
  "total_magnetization_normalized_vol": null,
  "total_magnetization_normalized_formula_units": null,
  "num_magnetic_sites": null,
  "num_unique_magnetic_sites": null,
  "types_of_magnetic_species": null,
  "bulk_modulus": null,
  "shear_modulus": null,
  "universal_anisotropy": null,
  "homogeneous_poisson": null,
  "e_total": null,
  "e_ionic": null,
  "e_electronic": null,
  "n": null,
  "e_ij_max": null,
  "weighted_surface_energy_EV_PER_ANG2": null,
  "weighted_surface_energy": null,
  "weighted_work_function": null,
  "surface_anisotropy": null,
  "shape_factor": null,
  "has_reconstructed": null,
  "possible_species": null,
  "has_props": null,
  "theoretical": null,
  "database_IDs": null,
  "fields_not_requested": [
    "builder_meta",
    "nsites",
    "elements",
    "nelements",
    "composition",
    "composition_reduced",
    "chemsys",
    "symmetry",
    "property_name",
    "deprecated",
    "deprecation_reasons",
    "last_updated",
    "origins",
    "warnings",
    "task_ids",
    "uncorrected_energy_per_atom",
    "equilibrium_reaction_energy_per_atom",
    "decomposes_to",
    "xas",
    "grain_boundaries",
    "cbm",
    "vbm",
    "is_gap_direct",
    "is_metal",
    "es_source_calc_id",
    "bandstructure",
    "dos",
    "dos_energy_up",
    "dos_energy_down",
    "is_magnetic",
    "ordering",
    "total_magnetization_normalized_vol",
    "total_magnetization_normalized_formula_units",
    "num_magnetic_sites",
    "num_unique_magnetic_sites",
    "types_of_magnetic_species",
    "bulk_modulus",
    "shear_modulus",
    "universal_anisotropy",
    "homogeneous_poisson",
    "e_total",
    "e_ionic",
    "e_electronic",
    "n",
    "e_ij_max",
    "weighted_surface_energy_EV_PER_ANG2",
    "weighted_surface_energy",
    "weighted_work_function",
    "surface_anisotropy",
    "shape_factor",
    "has_reconstructed",
    "possible_species",
    "has_props",
    "theoretical",
    "database_IDs"
  ]
}
