{
  "builder_meta": null,
  "nsites": null,
  "elements": null,
  "nelements": null,
  "composition": null,
  "composition_reduced": null,
  "formula_pretty": "TiFe4",
  "formula_anonymous": "AB4",
  "chemsys": null,
  "volume": 60.10954522403789,
  "density": 7.493256495607756,
  "density_atomic": 12.021909044807577,
  "symmetry": null,
  "property_name": null,
  "material_id": "mp-1216986",
  "deprecated": null,
  "deprecation_reasons": null,
  "last_updated": null,
  "origins": null,
  "warnings": null,
  "structure": {
    "@module": "pymatgen.core.structure",
    "@class": "Structure",
    "charge": 0,
    "lattice": {
      "matrix": [
        [-1.787949, -1.259546, 1.259546],
        [-1.787949, 1.259546, -1.259546],
        [-1.787949, -6.6728950000000005, -6.6728950000000005]
      ],
      "pbc": [true, true, true],
      "a": 2.523821285042386,
      "b": 2.523821285042386,
      "c": 9.604780944334495,
      "alpha": 82.42201499961716,
      "beta": 82.42201499961716,
      "gamma": 89.78547226841478,
      "volume": 60.109545224037895
    },
    "properties": {},
    "sites": [
      {
        "species": [{ "element": "Ti", "occu": 1 }],
        "abc": [0.0, 0.0, 0.0],
        "properties": { "magmom": -0.431 },
        "label": "Ti",
        "xyz": [0.0, 0.0, 0.0]
      },
      {
        "species": [{ "element": "Fe", "occu": 1 }],
        "abc": [0.390908, 0.390908, 0.218183],
        "properties": { "magmom": 1.461 },
        "label": "Fe",
        "xyz": [-1.7879472120509998, -1.4559122497850001, -1.4559122497850001]
      },
      {
        "species": [{ "element": "Fe", "occu": 1 }],
        "abc": [0.799752999999999, 0.799752999999999, 0.400495],
        "properties": { "magmom": 1.42 },
        "label": "Fe",
        "xyz": [-3.5758997879489964, -2.672461083025, -2.672461083025]
      },
      {
        "species": [{ "element": "Fe", "occu": 1 }],
        "abc": [0.200246999999999, 0.200246999999999, 0.599505],
        "properties": { "magmom": 1.2570000000000001 },
        "label": "Fe",
        "xyz": [-1.7879472120509963, -4.000433916975, -4.000433916975]
      },
      {
        "species": [{ "element": "Fe", "occu": 1 }],
        "abc": [0.609092, 0.609092, 0.781817],
        "properties": { "magmom": 1.401 },
        "label": "Fe",
        "xyz": [-3.575899787949, -5.216982750215, -5.216982750215]
      }
    ]
  },
  "task_ids": null,
  "uncorrected_energy_per_atom": null,
  "energy_per_atom": -8.229247458,
  "formation_energy_per_atom": 0.125867913333333,
  "energy_above_hull": 0.29589905599999905,
  "is_stable": false,
  "equilibrium_reaction_energy_per_atom": null,
  "decomposes_to": null,
  "xas": null,
  "grain_boundaries": null,
  "band_gap": 0.0,
  "cbm": null,
  "vbm": null,
  "efermi": 5.71608603,
  "is_gap_direct": null,
  "is_metal": null,
  "es_source_calc_id": null,
  "bandstructure": null,
  "dos": null,
  "dos_energy_up": null,
  "dos_energy_down": null,
  "is_magnetic": null,
  "ordering": null,
  "total_magnetization": 5.0469171,
  "total_magnetization_normalized_vol": null,
  "total_magnetization_normalized_formula_units": null,
  "num_magnetic_sites": null,
  "num_unique_magnetic_sites": null,
  "types_of_magnetic_species": null,
  "bulk_modulus": null,
  "shear_modulus": null,
  "universal_anisotropy": null,
  "homogeneous_poisson": null,
  "e_total": null,
  "e_ionic": null,
  "e_electronic": null,
  "n": null,
  "e_ij_max": null,
  "weighted_surface_energy_EV_PER_ANG2": null,
  "weighted_surface_energy": null,
  "weighted_work_function": null,
  "surface_anisotropy": null,
  "shape_factor": null,
  "has_reconstructed": null,
  "possible_species": null,
  "has_props": null,
  "theoretical": null,
  "database_IDs": null,
  "fields_not_requested": [
    "builder_meta",
    "nsites",
    "elements",
    "nelements",
    "composition",
    "composition_reduced",
    "chemsys",
    "symmetry",
    "property_name",
    "deprecated",
    "deprecation_reasons",
    "last_updated",
    "origins",
    "warnings",
    "task_ids",
    "uncorrected_energy_per_atom",
    "equilibrium_reaction_energy_per_atom",
    "decomposes_to",
    "xas",
    "grain_boundaries",
    "cbm",
    "vbm",
    "is_gap_direct",
    "is_metal",
    "es_source_calc_id",
    "bandstructure",
    "dos",
    "dos_energy_up",
    "dos_energy_down",
    "is_magnetic",
    "ordering",
    "total_magnetization_normalized_vol",
    "total_magnetization_normalized_formula_units",
    "num_magnetic_sites",
    "num_unique_magnetic_sites",
    "types_of_magnetic_species",
    "bulk_modulus",
    "shear_modulus",
    "universal_anisotropy",
    "homogeneous_poisson",
    "e_total",
    "e_ionic",
    "e_electronic",
    "n",
    "e_ij_max",
    "weighted_surface_energy_EV_PER_ANG2",
    "weighted_surface_energy",
    "weighted_work_function",
    "surface_anisotropy",
    "shape_factor",
    "has_reconstructed",
    "possible_species",
    "has_props",
    "theoretical",
    "database_IDs"
  ]
}
