{
  "builder_meta": null,
  "nsites": null,
  "elements": null,
  "nelements": null,
  "composition": null,
  "composition_reduced": null,
  "formula_pretty": "TiGa2",
  "formula_anonymous": "AB2",
  "chemsys": null,
  "volume": 184.79212474062666,
  "density": 6.732766444860586,
  "density_atomic": 15.399343728385555,
  "symmetry": null,
  "property_name": null,
  "material_id": "mp-571342",
  "deprecated": null,
  "deprecation_reasons": null,
  "last_updated": null,
  "origins": null,
  "warnings": null,
  "structure": {
    "@module": "pymatgen.core.structure",
    "@class": "Structure",
    "charge": 0,
    "lattice": {
      "matrix": [
        [3.85459891, -0.00014274, -0.6142747],
        [-0.09779986, 3.85329522, -0.6143039],
        [0.00165974, 0.00160992, 12.44096216]
      ],
      "pbc": [true, true, true],
      "a": 3.9032379103006245,
      "b": 3.9031805167896194,
      "c": 12.440962374878044,
      "alpha": 99.04795388847324,
      "beta": 99.04696009536646,
      "gamma": 90.00066907909087,
      "volume": 184.79212474062666
    },
    "properties": {},
    "sites": [
      {
        "species": [{ "element": "Ti", "occu": 1 }],
        "abc": [0.20100791, 0.45106324000000003, 0.90215668],
        "properties": { "magmom": -0.0 },
        "label": "Ti",
        "xyz": [0.732188294592295, 1.739503534822905, 10.823133137179715]
      },
      {
        "species": [{ "element": "Ti", "occu": 1 }],
        "abc": [0.04888799, 0.29894492, 0.59776024],
        "properties": { "magmom": 0.0 },
        "label": "Ti",
        "xyz": [0.1601989482231173, 1.1528783991731708, 7.223038840960478]
      },
      {
        "species": [{ "element": "Ti", "occu": 1 }],
        "abc": [0.95107628, 0.70102422, 0.4021745],
        "properties": { "magmom": 0.0 },
        "label": "Ti",
        "xyz": [3.5981250267468754, 2.701764988173061, 3.988573727302346]
      },
      {
        "species": [{ "element": "Ti", "occu": 1 }],
        "abc": [0.7990270700000001, 0.54897582, 0.09792131],
        "properties": { "magmom": -0.0 },
        "label": "Ti",
        "xyz": [3.026401638658168, 2.1154094954530036, 0.3901752114198025]
      },
      {
        "species": [{ "element": "Ga", "occu": 1 }],
        "abc": [0.463519299999999, 0.21351458, 0.42706752000000003],
        "properties": { "magmom": 0.0 },
        "label": "Ga",
        "xyz": [1.766508113557645, 0.8233560923112241, 4.897239837932473]
      },
      {
        "species": [{ "element": "Ga", "occu": 1 }],
        "abc": [0.53648404, 0.78648964, 0.57293424],
        "properties": { "magmom": 0.0 },
        "label": "Ga",
        "xyz": [1.9919631410084435, 3.031422570951312, 6.315160974120975]
      },
      {
        "species": [{ "element": "Ga", "occu": 1 }],
        "abc": [0.28652724, 0.03652403, 0.07301061],
        "properties": { "magmom": -0.0 },
        "label": "Ga",
        "xyz": [1.100996720598514, 0.14081451255715022, 0.7098789478229726]
      },
      {
        "species": [{ "element": "Ga", "occu": 1 }],
        "abc": [0.71347271, 0.96347682, 0.92698568],
        "properties": { "magmom": 0.0 },
        "label": "Ga",
        "xyz": [2.657461787384024, 3.7139511567781205, 10.502457964762833]
      },
      {
        "species": [{ "element": "Ga", "occu": 1 }],
        "abc": [0.12564389, 0.87548412, 0.7509393600000001],
        "properties": { "magmom": 0.0 },
        "label": "Ga",
        "xyz": [0.39993094116730316, 3.3746897926674992, 8.727414990073967]
      },
      {
        "species": [{ "element": "Ga", "occu": 1 }],
        "abc": [0.37557829, 0.6257403, 0.25110442],
        "properties": { "magmom": -0.0 },
        "label": "Ga",
        "xyz": [1.3869231215673568, 2.4115127549340976, 2.508877639335314]
      },
      {
        "species": [{ "element": "Ga", "occu": 1 }],
        "abc": [0.87435663, 0.12451274, 0.24905468],
        "properties": { "magmom": -0.0 },
        "label": "Ga",
        "xyz": [3.35853015042364, 0.4800604983161622, 2.484896031282962]
      },
      {
        "species": [{ "element": "Ga", "occu": 1 }],
        "abc": [0.62441965, 0.37424957000000003, 0.74889176],
        "properties": { "magmom": 0.0 },
        "label": "Ga",
        "xyz": [2.3715287123312634, 1.443210605329474, 8.703465884493623]
      }
    ]
  },
  "task_ids": null,
  "uncorrected_energy_per_atom": null,
  "energy_per_atom": -5.091967154166666,
  "formation_energy_per_atom": -0.44140580027777704,
  "energy_above_hull": 0.0,
  "is_stable": true,
  "equilibrium_reaction_energy_per_atom": null,
  "decomposes_to": null,
  "xas": null,
  "grain_boundaries": null,
  "band_gap": 0.0,
  "cbm": null,
  "vbm": null,
  "efermi": 5.350758499999999,
  "is_gap_direct": null,
  "is_metal": null,
  "es_source_calc_id": null,
  "bandstructure": null,
  "dos": null,
  "dos_energy_up": null,
  "dos_energy_down": null,
  "is_magnetic": null,
  "ordering": null,
  "total_magnetization": 0.0,
  "total_magnetization_normalized_vol": null,
  "total_magnetization_normalized_formula_units": null,
  "num_magnetic_sites": null,
  "num_unique_magnetic_sites": null,
  "types_of_magnetic_species": null,
  "bulk_modulus": null,
  "shear_modulus": null,
  "universal_anisotropy": null,
  "homogeneous_poisson": null,
  "e_total": null,
  "e_ionic": null,
  "e_electronic": null,
  "n": null,
  "e_ij_max": null,
  "weighted_surface_energy_EV_PER_ANG2": null,
  "weighted_surface_energy": null,
  "weighted_work_function": null,
  "surface_anisotropy": null,
  "shape_factor": null,
  "has_reconstructed": null,
  "possible_species": null,
  "has_props": null,
  "theoretical": null,
  "database_IDs": null,
  "fields_not_requested": [
    "builder_meta",
    "nsites",
    "elements",
    "nelements",
    "composition",
    "composition_reduced",
    "chemsys",
    "symmetry",
    "property_name",
    "deprecated",
    "deprecation_reasons",
    "last_updated",
    "origins",
    "warnings",
    "task_ids",
    "uncorrected_energy_per_atom",
    "equilibrium_reaction_energy_per_atom",
    "decomposes_to",
    "xas",
    "grain_boundaries",
    "cbm",
    "vbm",
    "is_gap_direct",
    "is_metal",
    "es_source_calc_id",
    "bandstructure",
    "dos",
    "dos_energy_up",
    "dos_energy_down",
    "is_magnetic",
    "ordering",
    "total_magnetization_normalized_vol",
    "total_magnetization_normalized_formula_units",
    "num_magnetic_sites",
    "num_unique_magnetic_sites",
    "types_of_magnetic_species",
    "bulk_modulus",
    "shear_modulus",
    "universal_anisotropy",
    "homogeneous_poisson",
    "e_total",
    "e_ionic",
    "e_electronic",
    "n",
    "e_ij_max",
    "weighted_surface_energy_EV_PER_ANG2",
    "weighted_surface_energy",
    "weighted_work_function",
    "surface_anisotropy",
    "shape_factor",
    "has_reconstructed",
    "possible_species",
    "has_props",
    "theoretical",
    "database_IDs"
  ]
}
