{"builder_meta": null, "nsites": null, "elements": null, "nelements": null, "composition": null, "composition_reduced": null, "formula_pretty": "TiGe2", "formula_anonymous": "AB2", "chemsys": null, "volume": 94.82055358469105, "density": 6.764949728122496, "density_atomic": 15.80342559744851, "symmetry": null, "property_name": null, "material_id": "mp-567889", "deprecated": null, "deprecation_reasons": null, "last_updated": null, "origins": null, "warnings": null, "structure": {"@module": "pymatgen.core.structure", "@class": "Structure", "charge": 0, "lattice": {"matrix": [[4.89422554, -0.03960475, -1.2398892400000001], [-2.91181065, 3.934001819999999, -1.23988923], [-0.02645859, -0.05197586, 4.98751798]], "pbc": [true, true, true], "a": 5.048993711629936, "b": 5.048993650608675, "c": 4.987858974332655, "alpha": 104.51389716911517, "beta": 104.51390907455799, "gamma": 120.32069633757555, "volume": 94.82055358469103}, "properties": {}, "sites": [{"species": [{"element": "Ti", "occu": 1}], "abc": [0.875, 0.125, 0.25], "properties": {"magmom": -0.0}, "label": "Ti", "xyz": [3.9118563687499996, 0.44410210624999985, 0.006990256249999938]}, {"species": [{"element": "Ti", "occu": 1}], "abc": [0.125, 0.875, 0.75], "properties": {"magmom": -0.0}, "label": "Ti", "xyz": [-1.95590006875, 3.398319103749999, 2.5007492537499996]}, {"species": [{"element": "Ge", "occu": 1}], "abc": [0.20762896, 0.45762896000000003, 0.91525593], "properties": {"magmom": 0.0}, "label": "Ge", "xyz": [-0.3405623019977244, 1.7445188543892969, 3.740009274920131]}, {"species": [{"element": "Ge", "occu": 1}], "abc": [0.79237104, 0.54237104, 0.08474407], "properties": {"magmom": 0.0}, "label": "Ge", "xyz": [2.296518601997724, 2.097902355610702, -1.2322697649201302]}, {"species": [{"element": "Ge", "occu": 1}], "abc": [0.45762896000000003, 0.20762896, 0.41525593], "properties": {"magmom": 0.0}, "label": "Ge", "xyz": [1.6241760405022754, 0.7771051418892971, 1.2462502824201298]}, {"species": [{"element": "Ge", "occu": 1}], "abc": [0.54237104, 0.79237104, 0.5847440700000001], "properties": {"magmom": 0.0}, "label": "Ge", "xyz": [0.3317802594977239, 3.065316068110702, 1.2614892275798697]}]}, "task_ids": null, "uncorrected_energy_per_atom": null, "energy_per_atom": -13.95344832, "formation_energy_per_atom": -0.392877595555556, "energy_above_hull": 0.046053947833332005, "is_stable": false, "equilibrium_reaction_energy_per_atom": null, "decomposes_to": null, "xas": null, "grain_boundaries": null, "band_gap": 0.0, "cbm": null, "vbm": null, "efermi": 7.46562905, "is_gap_direct": null, "is_metal": null, "es_source_calc_id": null, "bandstructure": null, "dos": null, "dos_energy_up": null, "dos_energy_down": null, "is_magnetic": null, "ordering": null, "total_magnetization": 0.0, "total_magnetization_normalized_vol": null, "total_magnetization_normalized_formula_units": null, "num_magnetic_sites": null, "num_unique_magnetic_sites": null, "types_of_magnetic_species": null, "bulk_modulus": null, "shear_modulus": null, "universal_anisotropy": null, "homogeneous_poisson": null, "e_total": null, "e_ionic": null, "e_electronic": null, "n": null, "e_ij_max": null, "weighted_surface_energy_EV_PER_ANG2": null, "weighted_surface_energy": null, "weighted_work_function": null, "surface_anisotropy": null, "shape_factor": null, "has_reconstructed": null, "possible_species": null, "has_props": null, "theoretical": null, "database_IDs": null, "fields_not_requested": ["builder_meta", "nsites", "elements", "nelements", "composition", "composition_reduced", "chemsys", "symmetry", "property_name", "deprecated", "deprecation_reasons", "last_updated", "origins", "warnings", "task_ids", "uncorrected_energy_per_atom", "equilibrium_reaction_energy_per_atom", "decomposes_to", "xas", "grain_boundaries", "cbm", "vbm", "is_gap_direct", "is_metal", "es_source_calc_id", "bandstructure", "dos", "dos_energy_up", "dos_energy_down", "is_magnetic", "ordering", "total_magnetization_normalized_vol", "total_magnetization_normalized_formula_units", "num_magnetic_sites", "num_unique_magnetic_sites", "types_of_magnetic_species", "bulk_modulus", "shear_modulus", "universal_anisotropy", "homogeneous_poisson", "e_total", "e_ionic", "e_electronic", "n", "e_ij_max", "weighted_surface_energy_EV_PER_ANG2", "weighted_surface_energy", "weighted_work_function", "surface_anisotropy", "shape_factor", "has_reconstructed", "possible_species", "has_props", "theoretical", "database_IDs"]}