{
  "builder_meta": null,
  "nsites": null,
  "elements": null,
  "nelements": null,
  "composition": null,
  "composition_reduced": null,
  "formula_pretty": "TiI3",
  "formula_anonymous": "AB3",
  "chemsys": null,
  "volume": 616.572048916698,
  "density": 4.616975519632068,
  "density_atomic": 38.535753057293626,
  "symmetry": null,
  "property_name": null,
  "material_id": "mp-23264",
  "deprecated": null,
  "deprecation_reasons": null,
  "last_updated": null,
  "origins": null,
  "warnings": null,
  "structure": {
    "@module": "pymatgen.core.structure",
    "@class": "Structure",
    "charge": 0,
    "lattice": {
      "matrix": [
        [6.47996123, -0.0, 0.0],
        [-0.0, 7.39211074, 0.0],
        [0.0, 0.0, 12.87190901]
      ],
      "pbc": [true, true, true],
      "a": 6.47996123,
      "b": 7.39211074,
      "c": 12.87190901,
      "alpha": 90.0,
      "beta": 90.0,
      "gamma": 90.0,
      "volume": 616.572048916698
    },
    "properties": {},
    "sites": [
      {
        "species": [{ "element": "Ti", "occu": 1 }],
        "abc": [0.97242803, 0.24858801, 0.75],
        "properties": { "magmom": 0.0 },
        "label": "Ti",
        "xyz": [6.301295933365276, 1.8375900985562272, 9.6539317575]
      },
      {
        "species": [{ "element": "Ti", "occu": 1 }],
        "abc": [0.47242803, 0.75141199, 0.25],
        "properties": { "magmom": 0.0 },
        "label": "Ti",
        "xyz": [3.061315318365277, 5.554520641443773, 3.2179772525]
      },
      {
        "species": [{ "element": "Ti", "occu": 1 }],
        "abc": [0.52757197, 0.24858801, 0.75],
        "properties": { "magmom": 0.0 },
        "label": "Ti",
        "xyz": [3.418645911634723, 1.8375900985562272, 9.6539317575]
      },
      {
        "species": [{ "element": "Ti", "occu": 1 }],
        "abc": [0.02757197, 0.75141199, 0.25],
        "properties": { "magmom": 0.0 },
        "label": "Ti",
        "xyz": [0.1786652966347231, 5.554520641443773, 3.2179772525]
      },
      {
        "species": [{ "element": "I", "occu": 1 }],
        "abc": [0.75, 0.40342359, 0.59190928],
        "properties": { "magmom": -0.004 },
        "label": "I",
        "xyz": [4.8599709225, 2.9821518524083563, 7.619002394334612]
      },
      {
        "species": [{ "element": "I", "occu": 1 }],
        "abc": [0.25, 0.5965764100000001, 0.40809072],
        "properties": { "magmom": -0.004 },
        "label": "I",
        "xyz": [1.6199903075, 4.409958887591643, 5.252906615665387]
      },
      {
        "species": [{ "element": "I", "occu": 1 }],
        "abc": [0.75, 0.40342359, 0.90809072],
        "properties": { "magmom": -0.004 },
        "label": "I",
        "xyz": [4.8599709225, 2.9821518524083563, 11.688861120665386]
      },
      {
        "species": [{ "element": "I", "occu": 1 }],
        "abc": [0.25, 0.5965764100000001, 0.09190928],
        "properties": { "magmom": -0.004 },
        "label": "I",
        "xyz": [1.6199903075, 4.409958887591643, 1.1830478893346128]
      },
      {
        "species": [{ "element": "I", "occu": 1 }],
        "abc": [0.75, 0.90144103, 0.10079878],
        "properties": { "magmom": 0.001 },
        "label": "I",
        "xyz": [4.8599709225, 6.663551919339662, 1.2974727244790079]
      },
      {
        "species": [{ "element": "I", "occu": 1 }],
        "abc": [0.25, 0.09855897, 0.89920122],
        "properties": { "magmom": 0.001 },
        "label": "I",
        "xyz": [1.6199903075, 0.7285588206603377, 11.574436285520992]
      },
      {
        "species": [{ "element": "I", "occu": 1 }],
        "abc": [0.75, 0.90144103, 0.39920122],
        "properties": { "magmom": 0.001 },
        "label": "I",
        "xyz": [4.8599709225, 6.663551919339662, 5.138481780520992]
      },
      {
        "species": [{ "element": "I", "occu": 1 }],
        "abc": [0.25, 0.09855897, 0.60079878],
        "properties": { "magmom": 0.001 },
        "label": "I",
        "xyz": [1.6199903075, 0.7285588206603377, 7.733427229479007]
      },
      {
        "species": [{ "element": "I", "occu": 1 }],
        "abc": [0.75, 0.93364716, 0.75],
        "properties": { "magmom": 0.007 },
        "label": "I",
        "xyz": [4.8599709225, 6.901623198806498, 9.6539317575]
      },
      {
        "species": [{ "element": "I", "occu": 1 }],
        "abc": [0.25, 0.06635284, 0.25],
        "properties": { "magmom": 0.007 },
        "label": "I",
        "xyz": [1.6199903075, 0.4904875411935016, 3.2179772525]
      },
      {
        "species": [{ "element": "I", "occu": 1 }],
        "abc": [0.75, 0.45010436000000004, 0.25],
        "properties": { "magmom": -0.002 },
        "label": "I",
        "xyz": [4.8599709225, 3.3272212736768267, 3.2179772525]
      },
      {
        "species": [{ "element": "I", "occu": 1 }],
        "abc": [0.25, 0.54989564, 0.75],
        "properties": { "magmom": -0.002 },
        "label": "I",
        "xyz": [1.6199903075, 4.064889466323174, 9.6539317575]
      }
    ]
  },
  "task_ids": null,
  "uncorrected_energy_per_atom": null,
  "energy_per_atom": -4.205900332500001,
  "formation_energy_per_atom": -1.089017867083334,
  "energy_above_hull": 0.0,
  "is_stable": true,
  "equilibrium_reaction_energy_per_atom": null,
  "decomposes_to": null,
  "xas": null,
  "grain_boundaries": null,
  "band_gap": 0.180899999999999,
  "cbm": null,
  "vbm": null,
  "efermi": 3.0097426,
  "is_gap_direct": null,
  "is_metal": null,
  "es_source_calc_id": null,
  "bandstructure": null,
  "dos": null,
  "dos_energy_up": null,
  "dos_energy_down": null,
  "is_magnetic": null,
  "ordering": null,
  "total_magnetization": 1e-7,
  "total_magnetization_normalized_vol": null,
  "total_magnetization_normalized_formula_units": null,
  "num_magnetic_sites": null,
  "num_unique_magnetic_sites": null,
  "types_of_magnetic_species": null,
  "bulk_modulus": null,
  "shear_modulus": null,
  "universal_anisotropy": null,
  "homogeneous_poisson": null,
  "e_total": null,
  "e_ionic": null,
  "e_electronic": null,
  "n": null,
  "e_ij_max": null,
  "weighted_surface_energy_EV_PER_ANG2": null,
  "weighted_surface_energy": null,
  "weighted_work_function": null,
  "surface_anisotropy": null,
  "shape_factor": null,
  "has_reconstructed": null,
  "possible_species": null,
  "has_props": null,
  "theoretical": null,
  "database_IDs": null,
  "fields_not_requested": [
    "builder_meta",
    "nsites",
    "elements",
    "nelements",
    "composition",
    "composition_reduced",
    "chemsys",
    "symmetry",
    "property_name",
    "deprecated",
    "deprecation_reasons",
    "last_updated",
    "origins",
    "warnings",
    "task_ids",
    "uncorrected_energy_per_atom",
    "equilibrium_reaction_energy_per_atom",
    "decomposes_to",
    "xas",
    "grain_boundaries",
    "cbm",
    "vbm",
    "is_gap_direct",
    "is_metal",
    "es_source_calc_id",
    "bandstructure",
    "dos",
    "dos_energy_up",
    "dos_energy_down",
    "is_magnetic",
    "ordering",
    "total_magnetization_normalized_vol",
    "total_magnetization_normalized_formula_units",
    "num_magnetic_sites",
    "num_unique_magnetic_sites",
    "types_of_magnetic_species",
    "bulk_modulus",
    "shear_modulus",
    "universal_anisotropy",
    "homogeneous_poisson",
    "e_total",
    "e_ionic",
    "e_electronic",
    "n",
    "e_ij_max",
    "weighted_surface_energy_EV_PER_ANG2",
    "weighted_surface_energy",
    "weighted_work_function",
    "surface_anisotropy",
    "shape_factor",
    "has_reconstructed",
    "possible_species",
    "has_props",
    "theoretical",
    "database_IDs"
  ]
}
