{"builder_meta": null, "nsites": null, "elements": null, "nelements": null, "composition": null, "composition_reduced": null, "formula_pretty": "TiI4", "formula_anonymous": "AB4", "chemsys": null, "volume": 403.0048734279414, "density": 4.577633696087508, "density_atomic": 40.30048734279414, "symmetry": null, "property_name": null, "material_id": "mp-541013", "deprecated": null, "deprecation_reasons": null, "last_updated": null, "origins": null, "warnings": null, "structure": {"@module": "pymatgen.core.structure", "@class": "Structure", "charge": 0, "lattice": {"matrix": [[6.95922942, 0.0074757700000000005, 0.07961195], [0.04920573, 7.17811668, 3.71257272], [0.0069091, 0.0267703, 8.08147202]], "pbc": [true, true, true], "a": 6.959688791168283, "b": 8.08152067848912, "c": 8.081519312274628, "alpha": 62.46210870045423, "beta": 89.29539479867995, "gamma": 89.29539779074733, "volume": 403.0048734279414}, "properties": {}, "sites": [{"species": [{"element": "Ti", "occu": 1}], "abc": [0.75, 0.34262101, 0.65737899], "properties": {"magmom": -0.0}, "label": "Ti", "xyz": [5.240822879090197, 2.4825786470754436, 6.644304291745707]}, {"species": [{"element": "Ti", "occu": 1}], "abc": [0.25, 0.65737899, 0.34262101], "properties": {"magmom": -0.0}, "label": "Ti", "xyz": [1.7745213709098038, 4.7297841029245555, 5.229352398254293]}, {"species": [{"element": "I", "occu": 1}], "abc": [0.92839375, 0.49752678, 0.28081148], "properties": {"magmom": 0.0}, "label": "I", "xyz": [6.487326421345043, 3.585763143972172, 4.190385706217544]}, {"species": [{"element": "I", "occu": 1}], "abc": [0.57160625, 0.71918852, 0.50247322], "properties": {"magmom": 0.0}, "label": "I", "xyz": [4.016798865514397, 5.180143667173442, 6.776269636313167]}, {"species": [{"element": "I", "occu": 1}], "abc": [0.07160625, 0.50247322, 0.71918852], "properties": {"magmom": 0.0}, "label": "I", "xyz": [0.5280178286549576, 3.6265996060278285, 7.683270983782457]}, {"species": [{"element": "I", "occu": 1}], "abc": [0.42839375, 0.28081148, 0.49752678], "properties": {"magmom": 0.0}, "label": "I", "xyz": [2.9985453844856034, 2.032219082826558, 5.097387053686834]}, {"species": [{"element": "I", "occu": 1}], "abc": [0.60594989, 0.26349464, 0.98214578], "properties": {"magmom": 0.0}, "label": "I", "xyz": [4.236695491054649, 1.9222175496580944, 8.963667505306482]}, {"species": [{"element": "I", "occu": 1}], "abc": [0.89405011, 0.01785422, 0.73650536], "properties": {"magmom": 0.0}, "label": "I", "xyz": [6.227866947577692, 0.1545598568200323, 6.089509622183719]}, {"species": [{"element": "I", "occu": 1}], "abc": [0.39405011, 0.73650536, 0.01785422], "properties": {"magmom": 0.0}, "label": "I", "xyz": [2.778648758945351, 5.290145200341906, 2.9099891846935177]}, {"species": [{"element": "I", "occu": 1}], "abc": [0.10594989, 0.98214578, 0.26349464], "properties": {"magmom": 0.0}, "label": "I", "xyz": [0.7874773024223072, 7.057802893179967, 5.78414706781628]}]}, "task_ids": null, "uncorrected_energy_per_atom": null, "energy_per_atom": -3.829497920999998, "formation_energy_per_atom": -1.031189425666664, "energy_above_hull": 0.0, "is_stable": true, "equilibrium_reaction_energy_per_atom": null, "decomposes_to": null, "xas": null, "grain_boundaries": null, "band_gap": 1.0859, "cbm": null, "vbm": null, "efermi": 1.73853261, "is_gap_direct": null, "is_metal": null, "es_source_calc_id": null, "bandstructure": null, "dos": null, "dos_energy_up": null, "dos_energy_down": null, "is_magnetic": null, "ordering": null, "total_magnetization": 0.0, "total_magnetization_normalized_vol": null, "total_magnetization_normalized_formula_units": null, "num_magnetic_sites": null, "num_unique_magnetic_sites": null, "types_of_magnetic_species": null, "bulk_modulus": null, "shear_modulus": null, "universal_anisotropy": null, "homogeneous_poisson": null, "e_total": null, "e_ionic": null, "e_electronic": null, "n": null, "e_ij_max": null, "weighted_surface_energy_EV_PER_ANG2": null, "weighted_surface_energy": null, "weighted_work_function": null, "surface_anisotropy": null, "shape_factor": null, "has_reconstructed": null, "possible_species": null, "has_props": null, "theoretical": null, "database_IDs": null, "fields_not_requested": ["builder_meta", "nsites", "elements", "nelements", "composition", "composition_reduced", "chemsys", "symmetry", "property_name", "deprecated", "deprecation_reasons", "last_updated", "origins", "warnings", "task_ids", "uncorrected_energy_per_atom", "equilibrium_reaction_energy_per_atom", "decomposes_to", "xas", "grain_boundaries", "cbm", "vbm", "is_gap_direct", "is_metal", "es_source_calc_id", "bandstructure", "dos", "dos_energy_up", "dos_energy_down", "is_magnetic", "ordering", "total_magnetization_normalized_vol", "total_magnetization_normalized_formula_units", "num_magnetic_sites", "num_unique_magnetic_sites", "types_of_magnetic_species", "bulk_modulus", "shear_modulus", "universal_anisotropy", "homogeneous_poisson", "e_total", "e_ionic", "e_electronic", "n", "e_ij_max", "weighted_surface_energy_EV_PER_ANG2", "weighted_surface_energy", "weighted_work_function", "surface_anisotropy", "shape_factor", "has_reconstructed", "possible_species", "has_props", "theoretical", "database_IDs"]}