{"builder_meta": null, "nsites": null, "elements": null, "nelements": null, "composition": null, "composition_reduced": null, "formula_pretty": "TiMn2", "formula_anonymous": "AB2", "chemsys": null, "volume": 173.04280572048526, "density": 6.054884797795227, "density_atomic": 14.420233810040438, "symmetry": null, "property_name": null, "material_id": "mp-1949", "deprecated": null, "deprecation_reasons": null, "last_updated": null, "origins": null, "warnings": null, "structure": {"@module": "pymatgen.core.structure", "@class": "Structure", "charge": 0, "lattice": {"matrix": [[5.08580698, -6.37e-06, 2.18e-06], [-2.54290865, 4.40445823, -1.09e-06], [3.56e-06, -0.0, 7.72505345]], "pbc": [true, true, true], "a": 5.085806980004456, "b": 5.0858270420906715, "c": 7.7250534500008206, "alpha": 90.00002548171165, "beta": 89.99994903642924, "gamma": 120.00000839782949, "volume": 173.04280572048526}, "properties": {}, "sites": [{"species": [{"element": "Ti", "occu": 1}], "abc": [0.333333999999999, 0.666667, 0.43927214000000003], "properties": {"magmom": -1.029}, "label": "Ti", "xyz": [6.667105833690758e-07, 2.9363048314818303, 3.393400760596973]}, {"species": [{"element": "Ti", "occu": 1}], "abc": [0.666667, 0.333333, 0.9393021300000001], "properties": {"magmom": -1.03}, "label": "Ti", "xyz": [2.5429076568207925, 1.4681470285118001, 7.256160249949939]}, {"species": [{"element": "Ti", "occu": 1}], "abc": [0.666666, 0.333333, 0.56072786], "properties": {"magmom": -1.029}, "label": "Ti", "xyz": [2.5429012232894115, 1.4681470285181701, 4.331653779403027]}, {"species": [{"element": "Ti", "occu": 1}], "abc": [0.333333, 0.666667, 0.06069787], "properties": {"magmom": -1.03}, "label": "Ti", "xyz": [-5.7668207929445515e-06, 2.9363048314882003, 0.4688942900500615]}, {"species": [{"element": "Mn", "occu": 1}], "abc": [0.6585594, 0.829280199999999, 0.7497944], "properties": {"magmom": 3.018}, "label": "Mn", "xyz": [1.2405248686789485, 3.652525806842664, 5.7922023482547536]}, {"species": [{"element": "Mn", "occu": 1}], "abc": [0.3414406, 0.1707198, 0.2502056], "properties": {"magmom": 3.018}, "label": "Mn", "xyz": [1.302377021321054, 0.7519260531573321, 1.9328521917452457]}, {"species": [{"element": "Mn", "occu": 1}], "abc": [0.829280199999999, 0.1707178, 0.2502056], "properties": {"magmom": 3.018}, "label": "Mn", "xyz": [3.7834401499387575, 0.7519141367026201, 1.9328532552377538]}, {"species": [{"element": "Mn", "occu": 1}], "abc": [0.1707198, 0.3414406, 0.7497944], "properties": {"magmom": 3.018}, "label": "Mn", "xyz": [-1.6354689219827713e-06, 1.5038597732410122, 5.79220181650959]}, {"species": [{"element": "Mn", "occu": 1}], "abc": [0.1707198, 0.8292822, 0.7497944], "properties": {"magmom": 3.018}, "label": "Mn", "xyz": [-1.240538259938762, 3.6525377232973804, 5.792201284762246]}, {"species": [{"element": "Mn", "occu": 1}], "abc": [0.829280199999999, 0.6585594, 0.2502056], "properties": {"magmom": 3.018}, "label": "Mn", "xyz": [2.542903525468917, 2.9005920867589885, 1.9328527234904098]}, {"species": [{"element": "Mn", "occu": 1}], "abc": [0.0, 0.0, 0.5], "properties": {"magmom": -2.969999999999999}, "label": "Mn", "xyz": [1.78e-06, 0.0, 3.862526725]}, {"species": [{"element": "Mn", "occu": 1}], "abc": [0.0, 0.0, -0.0], "properties": {"magmom": -2.985999999999999}, "label": "Mn", "xyz": [0.0, 0.0, 0.0]}]}, "task_ids": null, "uncorrected_energy_per_atom": null, "energy_per_atom": -9.011999305833333, "formation_energy_per_atom": -0.272158438898467, "energy_above_hull": 0.0, "is_stable": true, "equilibrium_reaction_energy_per_atom": null, "decomposes_to": null, "xas": null, "grain_boundaries": null, "band_gap": 0.0, "cbm": null, "vbm": null, "efermi": 6.49755548, "is_gap_direct": null, "is_metal": null, "es_source_calc_id": null, "bandstructure": null, "dos": null, "dos_energy_up": null, "dos_energy_down": null, "is_magnetic": null, "ordering": null, "total_magnetization": 6.9115623, "total_magnetization_normalized_vol": null, "total_magnetization_normalized_formula_units": null, "num_magnetic_sites": null, "num_unique_magnetic_sites": null, "types_of_magnetic_species": null, "bulk_modulus": null, "shear_modulus": null, "universal_anisotropy": null, "homogeneous_poisson": null, "e_total": null, "e_ionic": null, "e_electronic": null, "n": null, "e_ij_max": null, "weighted_surface_energy_EV_PER_ANG2": null, "weighted_surface_energy": null, "weighted_work_function": null, "surface_anisotropy": null, "shape_factor": null, "has_reconstructed": null, "possible_species": null, "has_props": null, "theoretical": null, "database_IDs": null, "fields_not_requested": ["builder_meta", "nsites", "elements", "nelements", "composition", "composition_reduced", "chemsys", "symmetry", "property_name", "deprecated", "deprecation_reasons", "last_updated", "origins", "warnings", "task_ids", "uncorrected_energy_per_atom", "equilibrium_reaction_energy_per_atom", "decomposes_to", "xas", "grain_boundaries", "cbm", "vbm", "is_gap_direct", "is_metal", "es_source_calc_id", "bandstructure", "dos", "dos_energy_up", "dos_energy_down", "is_magnetic", "ordering", "total_magnetization_normalized_vol", "total_magnetization_normalized_formula_units", "num_magnetic_sites", "num_unique_magnetic_sites", "types_of_magnetic_species", "bulk_modulus", "shear_modulus", "universal_anisotropy", "homogeneous_poisson", "e_total", "e_ionic", "e_electronic", "n", "e_ij_max", "weighted_surface_energy_EV_PER_ANG2", "weighted_surface_energy", "weighted_work_function", "surface_anisotropy", "shape_factor", "has_reconstructed", "possible_species", "has_props", "theoretical", "database_IDs"]}