{"builder_meta": null, "nsites": null, "elements": null, "nelements": null, "composition": null, "composition_reduced": null, "formula_pretty": "TiN2", "formula_anonymous": "AB2", "chemsys": null, "volume": 50.32618346420951, "density": 5.007427939726197, "density_atomic": 8.387697244034918, "symmetry": null, "property_name": null, "material_id": "mp-1080172", "deprecated": null, "deprecation_reasons": null, "last_updated": null, "origins": null, "warnings": null, "structure": {"@module": "pymatgen.core.structure", "@class": "Structure", "charge": 0, "lattice": {"matrix": [[-2.174056, 2.174056, 2.661905], [2.174056, -2.174056, 2.661905], [2.174056, 2.174056, -2.661905]], "pbc": [true, true, true], "a": 4.066789545980589, "b": 4.066789545980589, "c": 4.066789545980589, "alpha": 115.36807986204788, "beta": 115.36807986204788, "gamma": 98.22937612678541, "volume": 50.32618346420951}, "properties": {}, "sites": [{"species": [{"element": "Ti", "occu": 1}], "abc": [0.25, 0.25, 0.0], "properties": {"magmom": -0.0}, "label": "Ti", "xyz": [0.0, 0.0, 1.3309525]}, {"species": [{"element": "Ti", "occu": 1}], "abc": [0.75, 0.75, 0.0], "properties": {"magmom": -0.0}, "label": "Ti", "xyz": [0.0, 0.0, 3.9928575]}, {"species": [{"element": "N", "occu": 1}], "abc": [0.112516999999999, 0.387482999999999, 0.5], "properties": {"magmom": -0.0}, "label": "N", "xyz": [1.684819482096, 0.489236517904, -5.329070518200751e-15]}, {"species": [{"element": "N", "occu": 1}], "abc": [0.887482999999999, 0.612517, 0.5], "properties": {"magmom": -0.0}, "label": "N", "xyz": [0.48923651790400213, 1.684819482095998, 2.661904999999997]}, {"species": [{"element": "N", "occu": 1}], "abc": [0.612517, 0.112516999999999, 0.725035], "properties": {"magmom": -0.0}, "label": "N", "xyz": [0.4892386919599978, 2.6632946919600027, -2.661905002865339e-06]}, {"species": [{"element": "N", "occu": 1}], "abc": [0.387482999999999, 0.887482999999999, 0.274965], "properties": {"magmom": -0.0}, "label": "N", "xyz": [1.6848173080400002, -0.48923869196, 2.6619076619049946]}]}, "task_ids": null, "uncorrected_energy_per_atom": null, "energy_per_atom": -11.417646250416666, "formation_energy_per_atom": -1.019226798472222, "energy_above_hull": 0.275884723333334, "is_stable": false, "equilibrium_reaction_energy_per_atom": null, "decomposes_to": null, "xas": null, "grain_boundaries": null, "band_gap": 0.0, "cbm": null, "vbm": null, "efermi": 8.26107102, "is_gap_direct": null, "is_metal": null, "es_source_calc_id": null, "bandstructure": null, "dos": null, "dos_energy_up": null, "dos_energy_down": null, "is_magnetic": null, "ordering": null, "total_magnetization": 2e-06, "total_magnetization_normalized_vol": null, "total_magnetization_normalized_formula_units": null, "num_magnetic_sites": null, "num_unique_magnetic_sites": null, "types_of_magnetic_species": null, "bulk_modulus": null, "shear_modulus": null, "universal_anisotropy": null, "homogeneous_poisson": null, "e_total": null, "e_ionic": null, "e_electronic": null, "n": null, "e_ij_max": null, "weighted_surface_energy_EV_PER_ANG2": null, "weighted_surface_energy": null, "weighted_work_function": null, "surface_anisotropy": null, "shape_factor": null, "has_reconstructed": null, "possible_species": null, "has_props": null, "theoretical": null, "database_IDs": null, "fields_not_requested": ["builder_meta", "nsites", "elements", "nelements", "composition", "composition_reduced", "chemsys", "symmetry", "property_name", "deprecated", "deprecation_reasons", "last_updated", "origins", "warnings", "task_ids", "uncorrected_energy_per_atom", "equilibrium_reaction_energy_per_atom", "decomposes_to", "xas", "grain_boundaries", "cbm", "vbm", "is_gap_direct", "is_metal", "es_source_calc_id", "bandstructure", "dos", "dos_energy_up", "dos_energy_down", "is_magnetic", "ordering", "total_magnetization_normalized_vol", "total_magnetization_normalized_formula_units", "num_magnetic_sites", "num_unique_magnetic_sites", "types_of_magnetic_species", "bulk_modulus", "shear_modulus", "universal_anisotropy", "homogeneous_poisson", "e_total", "e_ionic", "e_electronic", "n", "e_ij_max", "weighted_surface_energy_EV_PER_ANG2", "weighted_surface_energy", "weighted_work_function", "surface_anisotropy", "shape_factor", "has_reconstructed", "possible_species", "has_props", "theoretical", "database_IDs"]}