{
  "builder_meta": null,
  "nsites": null,
  "elements": null,
  "nelements": null,
  "composition": null,
  "composition_reduced": null,
  "formula_pretty": "TiNi3",
  "formula_anonymous": "AB3",
  "chemsys": null,
  "volume": 182.05723949689516,
  "density": 8.170464969881639,
  "density_atomic": 11.378577468555948,
  "symmetry": null,
  "property_name": null,
  "material_id": "mp-1409",
  "deprecated": null,
  "deprecation_reasons": null,
  "last_updated": null,
  "origins": null,
  "warnings": null,
  "structure": {
    "@module": "pymatgen.core.structure",
    "@class": "Structure",
    "charge": 0,
    "lattice": {
      "matrix": [
        [5.05360022, -1e-8, 0.0],
        [-2.52680162, 4.37654779, 0.0],
        [0.0, 0.0, 8.23143202]
      ],
      "pbc": [true, true, true],
      "a": 5.05360022,
      "b": 5.053602377016667,
      "c": 8.23143202,
      "alpha": 90.0,
      "beta": 90.0,
      "gamma": 120.00000576226928,
      "volume": 182.05723949689516
    },
    "properties": {},
    "sites": [
      {
        "species": [{ "element": "Ti", "occu": 1 }],
        "abc": [0.666667, 0.333333, 0.75],
        "properties": { "magmom": 0.0 },
        "label": "Ti",
        "xyz": [2.52680213346728, 1.4588477978174, 6.173574015]
      },
      {
        "species": [{ "element": "Ti", "occu": 1 }],
        "abc": [0.333333, 0.666667, 0.25],
        "properties": { "magmom": 0.0 },
        "label": "Ti",
        "xyz": [-3.533467280325553e-6, 2.9176999821826, 2.057858005]
      },
      {
        "species": [{ "element": "Ti", "occu": 1 }],
        "abc": [0.0, -0.0, 0.5],
        "properties": { "magmom": 0.0 },
        "label": "Ti",
        "xyz": [0.0, 0.0, 4.11571601]
      },
      {
        "species": [{ "element": "Ti", "occu": 1 }],
        "abc": [0.0, -0.0, 0.0],
        "properties": { "magmom": 0.0 },
        "label": "Ti",
        "xyz": [0.0, 0.0, 0.0]
      },
      {
        "species": [{ "element": "Ni", "occu": 1 }],
        "abc": [0.5, 0.5, 0.0],
        "properties": { "magmom": 0.0 },
        "label": "Ni",
        "xyz": [1.2633993, 2.18827389, 0.0]
      },
      {
        "species": [{ "element": "Ni", "occu": 1 }],
        "abc": [0.5, -0.0, 0.5],
        "properties": { "magmom": 0.0 },
        "label": "Ni",
        "xyz": [2.52680011, -5e-9, 4.11571601]
      },
      {
        "species": [{ "element": "Ni", "occu": 1 }],
        "abc": [0.82784972, 0.65569743, 0.25],
        "properties": { "magmom": -0.0 },
        "label": "Ni",
        "xyz": [2.5268041987651015, 2.8696911298966827, 2.057858005]
      },
      {
        "species": [{ "element": "Ni", "occu": 1 }],
        "abc": [0.17215028000000002, 0.82784972, 0.75],
        "properties": { "magmom": -0.0 },
        "label": "Ni",
        "xyz": [-1.221833320731485, 3.623123860796616, 6.173574015]
      },
      {
        "species": [{ "element": "Ni", "occu": 1 }],
        "abc": [0.65569743, 0.82784972, 0.75],
        "properties": { "magmom": -0.0 },
        "label": "Ni",
        "xyz": [1.221820662888888, 3.6231238559611443, 6.173574015]
      },
      {
        "species": [{ "element": "Ni", "occu": 1 }],
        "abc": [0.34430257000000003, 0.17215028000000002, 0.25],
        "properties": { "magmom": -0.0 },
        "label": "Ni",
        "xyz": [1.3049779371111119, 0.7534239240388555, 2.057858005]
      },
      {
        "species": [{ "element": "Ni", "occu": 1 }],
        "abc": [0.82784972, 0.17215028000000002, 0.25],
        "properties": { "magmom": -0.0 },
        "label": "Ni",
        "xyz": [3.7486319207314844, 0.753423919203384, 2.057858005]
      },
      {
        "species": [{ "element": "Ni", "occu": 1 }],
        "abc": [0.17215028000000002, 0.34430257000000003, 0.75],
        "properties": { "magmom": -0.0 },
        "label": "Ni",
        "xyz": [-5.598765101866299e-6, 1.5068566501033178, 6.173574015]
      },
      {
        "species": [{ "element": "Ni", "occu": 1 }],
        "abc": [0.0, 0.5, 0.0],
        "properties": { "magmom": 0.0 },
        "label": "Ni",
        "xyz": [-1.26340081, 2.188273895, 0.0]
      },
      {
        "species": [{ "element": "Ni", "occu": 1 }],
        "abc": [0.0, 0.5, 0.5],
        "properties": { "magmom": 0.0 },
        "label": "Ni",
        "xyz": [-1.26340081, 2.188273895, 4.11571601]
      },
      {
        "species": [{ "element": "Ni", "occu": 1 }],
        "abc": [0.5, 0.5, 0.5],
        "properties": { "magmom": 0.0 },
        "label": "Ni",
        "xyz": [1.2633993, 2.18827389, 4.11571601]
      },
      {
        "species": [{ "element": "Ni", "occu": 1 }],
        "abc": [0.5, -0.0, 0.0],
        "properties": { "magmom": 0.0 },
        "label": "Ni",
        "xyz": [2.52680011, -5e-9, 0.0]
      }
    ]
  },
  "task_ids": null,
  "uncorrected_energy_per_atom": null,
  "energy_per_atom": -6.791770656875,
  "formation_energy_per_atom": -0.482795142708333,
  "energy_above_hull": 0.0,
  "is_stable": true,
  "equilibrium_reaction_energy_per_atom": null,
  "decomposes_to": null,
  "xas": null,
  "grain_boundaries": null,
  "band_gap": 0.0,
  "cbm": null,
  "vbm": null,
  "efermi": 8.16614808,
  "is_gap_direct": null,
  "is_metal": null,
  "es_source_calc_id": null,
  "bandstructure": null,
  "dos": null,
  "dos_energy_up": null,
  "dos_energy_down": null,
  "is_magnetic": null,
  "ordering": null,
  "total_magnetization": 0.0,
  "total_magnetization_normalized_vol": null,
  "total_magnetization_normalized_formula_units": null,
  "num_magnetic_sites": null,
  "num_unique_magnetic_sites": null,
  "types_of_magnetic_species": null,
  "bulk_modulus": null,
  "shear_modulus": null,
  "universal_anisotropy": null,
  "homogeneous_poisson": null,
  "e_total": null,
  "e_ionic": null,
  "e_electronic": null,
  "n": null,
  "e_ij_max": null,
  "weighted_surface_energy_EV_PER_ANG2": null,
  "weighted_surface_energy": null,
  "weighted_work_function": null,
  "surface_anisotropy": null,
  "shape_factor": null,
  "has_reconstructed": null,
  "possible_species": null,
  "has_props": null,
  "theoretical": null,
  "database_IDs": null,
  "fields_not_requested": [
    "builder_meta",
    "nsites",
    "elements",
    "nelements",
    "composition",
    "composition_reduced",
    "chemsys",
    "symmetry",
    "property_name",
    "deprecated",
    "deprecation_reasons",
    "last_updated",
    "origins",
    "warnings",
    "task_ids",
    "uncorrected_energy_per_atom",
    "equilibrium_reaction_energy_per_atom",
    "decomposes_to",
    "xas",
    "grain_boundaries",
    "cbm",
    "vbm",
    "is_gap_direct",
    "is_metal",
    "es_source_calc_id",
    "bandstructure",
    "dos",
    "dos_energy_up",
    "dos_energy_down",
    "is_magnetic",
    "ordering",
    "total_magnetization_normalized_vol",
    "total_magnetization_normalized_formula_units",
    "num_magnetic_sites",
    "num_unique_magnetic_sites",
    "types_of_magnetic_species",
    "bulk_modulus",
    "shear_modulus",
    "universal_anisotropy",
    "homogeneous_poisson",
    "e_total",
    "e_ionic",
    "e_electronic",
    "n",
    "e_ij_max",
    "weighted_surface_energy_EV_PER_ANG2",
    "weighted_surface_energy",
    "weighted_work_function",
    "surface_anisotropy",
    "shape_factor",
    "has_reconstructed",
    "possible_species",
    "has_props",
    "theoretical",
    "database_IDs"
  ]
}
