{"builder_meta": null, "nsites": null, "elements": null, "nelements": null, "composition": null, "composition_reduced": null, "formula_pretty": "TiO2", "formula_anonymous": "AB2", "chemsys": null, "volume": 68.78397225482972, "density": 3.856139057916947, "density_atomic": 11.463995375804954, "symmetry": null, "property_name": null, "material_id": "mp-390", "deprecated": null, "deprecation_reasons": null, "last_updated": null, "origins": null, "warnings": null, "structure": {"@module": "pymatgen.core.structure", "@class": "Structure", "charge": 0, "lattice": {"matrix": [[3.54771631, 0.0, -1.31198863], [-0.48518786, 3.51438277, -1.31198863], [0.01802498, 0.02068314, 5.50138299]], "pbc": [true, true, true], "a": 3.7825395148615826, "b": 3.7825398449736825, "c": 5.501451398935157, "alpha": 110.10714407805271, "beta": 110.10713257902373, "gamma": 89.9999788522249, "volume": 68.78397225482972}, "properties": {}, "sites": [{"species": [{"element": "Ti", "occu": 1}], "abc": [0.875, 0.625, 0.25], "properties": {"magmom": -0.0}, "label": "Ti", "xyz": [2.8055156037500004, 2.20166001625, -0.5926371975000002]}, {"species": [{"element": "Ti", "occu": 1}], "abc": [0.125, 0.375, 0.75], "properties": {"magmom": -0.0}, "label": "Ti", "xyz": [0.27503782625, 1.33340589375, 3.4700429274999998]}, {"species": [{"element": "O", "occu": 1}], "abc": [0.33215263, 0.5821526300000001, 0.16430425], "properties": {"magmom": -0.0}, "label": "O", "xyz": [0.8988914949374885, 2.0493055001875304, -0.2956574993344864]}, {"species": [{"element": "O", "occu": 1}], "abc": [0.08215263, 0.8321526300000001, 0.66430425], "properties": {"magmom": -0.0}, "label": "O", "xyz": [-0.1003220575625115, 2.9382427626875303, 2.4550339956655134]}, {"species": [{"element": "O", "occu": 1}], "abc": [0.91784737, 0.16784737, 0.33569575], "properties": {"magmom": -0.0}, "label": "O", "xyz": [3.180875487562512, 0.5968231473124699, 0.42237173433448616]}, {"species": [{"element": "O", "occu": 1}], "abc": [0.66784737, 0.41784737, 0.8356957500000001], "properties": {"magmom": -0.0}, "label": "O", "xyz": [2.181661935062512, 1.48576040981247, 3.1730632293344865]}]}, "task_ids": null, "uncorrected_energy_per_atom": null, "energy_per_atom": -9.438526794166666, "formation_energy_per_atom": -3.5080554519444442, "energy_above_hull": 0.0, "is_stable": true, "equilibrium_reaction_energy_per_atom": null, "decomposes_to": null, "xas": null, "grain_boundaries": null, "band_gap": 2.0586, "cbm": null, "vbm": null, "efermi": 1.9577428700000001, "is_gap_direct": null, "is_metal": null, "es_source_calc_id": null, "bandstructure": null, "dos": null, "dos_energy_up": null, "dos_energy_down": null, "is_magnetic": null, "ordering": null, "total_magnetization": 0.0, "total_magnetization_normalized_vol": null, "total_magnetization_normalized_formula_units": null, "num_magnetic_sites": null, "num_unique_magnetic_sites": null, "types_of_magnetic_species": null, "bulk_modulus": null, "shear_modulus": null, "universal_anisotropy": null, "homogeneous_poisson": null, "e_total": null, "e_ionic": null, "e_electronic": null, "n": null, "e_ij_max": null, "weighted_surface_energy_EV_PER_ANG2": null, "weighted_surface_energy": null, "weighted_work_function": null, "surface_anisotropy": null, "shape_factor": null, "has_reconstructed": null, "possible_species": null, "has_props": null, "theoretical": null, "database_IDs": null, "fields_not_requested": ["builder_meta", "nsites", "elements", "nelements", "composition", "composition_reduced", "chemsys", "symmetry", "property_name", "deprecated", "deprecation_reasons", "last_updated", "origins", "warnings", "task_ids", "uncorrected_energy_per_atom", "equilibrium_reaction_energy_per_atom", "decomposes_to", "xas", "grain_boundaries", "cbm", "vbm", "is_gap_direct", "is_metal", "es_source_calc_id", "bandstructure", "dos", "dos_energy_up", "dos_energy_down", "is_magnetic", "ordering", "total_magnetization_normalized_vol", "total_magnetization_normalized_formula_units", "num_magnetic_sites", "num_unique_magnetic_sites", "types_of_magnetic_species", "bulk_modulus", "shear_modulus", "universal_anisotropy", "homogeneous_poisson", "e_total", "e_ionic", "e_electronic", "n", "e_ij_max", "weighted_surface_energy_EV_PER_ANG2", "weighted_surface_energy", "weighted_work_function", "surface_anisotropy", "shape_factor", "has_reconstructed", "possible_species", "has_props", "theoretical", "database_IDs"]}