{"builder_meta": null, "nsites": null, "elements": null, "nelements": null, "composition": null, "composition_reduced": null, "formula_pretty": "TiP", "formula_anonymous": "AB", "chemsys": null, "volume": 123.86980704741684, "density": 4.227605369285763, "density_atomic": 15.483725880927105, "symmetry": null, "property_name": null, "material_id": "mp-739", "deprecated": null, "deprecation_reasons": null, "last_updated": null, "origins": null, "warnings": null, "structure": {"@module": "pymatgen.core.structure", "@class": "Structure", "charge": 0, "lattice": {"matrix": [[3.49914344, 1e-08, 0.0], [-1.74957121, 3.03034763, -0.0], [-0.0, 0.0, 11.68184024]], "pbc": [true, true, true], "a": 3.49914344, "b": 3.4991436348780374, "c": 11.68184024, "alpha": 90.0, "beta": 90.0, "gamma": 119.99998835120769, "volume": 123.86980704741684}, "properties": {}, "sites": [{"species": [{"element": "Ti", "occu": 1}], "abc": [0.333333, 0.666667, 0.38348482], "properties": {"magmom": 0.0}, "label": "Ti", "xyz": [-1.4095715501483141e-06, 2.02023276678254, 4.4798084017051565]}, {"species": [{"element": "Ti", "occu": 1}], "abc": [0.666667, 0.333333, 0.8834848200000001], "properties": {"magmom": 0.0}, "label": "Ti", "xyz": [1.7495736395715502, 1.01011487321746, 10.320728521705156]}, {"species": [{"element": "Ti", "occu": 1}], "abc": [0.666667, 0.333333, 0.61651518], "properties": {"magmom": 0.0}, "label": "Ti", "xyz": [1.7495736395715502, 1.01011487321746, 7.202031838294843]}, {"species": [{"element": "Ti", "occu": 1}], "abc": [0.333333, 0.666667, 0.11651518], "properties": {"magmom": 0.0}, "label": "Ti", "xyz": [-1.4095715501483141e-06, 2.02023276678254, 1.3611117182948431]}, {"species": [{"element": "P", "occu": 1}], "abc": [0.666667, 0.333333, 0.25], "properties": {"magmom": -0.0}, "label": "P", "xyz": [1.7495736395715502, 1.01011487321746, 2.92046006]}, {"species": [{"element": "P", "occu": 1}], "abc": [0.333333, 0.666667, 0.75], "properties": {"magmom": -0.0}, "label": "P", "xyz": [-1.4095715501483141e-06, 2.02023276678254, 8.76138018]}, {"species": [{"element": "P", "occu": 1}], "abc": [0.0, 0.0, 0.5], "properties": {"magmom": -0.0}, "label": "P", "xyz": [0.0, 0.0, 5.84092012]}, {"species": [{"element": "P", "occu": 1}], "abc": [0.0, 0.0, -0.0], "properties": {"magmom": -0.0}, "label": "P", "xyz": [0.0, 0.0, 0.0]}]}, "task_ids": null, "uncorrected_energy_per_atom": null, "energy_per_atom": -12.25797755125, "formation_energy_per_atom": -1.288060888571429, "energy_above_hull": 0.0, "is_stable": true, "equilibrium_reaction_energy_per_atom": null, "decomposes_to": null, "xas": null, "grain_boundaries": null, "band_gap": 0.0, "cbm": null, "vbm": null, "efermi": 7.69081789, "is_gap_direct": null, "is_metal": null, "es_source_calc_id": null, "bandstructure": null, "dos": null, "dos_energy_up": null, "dos_energy_down": null, "is_magnetic": null, "ordering": null, "total_magnetization": 0.0, "total_magnetization_normalized_vol": null, "total_magnetization_normalized_formula_units": null, "num_magnetic_sites": null, "num_unique_magnetic_sites": null, "types_of_magnetic_species": null, "bulk_modulus": null, "shear_modulus": null, "universal_anisotropy": null, "homogeneous_poisson": null, "e_total": null, "e_ionic": null, "e_electronic": null, "n": null, "e_ij_max": null, "weighted_surface_energy_EV_PER_ANG2": null, "weighted_surface_energy": null, "weighted_work_function": null, "surface_anisotropy": null, "shape_factor": null, "has_reconstructed": null, "possible_species": null, "has_props": null, "theoretical": null, "database_IDs": null, "fields_not_requested": ["builder_meta", "nsites", "elements", "nelements", "composition", "composition_reduced", "chemsys", "symmetry", "property_name", "deprecated", "deprecation_reasons", "last_updated", "origins", "warnings", "task_ids", "uncorrected_energy_per_atom", "equilibrium_reaction_energy_per_atom", "decomposes_to", "xas", "grain_boundaries", "cbm", "vbm", "is_gap_direct", "is_metal", "es_source_calc_id", "bandstructure", "dos", "dos_energy_up", "dos_energy_down", "is_magnetic", "ordering", "total_magnetization_normalized_vol", "total_magnetization_normalized_formula_units", "num_magnetic_sites", "num_unique_magnetic_sites", "types_of_magnetic_species", "bulk_modulus", "shear_modulus", "universal_anisotropy", "homogeneous_poisson", "e_total", "e_ionic", "e_electronic", "n", "e_ij_max", "weighted_surface_energy_EV_PER_ANG2", "weighted_surface_energy", "weighted_work_function", "surface_anisotropy", "shape_factor", "has_reconstructed", "possible_species", "has_props", "theoretical", "database_IDs"]}