{
  "builder_meta": null,
  "nsites": null,
  "elements": null,
  "nelements": null,
  "composition": null,
  "composition_reduced": null,
  "formula_pretty": "TiP2",
  "formula_anonymous": "AB2",
  "chemsys": null,
  "volume": 170.7720615085595,
  "density": 4.271221078465307,
  "density_atomic": 14.23100512571329,
  "symmetry": null,
  "property_name": null,
  "material_id": "mp-20327",
  "deprecated": null,
  "deprecation_reasons": null,
  "last_updated": null,
  "origins": null,
  "warnings": null,
  "structure": {
    "@module": "pymatgen.core.structure",
    "@class": "Structure",
    "charge": 0,
    "lattice": {
      "matrix": [
        [3.348595109999999, 0.0, 0.0],
        [0.0, 6.17029079, 0.0],
        [0.0, 0.0, 8.26510834]
      ],
      "pbc": [true, true, true],
      "a": 3.348595109999999,
      "b": 6.17029079,
      "c": 8.26510834,
      "alpha": 90.0,
      "beta": 90.0,
      "gamma": 90.0,
      "volume": 170.7720615085594
    },
    "properties": {},
    "sites": [
      {
        "species": [{ "element": "Ti", "occu": 1 }],
        "abc": [0.25, 0.7677632, 0.33360738],
        "properties": { "magmom": -0.0 },
        "label": "Ti",
        "xyz": [0.8371487774999997, 4.737322201860928, 2.757301138723549]
      },
      {
        "species": [{ "element": "Ti", "occu": 1 }],
        "abc": [0.75, 0.2322368, 0.66639262],
        "properties": { "magmom": -0.0 },
        "label": "Ti",
        "xyz": [2.5114463324999994, 1.432968588139072, 5.50780720127645]
      },
      {
        "species": [{ "element": "Ti", "occu": 1 }],
        "abc": [0.25, 0.2677632, 0.16639262],
        "properties": { "magmom": -0.0 },
        "label": "Ti",
        "xyz": [0.8371487774999997, 1.652176806860928, 1.3752530312764506]
      },
      {
        "species": [{ "element": "Ti", "occu": 1 }],
        "abc": [0.75, 0.7322368, 0.83360738],
        "properties": { "magmom": -0.0 },
        "label": "Ti",
        "xyz": [2.5114463324999994, 4.518113983139072, 6.889855308723549]
      },
      {
        "species": [{ "element": "P", "occu": 1 }],
        "abc": [0.25, 0.41211456, 0.86302471],
        "properties": { "magmom": 0.0 },
        "label": "P",
        "xyz": [0.8371487774999997, 2.5428666739929024, 7.132992728247081]
      },
      {
        "species": [{ "element": "P", "occu": 1 }],
        "abc": [0.75, 0.58788544, 0.13697529],
        "properties": { "magmom": 0.0 },
        "label": "P",
        "xyz": [2.5114463324999994, 3.6274241160070977, 1.1321156117529185]
      },
      {
        "species": [{ "element": "P", "occu": 1 }],
        "abc": [0.25, 0.91211456, 0.63697529],
        "properties": { "magmom": 0.0 },
        "label": "P",
        "xyz": [0.8371487774999997, 5.628012068992903, 5.264669781752918]
      },
      {
        "species": [{ "element": "P", "occu": 1 }],
        "abc": [0.75, 0.08788544, 0.36302471000000003],
        "properties": { "magmom": 0.0 },
        "label": "P",
        "xyz": [2.5114463324999994, 0.5422787210070976, 3.0004385582470814]
      },
      {
        "species": [{ "element": "P", "occu": 1 }],
        "abc": [0.75, 0.12027489000000001, 0.9603538300000001],
        "properties": { "magmom": 0.0 },
        "label": "P",
        "xyz": [2.5114463324999994, 0.7421310460352631, 7.937428449683942]
      },
      {
        "species": [{ "element": "P", "occu": 1 }],
        "abc": [0.25, 0.87972511, 0.03964617],
        "properties": { "magmom": 0.0 },
        "label": "P",
        "xyz": [0.8371487774999997, 5.428159743964737, 0.32767989031605776]
      },
      {
        "species": [{ "element": "P", "occu": 1 }],
        "abc": [0.75, 0.62027489, 0.53964617],
        "properties": { "magmom": 0.0 },
        "label": "P",
        "xyz": [2.5114463324999994, 3.8272764410352633, 4.460234060316058]
      },
      {
        "species": [{ "element": "P", "occu": 1 }],
        "abc": [0.25, 0.37972511000000003, 0.46035383],
        "properties": { "magmom": 0.0 },
        "label": "P",
        "xyz": [0.8371487774999997, 2.3430143489647373, 3.804874279683942]
      }
    ]
  },
  "task_ids": null,
  "uncorrected_energy_per_atom": null,
  "energy_per_atom": -11.166441731666666,
  "formation_energy_per_atom": -0.852471852539681,
  "energy_above_hull": 0.0062354065079380004,
  "is_stable": false,
  "equilibrium_reaction_energy_per_atom": null,
  "decomposes_to": null,
  "xas": null,
  "grain_boundaries": null,
  "band_gap": 0.0,
  "cbm": null,
  "vbm": null,
  "efermi": 9.40010633,
  "is_gap_direct": null,
  "is_metal": null,
  "es_source_calc_id": null,
  "bandstructure": null,
  "dos": null,
  "dos_energy_up": null,
  "dos_energy_down": null,
  "is_magnetic": null,
  "ordering": null,
  "total_magnetization": 0.0,
  "total_magnetization_normalized_vol": null,
  "total_magnetization_normalized_formula_units": null,
  "num_magnetic_sites": null,
  "num_unique_magnetic_sites": null,
  "types_of_magnetic_species": null,
  "bulk_modulus": null,
  "shear_modulus": null,
  "universal_anisotropy": null,
  "homogeneous_poisson": null,
  "e_total": null,
  "e_ionic": null,
  "e_electronic": null,
  "n": null,
  "e_ij_max": null,
  "weighted_surface_energy_EV_PER_ANG2": null,
  "weighted_surface_energy": null,
  "weighted_work_function": null,
  "surface_anisotropy": null,
  "shape_factor": null,
  "has_reconstructed": null,
  "possible_species": null,
  "has_props": null,
  "theoretical": null,
  "database_IDs": null,
  "fields_not_requested": [
    "builder_meta",
    "nsites",
    "elements",
    "nelements",
    "composition",
    "composition_reduced",
    "chemsys",
    "symmetry",
    "property_name",
    "deprecated",
    "deprecation_reasons",
    "last_updated",
    "origins",
    "warnings",
    "task_ids",
    "uncorrected_energy_per_atom",
    "equilibrium_reaction_energy_per_atom",
    "decomposes_to",
    "xas",
    "grain_boundaries",
    "cbm",
    "vbm",
    "is_gap_direct",
    "is_metal",
    "es_source_calc_id",
    "bandstructure",
    "dos",
    "dos_energy_up",
    "dos_energy_down",
    "is_magnetic",
    "ordering",
    "total_magnetization_normalized_vol",
    "total_magnetization_normalized_formula_units",
    "num_magnetic_sites",
    "num_unique_magnetic_sites",
    "types_of_magnetic_species",
    "bulk_modulus",
    "shear_modulus",
    "universal_anisotropy",
    "homogeneous_poisson",
    "e_total",
    "e_ionic",
    "e_electronic",
    "n",
    "e_ij_max",
    "weighted_surface_energy_EV_PER_ANG2",
    "weighted_surface_energy",
    "weighted_work_function",
    "surface_anisotropy",
    "shape_factor",
    "has_reconstructed",
    "possible_species",
    "has_props",
    "theoretical",
    "database_IDs"
  ]
}
