{
  "builder_meta": null,
  "nsites": null,
  "elements": null,
  "nelements": null,
  "composition": null,
  "composition_reduced": null,
  "formula_pretty": "TiPb3",
  "formula_anonymous": "AB3",
  "chemsys": null,
  "volume": 216.09854911001653,
  "density": 10.288603157011885,
  "density_atomic": 27.012318638752067,
  "symmetry": null,
  "property_name": null,
  "material_id": "mp-1187843",
  "deprecated": null,
  "deprecation_reasons": null,
  "last_updated": null,
  "origins": null,
  "warnings": null,
  "structure": {
    "@module": "pymatgen.core.structure",
    "@class": "Structure",
    "charge": 0,
    "lattice": {
      "matrix": [
        [6.528693, 2e-6, -0.003084],
        [-3.264349, 5.665152, -0.005541],
        [-0.002572999999999, -0.007012999999999001, 5.842715]
      ],
      "pbc": [true, true, true],
      "a": 6.528693728404558,
      "b": 6.538344766038726,
      "c": 5.842719775389113,
      "alpha": 90.09554625038884,
      "beta": 90.0522969193962,
      "gamma": 119.9511579768972,
      "volume": 216.09854911001656
    },
    "properties": {},
    "sites": [
      {
        "species": [{ "element": "Ti", "occu": 1 }],
        "abc": [0.333349, 0.666601, 0.745505],
        "properties": { "magmom": 0.009000000000000001 },
        "label": "Ti",
        "xyz": [-0.001603209256999206, 3.7711684284850007, 4.351051561617999]
      },
      {
        "species": [{ "element": "Ti", "occu": 1 }],
        "abc": [0.666818, 0.333387, 0.254143],
        "properties": { "magmom": 0.007 },
        "label": "Ti",
        "xyz": [3.2645045788719997, 1.8869070586010002, 1.480981354166]
      },
      {
        "species": [{ "element": "Pb", "occu": 1 }],
        "abc": [0.171271999999999, 0.342539, 0.24944000000000002],
        "properties": { "magmom": 0.0 },
        "label": "Pb",
        "xyz": [-0.0006263437350062213, 1.938786520752, 1.4549806181530003]
      },
      {
        "species": [{ "element": "Pb", "occu": 1 }],
        "abc": [0.657295, 0.829024, 0.249796],
        "properties": { "magmom": 0.0 },
        "label": "Pb",
        "xyz": [1.5844108749509995, 4.694796466890001, 1.452866116376]
      },
      {
        "species": [{ "element": "Pb", "occu": 1 }],
        "abc": [0.171668, 0.829503, 0.249216],
        "properties": { "magmom": 0.0 },
        "label": "Pb",
        "xyz": [-1.587660851391, 4.697513170984, 1.450972361205]
      },
      {
        "species": [{ "element": "Pb", "occu": 1 }],
        "abc": [0.828751999999999, 0.657256, 0.75048],
        "properties": { "magmom": 0.0 },
        "label": "Pb",
        "xyz": [3.263223429751994, 3.718193684176, 4.378643026536]
      },
      {
        "species": [{ "element": "Pb", "occu": 1 }],
        "abc": [0.342893, 0.170904, 0.750958999999999],
        "properties": { "magmom": 0.0 },
        "label": "Pb",
        "xyz": [1.6788206098460006, 0.9629313477270007, 4.385634952608995]
      },
      {
        "species": [{ "element": "Pb", "occu": 1 }],
        "abc": [0.8279500000000001, 0.17078000000000002, 0.750458],
        "properties": { "magmom": 0.0 },
        "label": "Pb",
        "xyz": [4.846014918696, 0.9622333525060008, 4.3812125236899995]
      }
    ]
  },
  "task_ids": null,
  "uncorrected_energy_per_atom": null,
  "energy_per_atom": -45.16840663375001,
  "formation_energy_per_atom": 0.279883202083325,
  "energy_above_hull": 0.313801087916665,
  "is_stable": false,
  "equilibrium_reaction_energy_per_atom": null,
  "decomposes_to": null,
  "xas": null,
  "grain_boundaries": null,
  "band_gap": 0.0,
  "cbm": null,
  "vbm": null,
  "efermi": 7.26114438,
  "is_gap_direct": null,
  "is_metal": null,
  "es_source_calc_id": null,
  "bandstructure": null,
  "dos": null,
  "dos_energy_up": null,
  "dos_energy_down": null,
  "is_magnetic": null,
  "ordering": null,
  "total_magnetization": 0.013973099999999001,
  "total_magnetization_normalized_vol": null,
  "total_magnetization_normalized_formula_units": null,
  "num_magnetic_sites": null,
  "num_unique_magnetic_sites": null,
  "types_of_magnetic_species": null,
  "bulk_modulus": null,
  "shear_modulus": null,
  "universal_anisotropy": null,
  "homogeneous_poisson": null,
  "e_total": null,
  "e_ionic": null,
  "e_electronic": null,
  "n": null,
  "e_ij_max": null,
  "weighted_surface_energy_EV_PER_ANG2": null,
  "weighted_surface_energy": null,
  "weighted_work_function": null,
  "surface_anisotropy": null,
  "shape_factor": null,
  "has_reconstructed": null,
  "possible_species": null,
  "has_props": null,
  "theoretical": null,
  "database_IDs": null,
  "fields_not_requested": [
    "builder_meta",
    "nsites",
    "elements",
    "nelements",
    "composition",
    "composition_reduced",
    "chemsys",
    "symmetry",
    "property_name",
    "deprecated",
    "deprecation_reasons",
    "last_updated",
    "origins",
    "warnings",
    "task_ids",
    "uncorrected_energy_per_atom",
    "equilibrium_reaction_energy_per_atom",
    "decomposes_to",
    "xas",
    "grain_boundaries",
    "cbm",
    "vbm",
    "is_gap_direct",
    "is_metal",
    "es_source_calc_id",
    "bandstructure",
    "dos",
    "dos_energy_up",
    "dos_energy_down",
    "is_magnetic",
    "ordering",
    "total_magnetization_normalized_vol",
    "total_magnetization_normalized_formula_units",
    "num_magnetic_sites",
    "num_unique_magnetic_sites",
    "types_of_magnetic_species",
    "bulk_modulus",
    "shear_modulus",
    "universal_anisotropy",
    "homogeneous_poisson",
    "e_total",
    "e_ionic",
    "e_electronic",
    "n",
    "e_ij_max",
    "weighted_surface_energy_EV_PER_ANG2",
    "weighted_surface_energy",
    "weighted_work_function",
    "surface_anisotropy",
    "shape_factor",
    "has_reconstructed",
    "possible_species",
    "has_props",
    "theoretical",
    "database_IDs"
  ]
}
