{"builder_meta": null, "nsites": null, "elements": null, "nelements": null, "composition": null, "composition_reduced": null, "formula_pretty": "TiPd3", "formula_anonymous": "AB3", "chemsys": null, "volume": 236.74298197250607, "density": 10.300262686975142, "density_atomic": 14.79643637328163, "symmetry": null, "property_name": null, "material_id": "mp-1105911", "deprecated": null, "deprecation_reasons": null, "last_updated": null, "origins": null, "warnings": null, "structure": {"@module": "pymatgen.core.structure", "@class": "Structure", "charge": 0, "lattice": {"matrix": [[-2.75722909, -4.77567985, 3.98e-06], [-2.75722909, 4.77567985, -3.98e-06], [0.0, 7.48e-06, -8.98957295]], "pbc": [true, true, true], "a": 5.514474615451059, "b": 5.514474615451059, "c": 8.989572950003112, "alpha": 89.99991736024359, "beta": 90.00008263975641, "gamma": 120.00019718290953, "volume": 236.74298197250607}, "properties": {}, "sites": [{"species": [{"element": "Ti", "occu": 1}], "abc": [0.99999983, 1.7000000000000001e-07, 0.50001977], "properties": {"magmom": -0.0}, "label": "Ti", "xyz": [-2.7572290900000005, -4.7756744861209715, -4.494960218858574]}, {"species": [{"element": "Ti", "occu": 1}], "abc": [0.99999984, 1.6e-07, 0.99998052], "properties": {"magmom": -0.0}, "label": "Ti", "xyz": [-2.75722909, -4.775670841928158, -8.989393853120207]}, {"species": [{"element": "Ti", "occu": 1}], "abc": [0.6666807100000001, 0.33331929, 0.75000124], "properties": {"magmom": -0.0}, "label": "Ti", "xyz": [-2.75722909, -1.5920218062521125, -6.742189532792006]}, {"species": [{"element": "Ti", "occu": 1}], "abc": [0.33331898, 0.6666810200000001, 0.24999816], "properties": {"magmom": -0.0}, "label": "Ti", "xyz": [-2.75722909, 1.5920322471691313, -2.247378023466691]}, {"species": [{"element": "Pd", "occu": 1}], "abc": [0.50000123, 3.88e-06, 0.49999518], "properties": {"magmom": 0.0}, "label": "Pd", "xyz": [-1.3786286344406498, -2.387823529484451, -4.494741155268927]}, {"species": [{"element": "Pd", "occu": 1}], "abc": [0.50000118, 0.49999882, 0.49999513], "properties": {"magmom": -0.0}, "label": "Pd", "xyz": [-2.75722909, -7.530640873767453e-06, -4.4947426957703405]}, {"species": [{"element": "Pd", "occu": 1}], "abc": [0.99999512, 0.49999877000000004, 0.49999518], "properties": {"magmom": 0.0}, "label": "Pd", "xyz": [-4.13582678833026, -2.387818753804601, -4.494741155272907]}, {"species": [{"element": "Pd", "occu": 1}], "abc": [0.50000124, 3.92e-06, 5.11e-06], "properties": {"magmom": -0.0}, "label": "Pd", "xyz": [-1.3786287723021045, -2.3878271261397797, -4.39467284409e-05]}, {"species": [{"element": "Pd", "occu": 1}], "abc": [0.500001199999999, 0.499998799999999, 5.15e-06], "properties": {"magmom": -0.0}, "label": "Pd", "xyz": [-2.7572290899999947, -1.1461593117786418e-05, -4.62962911405e-05]}, {"species": [{"element": "Pd", "occu": 1}], "abc": [0.99999508, 0.49999876, 5.11e-06], "properties": {"magmom": -0.0}, "label": "Pd", "xyz": [-4.135826650468806, -2.38782235045993, -4.39467324209e-05]}, {"species": [{"element": "Pd", "occu": 1}], "abc": [0.1665166, 0.3330297, 0.75000169], "properties": {"magmom": 0.0}, "label": "Pd", "xyz": [-1.3773635901618668, 0.7952188664436762, -6.742195567600423]}, {"species": [{"element": "Pd", "occu": 1}], "abc": [0.16651518, 0.83348482, 0.75000169], "properties": {"magmom": 0.0}, "label": "Pd", "xyz": [-2.75722909, 3.185239080322395, -6.742197559417453]}, {"species": [{"element": "Pd", "occu": 1}], "abc": [0.6669703, 0.8334834, 0.75000169], "properties": {"magmom": 0.0}, "label": "Pd", "xyz": [-4.137094589838133, 0.7952188664436762, -6.742195567600423]}, {"species": [{"element": "Pd", "occu": 1}], "abc": [0.83348079, 0.66696628, 0.24999738000000002], "properties": {"magmom": 0.0}, "label": "Pd", "xyz": [-4.137076309409267, -0.7952181201592207, -2.247369022091121]}, {"species": [{"element": "Pd", "occu": 1}], "abc": [0.8334839900000001, 0.16651601, 0.24999861], "properties": {"magmom": 0.0}, "label": "Pd", "xyz": [-2.75722909, -3.185223672691601, -2.247378087461039]}, {"species": [{"element": "Pd", "occu": 1}], "abc": [0.33303372000000003, 0.16651921, 0.24999738000000002], "properties": {"magmom": 0.0}, "label": "Pd", "xyz": [-1.377381870590734, -0.7952181201592213, -2.247369022091121]}]}, "task_ids": null, "uncorrected_energy_per_atom": null, "energy_per_atom": -21.109053894375, "formation_energy_per_atom": -0.654274433541662, "energy_above_hull": 0.0, "is_stable": true, "equilibrium_reaction_energy_per_atom": null, "decomposes_to": null, "xas": null, "grain_boundaries": null, "band_gap": 0.0, "cbm": null, "vbm": null, "efermi": 5.96799484, "is_gap_direct": null, "is_metal": null, "es_source_calc_id": null, "bandstructure": null, "dos": null, "dos_energy_up": null, "dos_energy_down": null, "is_magnetic": null, "ordering": null, "total_magnetization": 1.5e-06, "total_magnetization_normalized_vol": null, "total_magnetization_normalized_formula_units": null, "num_magnetic_sites": null, "num_unique_magnetic_sites": null, "types_of_magnetic_species": null, "bulk_modulus": null, "shear_modulus": null, "universal_anisotropy": null, "homogeneous_poisson": null, "e_total": null, "e_ionic": null, "e_electronic": null, "n": null, "e_ij_max": null, "weighted_surface_energy_EV_PER_ANG2": null, "weighted_surface_energy": null, "weighted_work_function": null, "surface_anisotropy": null, "shape_factor": null, "has_reconstructed": null, "possible_species": null, "has_props": null, "theoretical": null, "database_IDs": null, "fields_not_requested": ["builder_meta", "nsites", "elements", "nelements", "composition", "composition_reduced", "chemsys", "symmetry", "property_name", "deprecated", "deprecation_reasons", "last_updated", "origins", "warnings", "task_ids", "uncorrected_energy_per_atom", "equilibrium_reaction_energy_per_atom", "decomposes_to", "xas", "grain_boundaries", "cbm", "vbm", "is_gap_direct", "is_metal", "es_source_calc_id", "bandstructure", "dos", "dos_energy_up", "dos_energy_down", "is_magnetic", "ordering", "total_magnetization_normalized_vol", "total_magnetization_normalized_formula_units", "num_magnetic_sites", "num_unique_magnetic_sites", "types_of_magnetic_species", "bulk_modulus", "shear_modulus", "universal_anisotropy", "homogeneous_poisson", "e_total", "e_ionic", "e_electronic", "n", "e_ij_max", "weighted_surface_energy_EV_PER_ANG2", "weighted_surface_energy", "weighted_work_function", "surface_anisotropy", "shape_factor", "has_reconstructed", "possible_species", "has_props", "theoretical", "database_IDs"]}