{
  "builder_meta": null,
  "nsites": null,
  "elements": null,
  "nelements": null,
  "composition": null,
  "composition_reduced": null,
  "formula_pretty": "TiPd",
  "formula_anonymous": "AB",
  "chemsys": null,
  "volume": 61.902064874951,
  "density": 8.277578186965673,
  "density_atomic": 15.47551621873775,
  "symmetry": null,
  "property_name": null,
  "material_id": "mp-979261",
  "deprecated": null,
  "deprecation_reasons": null,
  "last_updated": null,
  "origins": null,
  "warnings": null,
  "structure": {
    "@module": "pymatgen.core.structure",
    "@class": "Structure",
    "charge": 0,
    "lattice": {
      "matrix": [
        [2.78078498, -9.258e-5, 0.0],
        [-0.25822477, 4.88431394, 0.0],
        [0.0, 0.0, 4.55758651]
      ],
      "pbc": [true, true, true],
      "a": 2.780784981541122,
      "b": 4.891135113275841,
      "c": 4.55758651,
      "alpha": 90.0,
      "beta": 90.0,
      "gamma": 93.02821344703851,
      "volume": 61.902064874951
    },
    "properties": {},
    "sites": [
      {
        "species": [{ "element": "Ti", "occu": 1 }],
        "abc": [0.45478962, 0.20032799, 0.249998],
        "properties": { "magmom": -0.0 },
        "label": "Ti",
        "xyz": [1.2129424952135954, 0.9784226897061612, 1.13938751232698]
      },
      {
        "species": [{ "element": "Ti", "occu": 1 }],
        "abc": [0.54521138, 0.79967301, 0.75],
        "properties": { "magmom": -0.0 },
        "label": "Ti",
        "xyz": [1.3096202373466148, 3.9058035545151992, 3.4181898825]
      },
      {
        "species": [{ "element": "Pd", "occu": 1 }],
        "abc": [0.01180408, 0.68446102, 0.249998],
        "properties": { "magmom": -0.0 },
        "label": "Pd",
        "xyz": [-0.14392018109674698, 3.3431214085508922, 1.13938751232698]
      },
      {
        "species": [{ "element": "Pd", "occu": 1 }],
        "abc": [0.98819692, 0.31553998, 0.75],
        "properties": { "magmom": -0.0 },
        "label": "Pd",
        "xyz": [2.666482913656957, 1.5411048356704677, 3.4181898825]
      }
    ]
  },
  "task_ids": null,
  "uncorrected_energy_per_atom": null,
  "energy_per_atom": -18.4916432625,
  "formation_energy_per_atom": -0.542537950833331,
  "energy_above_hull": 0.011486497500001,
  "is_stable": false,
  "equilibrium_reaction_energy_per_atom": null,
  "decomposes_to": null,
  "xas": null,
  "grain_boundaries": null,
  "band_gap": 0.0,
  "cbm": null,
  "vbm": null,
  "efermi": 5.98024905,
  "is_gap_direct": null,
  "is_metal": null,
  "es_source_calc_id": null,
  "bandstructure": null,
  "dos": null,
  "dos_energy_up": null,
  "dos_energy_down": null,
  "is_magnetic": null,
  "ordering": null,
  "total_magnetization": 6e-7,
  "total_magnetization_normalized_vol": null,
  "total_magnetization_normalized_formula_units": null,
  "num_magnetic_sites": null,
  "num_unique_magnetic_sites": null,
  "types_of_magnetic_species": null,
  "bulk_modulus": null,
  "shear_modulus": null,
  "universal_anisotropy": null,
  "homogeneous_poisson": null,
  "e_total": null,
  "e_ionic": null,
  "e_electronic": null,
  "n": null,
  "e_ij_max": null,
  "weighted_surface_energy_EV_PER_ANG2": null,
  "weighted_surface_energy": null,
  "weighted_work_function": null,
  "surface_anisotropy": null,
  "shape_factor": null,
  "has_reconstructed": null,
  "possible_species": null,
  "has_props": null,
  "theoretical": null,
  "database_IDs": null,
  "fields_not_requested": [
    "builder_meta",
    "nsites",
    "elements",
    "nelements",
    "composition",
    "composition_reduced",
    "chemsys",
    "symmetry",
    "property_name",
    "deprecated",
    "deprecation_reasons",
    "last_updated",
    "origins",
    "warnings",
    "task_ids",
    "uncorrected_energy_per_atom",
    "equilibrium_reaction_energy_per_atom",
    "decomposes_to",
    "xas",
    "grain_boundaries",
    "cbm",
    "vbm",
    "is_gap_direct",
    "is_metal",
    "es_source_calc_id",
    "bandstructure",
    "dos",
    "dos_energy_up",
    "dos_energy_down",
    "is_magnetic",
    "ordering",
    "total_magnetization_normalized_vol",
    "total_magnetization_normalized_formula_units",
    "num_magnetic_sites",
    "num_unique_magnetic_sites",
    "types_of_magnetic_species",
    "bulk_modulus",
    "shear_modulus",
    "universal_anisotropy",
    "homogeneous_poisson",
    "e_total",
    "e_ionic",
    "e_electronic",
    "n",
    "e_ij_max",
    "weighted_surface_energy_EV_PER_ANG2",
    "weighted_surface_energy",
    "weighted_work_function",
    "surface_anisotropy",
    "shape_factor",
    "has_reconstructed",
    "possible_species",
    "has_props",
    "theoretical",
    "database_IDs"
  ]
}
