{"builder_meta": null, "nsites": null, "elements": null, "nelements": null, "composition": null, "composition_reduced": null, "formula_pretty": "TiPt8", "formula_anonymous": "AB8", "chemsys": null, "volume": 136.7136271560361, "density": 19.53749531201555, "density_atomic": 15.190403017337344, "symmetry": null, "property_name": null, "material_id": "mp-30852", "deprecated": null, "deprecation_reasons": null, "last_updated": null, "origins": null, "warnings": null, "structure": {"@module": "pymatgen.core.structure", "@class": "Structure", "charge": 0, "lattice": {"matrix": [[3.71317264, 0.0012543300000000001, 1.23231287], [1.8589689900000002, 5.91200543, 0.6149889], [-0.00179894, -0.00123134, 6.22782456]], "pbc": [true, true, true], "a": 3.912319981463167, "b": 6.2278234767255825, "c": 6.2278249415444, "alpha": 84.34865683901926, "beta": 71.65678869156794, "gamma": 71.65678398478377, "volume": 136.71362715603613}, "properties": {}, "sites": [{"species": [{"element": "Ti", "occu": 1}], "abc": [0.0, -0.0, 0.0], "properties": {"magmom": -0.0}, "label": "Ti", "xyz": [0.0, 0.0, 0.0]}, {"species": [{"element": "Pt", "occu": 1}], "abc": [0.66193995, 0.67630489, 1.3440000000000002e-05], "properties": {"magmom": 0.0}, "label": "Pt", "xyz": [3.7151271057805757, 3.9991484566038267, 1.2317208218799638]}, {"species": [{"element": "Pt", "occu": 1}], "abc": [0.33806005, 0.32369511, -1.3440000000000002e-05], "properties": {"magmom": 0.0}, "label": "Pt", "xyz": [1.8570145242194245, 1.9141113033961734, 0.615580948120036]}, {"species": [{"element": "Pt", "occu": 1}], "abc": [0.66193995, 1.3440000000000002e-05, 0.67630489], "properties": {"magmom": 0.0}, "label": "Pt", "xyz": [2.4567056642873766, 7.698722721010006e-05, 5.027633588993071]}, {"species": [{"element": "Pt", "occu": 1}], "abc": [0.32955273, 0.67072175, 0.67072175], "properties": {"magmom": 0.0}, "label": "Pt", "xyz": [2.4693305264568948, 3.964898109375278, 4.99573588933739]}, {"species": [{"element": "Pt", "occu": 1}], "abc": [-0.0, 0.32925244, 0.67074756], "properties": {"magmom": 0.0}, "label": "Pt", "xyz": [0.6108634412262491, 1.9457162948202187, 4.37978472362599]}, {"species": [{"element": "Pt", "occu": 1}], "abc": [0.0, 0.67074756, 0.32925244], "properties": {"magmom": 0.0}, "label": "Pt", "xyz": [1.2463066087737509, 3.965057795179781, 2.46302873637401]}, {"species": [{"element": "Pt", "occu": 1}], "abc": [0.67044727, 0.32927825, 0.32927825], "properties": {"magmom": 0.0}, "label": "Pt", "xyz": [3.1010121635431056, 1.9471303106247215, 3.07939044066261]}, {"species": [{"element": "Pt", "occu": 1}], "abc": [0.33806005, -1.3440000000000002e-05, 0.32369511], "properties": {"magmom": 0.0}, "label": "Pt", "xyz": [1.254668035712623, -5.399722721010004e-05, 2.4325038410069295]}]}, "task_ids": null, "uncorrected_energy_per_atom": null, "energy_per_atom": -47.699234278888895, "formation_energy_per_atom": -0.49484625518518505, "energy_above_hull": 0.0, "is_stable": true, "equilibrium_reaction_energy_per_atom": null, "decomposes_to": null, "xas": null, "grain_boundaries": null, "band_gap": 0.0, "cbm": null, "vbm": null, "efermi": 7.35910954, "is_gap_direct": null, "is_metal": null, "es_source_calc_id": null, "bandstructure": null, "dos": null, "dos_energy_up": null, "dos_energy_down": null, "is_magnetic": null, "ordering": null, "total_magnetization": 2.7e-06, "total_magnetization_normalized_vol": null, "total_magnetization_normalized_formula_units": null, "num_magnetic_sites": null, "num_unique_magnetic_sites": null, "types_of_magnetic_species": null, "bulk_modulus": null, "shear_modulus": null, "universal_anisotropy": null, "homogeneous_poisson": null, "e_total": null, "e_ionic": null, "e_electronic": null, "n": null, "e_ij_max": null, "weighted_surface_energy_EV_PER_ANG2": null, "weighted_surface_energy": null, "weighted_work_function": null, "surface_anisotropy": null, "shape_factor": null, "has_reconstructed": null, "possible_species": null, "has_props": null, "theoretical": null, "database_IDs": null, "fields_not_requested": ["builder_meta", "nsites", "elements", "nelements", "composition", "composition_reduced", "chemsys", "symmetry", "property_name", "deprecated", "deprecation_reasons", "last_updated", "origins", "warnings", "task_ids", "uncorrected_energy_per_atom", "equilibrium_reaction_energy_per_atom", "decomposes_to", "xas", "grain_boundaries", "cbm", "vbm", "is_gap_direct", "is_metal", "es_source_calc_id", "bandstructure", "dos", "dos_energy_up", "dos_energy_down", "is_magnetic", "ordering", "total_magnetization_normalized_vol", "total_magnetization_normalized_formula_units", "num_magnetic_sites", "num_unique_magnetic_sites", "types_of_magnetic_species", "bulk_modulus", "shear_modulus", "universal_anisotropy", "homogeneous_poisson", "e_total", "e_ionic", "e_electronic", "n", "e_ij_max", "weighted_surface_energy_EV_PER_ANG2", "weighted_surface_energy", "weighted_work_function", "surface_anisotropy", "shape_factor", "has_reconstructed", "possible_species", "has_props", "theoretical", "database_IDs"]}