{
  "builder_meta": null,
  "nsites": null,
  "elements": null,
  "nelements": null,
  "composition": null,
  "composition_reduced": null,
  "formula_pretty": "TiS2",
  "formula_anonymous": "AB2",
  "chemsys": null,
  "volume": 183.46613745131842,
  "density": 3.041030836952365,
  "density_atomic": 20.385126383479825,
  "symmetry": null,
  "property_name": null,
  "material_id": "mp-2156",
  "deprecated": null,
  "deprecation_reasons": null,
  "last_updated": null,
  "origins": null,
  "warnings": null,
  "structure": {
    "@module": "pymatgen.core.structure",
    "@class": "Structure",
    "charge": 0,
    "lattice": {
      "matrix": [
        [1.71283699, -2.9667844, 0.00014819],
        [1.71286213, 2.96679884, -7.759000000000002e-5],
        [0.0001986, -0.00059849, 18.05176448]
      ],
      "pbc": [true, true, true],
      "a": 3.4257291563046683,
      "b": 3.425754229280567,
      "c": 18.051764491013664,
      "alpha": 90.00262761906224,
      "beta": 89.99556123010184,
      "gamma": 120.00082216994602,
      "volume": 183.46613745131842
    },
    "properties": {},
    "sites": [
      {
        "species": [{ "element": "Ti", "occu": 1 }],
        "abc": [-0.00010415, -1.2350000000000002e-5, 0.49978761],
        "properties": { "magmom": -0.0 },
        "label": "Ti",
        "xyz": [-0.000100288000468, -2.6767257122900035e-5, 9.02204821126634]
      },
      {
        "species": [{ "element": "Ti", "occu": 1 }],
        "abc": [3.893e-5, 1.9980000000000005e-5, 0.83708163],
        "properties": { "magmom": -0.0 },
        "label": "Ti",
        "xyz": [0.0002671481410961, -0.0005572052606075, 15.11080043951329]
      },
      {
        "species": [{ "element": "Ti", "occu": 1 }],
        "abc": [1.02e-5, -5.4320000000000015e-5, 0.16314089],
        "properties": { "magmom": -0.0 },
        "label": "Ti",
        "xyz": [
          -4.317195284960002e-5, -0.0002890559051249001, 2.944980929063814
        ]
      },
      {
        "species": [{ "element": "S", "occu": 1 }],
        "abc": [0.33333399, 0.6666838700000001, 0.57745504],
        "properties": { "magmom": 0.0 },
        "label": "S",
        "xyz": [1.7129990242720774, 0.9886412495740654, 10.424080048631485]
      },
      {
        "species": [{ "element": "S", "occu": 1 }],
        "abc": [0.33329192, 0.6666875800000001, 0.91468248],
        "properties": { "magmom": 0.0 },
        "label": "S",
        "xyz": [1.7130002933079944, 0.9885752417669043, 16.5116303651826]
      },
      {
        "species": [{ "element": "S", "occu": 1 }],
        "abc": [0.3333007, 0.66665326, 0.24087946000000002],
        "properties": { "magmom": 0.0 },
        "label": "S",
        "xyz": [1.7128227293086928, 0.9888506372331232, 4.34829694619387]
      },
      {
        "species": [{ "element": "S", "occu": 1 }],
        "abc": [0.6666169, 0.33327456, 0.75928381],
        "properties": { "magmom": 0.0 },
        "label": "S",
        "xyz": [1.7128102509602097, -0.9894044654542963, 13.70648543878237]
      },
      {
        "species": [{ "element": "S", "occu": 1 }],
        "abc": [0.6666692200000001, 0.33334148, 0.08559468],
        "properties": { "magmom": -0.0 },
        "label": "S",
        "xyz": [1.7128806966640484, -0.9889579532283179, 1.545207933847245]
      },
      {
        "species": [{ "element": "S", "occu": 1 }],
        "abc": [0.66684228, 0.33340593, 0.42209439],
        "properties": { "magmom": 0.0 },
        "label": "S",
        "xyz": [1.713354343040222, -0.989481566462782, 7.619621467000631]
      }
    ]
  },
  "task_ids": null,
  "uncorrected_energy_per_atom": null,
  "energy_per_atom": -6.997609726666667,
  "formation_energy_per_atom": -1.606872676111109,
  "energy_above_hull": 0.0,
  "is_stable": true,
  "equilibrium_reaction_energy_per_atom": null,
  "decomposes_to": null,
  "xas": null,
  "grain_boundaries": null,
  "band_gap": 0.0,
  "cbm": null,
  "vbm": null,
  "efermi": 4.02478583,
  "is_gap_direct": null,
  "is_metal": null,
  "es_source_calc_id": null,
  "bandstructure": null,
  "dos": null,
  "dos_energy_up": null,
  "dos_energy_down": null,
  "is_magnetic": null,
  "ordering": null,
  "total_magnetization": 0.0,
  "total_magnetization_normalized_vol": null,
  "total_magnetization_normalized_formula_units": null,
  "num_magnetic_sites": null,
  "num_unique_magnetic_sites": null,
  "types_of_magnetic_species": null,
  "bulk_modulus": null,
  "shear_modulus": null,
  "universal_anisotropy": null,
  "homogeneous_poisson": null,
  "e_total": null,
  "e_ionic": null,
  "e_electronic": null,
  "n": null,
  "e_ij_max": null,
  "weighted_surface_energy_EV_PER_ANG2": null,
  "weighted_surface_energy": null,
  "weighted_work_function": null,
  "surface_anisotropy": null,
  "shape_factor": null,
  "has_reconstructed": null,
  "possible_species": null,
  "has_props": null,
  "theoretical": null,
  "database_IDs": null,
  "fields_not_requested": [
    "builder_meta",
    "nsites",
    "elements",
    "nelements",
    "composition",
    "composition_reduced",
    "chemsys",
    "symmetry",
    "property_name",
    "deprecated",
    "deprecation_reasons",
    "last_updated",
    "origins",
    "warnings",
    "task_ids",
    "uncorrected_energy_per_atom",
    "equilibrium_reaction_energy_per_atom",
    "decomposes_to",
    "xas",
    "grain_boundaries",
    "cbm",
    "vbm",
    "is_gap_direct",
    "is_metal",
    "es_source_calc_id",
    "bandstructure",
    "dos",
    "dos_energy_up",
    "dos_energy_down",
    "is_magnetic",
    "ordering",
    "total_magnetization_normalized_vol",
    "total_magnetization_normalized_formula_units",
    "num_magnetic_sites",
    "num_unique_magnetic_sites",
    "types_of_magnetic_species",
    "bulk_modulus",
    "shear_modulus",
    "universal_anisotropy",
    "homogeneous_poisson",
    "e_total",
    "e_ionic",
    "e_electronic",
    "n",
    "e_ij_max",
    "weighted_surface_energy_EV_PER_ANG2",
    "weighted_surface_energy",
    "weighted_work_function",
    "surface_anisotropy",
    "shape_factor",
    "has_reconstructed",
    "possible_species",
    "has_props",
    "theoretical",
    "database_IDs"
  ]
}
