{
  "builder_meta": null,
  "nsites": null,
  "elements": null,
  "nelements": null,
  "composition": null,
  "composition_reduced": null,
  "formula_pretty": "TiS3",
  "formula_anonymous": "AB3",
  "chemsys": null,
  "volume": 153.2064428549375,
  "density": 3.12285272805444,
  "density_atomic": 19.15080535686719,
  "symmetry": null,
  "property_name": null,
  "material_id": "mp-9920",
  "deprecated": null,
  "deprecation_reasons": null,
  "last_updated": null,
  "origins": null,
  "warnings": null,
  "structure": {
    "@module": "pymatgen.core.structure",
    "@class": "Structure",
    "charge": 0,
    "lattice": {
      "matrix": [
        [3.41651673, 0.0, 0.0],
        [0.0, 5.03311235, -0.0209394],
        [0.0, 1.10435565, 8.90497774]
      ],
      "pbc": [true, true, true],
      "a": 3.41651673,
      "b": 5.033155907201254,
      "c": 8.973195080437202,
      "alpha": 83.16889570160917,
      "beta": 90.0,
      "gamma": 90.0,
      "volume": 153.2064428549375
    },
    "properties": {},
    "sites": [
      {
        "species": [{ "element": "Ti", "occu": 1 }],
        "abc": [0.25, 0.71869031, 0.64942458],
        "properties": { "magmom": 0.0 },
        "label": "Ti",
        "xyz": [0.8541291825, 4.334444779258206, 5.768062484831636]
      },
      {
        "species": [{ "element": "Ti", "occu": 1 }],
        "abc": [0.75, 0.28130969, 0.35057542],
        "properties": { "magmom": 0.0 },
        "label": "Ti",
        "xyz": [2.5623875475, 1.8030232207417944, 3.1159758551683647]
      },
      {
        "species": [{ "element": "S", "occu": 1 }],
        "abc": [0.25, 0.11700772, 0.18099896000000001],
        "properties": { "magmom": 0.0 },
        "label": "S",
        "xyz": [0.8541291825, 0.788800224697466, 1.6093416383109824]
      },
      {
        "species": [{ "element": "S", "occu": 1 }],
        "abc": [0.75, 0.8829922800000001, 0.8190010400000001],
        "properties": { "magmom": 0.0 },
        "label": "S",
        "xyz": [2.5623875475, 5.348667775302534, 7.274696701689018]
      },
      {
        "species": [{ "element": "S", "occu": 1 }],
        "abc": [0.75, 0.76053359, 0.45121338],
        "properties": { "magmom": 0.0 },
        "label": "S",
        "xyz": [2.5623875475, 4.326151049977433, 4.002119987835715]
      },
      {
        "species": [{ "element": "S", "occu": 1 }],
        "abc": [0.25, 0.23946641000000002, 0.54878662],
        "properties": { "magmom": 0.0 },
        "label": "S",
        "xyz": [0.8541291825, 1.8113169500225665, 4.881918352164284]
      },
      {
        "species": [{ "element": "S", "occu": 1 }],
        "abc": [0.75, 0.48080154, 0.81751569],
        "properties": { "magmom": 0.0 },
        "label": "S",
        "xyz": [2.5623875475, 3.3227562400881676, 7.269891325784065]
      },
      {
        "species": [{ "element": "S", "occu": 1 }],
        "abc": [0.25, 0.51919846, 0.18248431],
        "properties": { "magmom": 0.0 },
        "label": "S",
        "xyz": [0.8541291825, 2.8147117599118325, 1.6141470142159355]
      }
    ]
  },
  "task_ids": null,
  "uncorrected_energy_per_atom": null,
  "energy_per_atom": -6.41866354375,
  "formation_energy_per_atom": -1.341020863958332,
  "energy_above_hull": 0.0,
  "is_stable": true,
  "equilibrium_reaction_energy_per_atom": null,
  "decomposes_to": null,
  "xas": null,
  "grain_boundaries": null,
  "band_gap": 0.22610000000000002,
  "cbm": null,
  "vbm": null,
  "efermi": 4.34122707,
  "is_gap_direct": null,
  "is_metal": null,
  "es_source_calc_id": null,
  "bandstructure": null,
  "dos": null,
  "dos_energy_up": null,
  "dos_energy_down": null,
  "is_magnetic": null,
  "ordering": null,
  "total_magnetization": 0.0,
  "total_magnetization_normalized_vol": null,
  "total_magnetization_normalized_formula_units": null,
  "num_magnetic_sites": null,
  "num_unique_magnetic_sites": null,
  "types_of_magnetic_species": null,
  "bulk_modulus": null,
  "shear_modulus": null,
  "universal_anisotropy": null,
  "homogeneous_poisson": null,
  "e_total": null,
  "e_ionic": null,
  "e_electronic": null,
  "n": null,
  "e_ij_max": null,
  "weighted_surface_energy_EV_PER_ANG2": null,
  "weighted_surface_energy": null,
  "weighted_work_function": null,
  "surface_anisotropy": null,
  "shape_factor": null,
  "has_reconstructed": null,
  "possible_species": null,
  "has_props": null,
  "theoretical": null,
  "database_IDs": null,
  "fields_not_requested": [
    "builder_meta",
    "nsites",
    "elements",
    "nelements",
    "composition",
    "composition_reduced",
    "chemsys",
    "symmetry",
    "property_name",
    "deprecated",
    "deprecation_reasons",
    "last_updated",
    "origins",
    "warnings",
    "task_ids",
    "uncorrected_energy_per_atom",
    "equilibrium_reaction_energy_per_atom",
    "decomposes_to",
    "xas",
    "grain_boundaries",
    "cbm",
    "vbm",
    "is_gap_direct",
    "is_metal",
    "es_source_calc_id",
    "bandstructure",
    "dos",
    "dos_energy_up",
    "dos_energy_down",
    "is_magnetic",
    "ordering",
    "total_magnetization_normalized_vol",
    "total_magnetization_normalized_formula_units",
    "num_magnetic_sites",
    "num_unique_magnetic_sites",
    "types_of_magnetic_species",
    "bulk_modulus",
    "shear_modulus",
    "universal_anisotropy",
    "homogeneous_poisson",
    "e_total",
    "e_ionic",
    "e_electronic",
    "n",
    "e_ij_max",
    "weighted_surface_energy_EV_PER_ANG2",
    "weighted_surface_energy",
    "weighted_work_function",
    "surface_anisotropy",
    "shape_factor",
    "has_reconstructed",
    "possible_species",
    "has_props",
    "theoretical",
    "database_IDs"
  ]
}
