{
  "builder_meta": null,
  "nsites": null,
  "elements": null,
  "nelements": null,
  "composition": null,
  "composition_reduced": null,
  "formula_pretty": "TiSb2",
  "formula_anonymous": "AB2",
  "chemsys": null,
  "volume": 130.2037676005016,
  "density": 7.432342487722455,
  "density_atomic": 21.700627933416936,
  "symmetry": null,
  "property_name": null,
  "material_id": "mp-568",
  "deprecated": null,
  "deprecation_reasons": null,
  "last_updated": null,
  "origins": null,
  "warnings": null,
  "structure": {
    "@module": "pymatgen.core.structure",
    "@class": "Structure",
    "charge": 0,
    "lattice": {
      "matrix": [
        [5.34255133, -0.02240739, -1.5229846500000002],
        [-3.04860642, 4.38740927, -1.52298466],
        [0.01177622, 0.02240737, 5.55537721]
      ],
      "pbc": [true, true, true],
      "a": 5.5554332908376285,
      "b": 5.555433689743985,
      "c": 5.5554348808149285,
      "alpha": 105.79035455052994,
      "beta": 105.79034841796917,
      "gamma": 117.11408632174675,
      "volume": 130.2037676005016
    },
    "properties": {},
    "sites": [
      {
        "species": [{ "element": "Ti", "occu": 1 }],
        "abc": [0.75, 0.75, 0.0],
        "properties": { "magmom": -0.0 },
        "label": "Ti",
        "xyz": [1.7204586825000003, 3.27375141, -2.2844769825]
      },
      {
        "species": [{ "element": "Ti", "occu": 1 }],
        "abc": [0.25, 0.25, 0.0],
        "properties": { "magmom": -0.0 },
        "label": "Ti",
        "xyz": [0.5734862275, 1.09125047, -0.7614923275000001]
      },
      {
        "species": [{ "element": "Sb", "occu": 1 }],
        "abc": [0.84796141, 0.65203859, 0.5],
        "properties": { "magmom": 0.0 },
        "label": "Sb",
        "xyz": [2.5483564372224277, 2.8529632371449094, 0.4932116234796138]
      },
      {
        "species": [{ "element": "Sb", "occu": 1 }],
        "abc": [0.34796141, 0.84796141, 0.19592283],
        "properties": { "magmom": 0.0 },
        "label": "Sb",
        "xyz": [-0.7237916743049745, 3.716946959160708, -0.7329468812236231]
      },
      {
        "species": [{ "element": "Sb", "occu": 1 }],
        "abc": [0.15203859, 0.34796141, 0.5],
        "properties": { "magmom": 0.0 },
        "label": "Sb",
        "xyz": [-0.24263530722242754, 1.5344460128550905, 2.0161962765203856]
      },
      {
        "species": [{ "element": "Sb", "occu": 1 }],
        "abc": [0.65203859, 0.15203859, 0.80407717],
        "properties": { "magmom": 0.0 },
        "label": "Sb",
        "xyz": [3.029512804304974, 0.6704622908392921, 3.2423547812236224]
      }
    ]
  },
  "task_ids": null,
  "uncorrected_energy_per_atom": null,
  "energy_per_atom": -21.859100086666672,
  "formation_energy_per_atom": -0.40897059555555404,
  "energy_above_hull": 0.0,
  "is_stable": true,
  "equilibrium_reaction_energy_per_atom": null,
  "decomposes_to": null,
  "xas": null,
  "grain_boundaries": null,
  "band_gap": 0.0,
  "cbm": null,
  "vbm": null,
  "efermi": 8.91660244,
  "is_gap_direct": null,
  "is_metal": null,
  "es_source_calc_id": null,
  "bandstructure": null,
  "dos": null,
  "dos_energy_up": null,
  "dos_energy_down": null,
  "is_magnetic": null,
  "ordering": null,
  "total_magnetization": 0.0,
  "total_magnetization_normalized_vol": null,
  "total_magnetization_normalized_formula_units": null,
  "num_magnetic_sites": null,
  "num_unique_magnetic_sites": null,
  "types_of_magnetic_species": null,
  "bulk_modulus": null,
  "shear_modulus": null,
  "universal_anisotropy": null,
  "homogeneous_poisson": null,
  "e_total": null,
  "e_ionic": null,
  "e_electronic": null,
  "n": null,
  "e_ij_max": null,
  "weighted_surface_energy_EV_PER_ANG2": null,
  "weighted_surface_energy": null,
  "weighted_work_function": null,
  "surface_anisotropy": null,
  "shape_factor": null,
  "has_reconstructed": null,
  "possible_species": null,
  "has_props": null,
  "theoretical": null,
  "database_IDs": null,
  "fields_not_requested": [
    "builder_meta",
    "nsites",
    "elements",
    "nelements",
    "composition",
    "composition_reduced",
    "chemsys",
    "symmetry",
    "property_name",
    "deprecated",
    "deprecation_reasons",
    "last_updated",
    "origins",
    "warnings",
    "task_ids",
    "uncorrected_energy_per_atom",
    "equilibrium_reaction_energy_per_atom",
    "decomposes_to",
    "xas",
    "grain_boundaries",
    "cbm",
    "vbm",
    "is_gap_direct",
    "is_metal",
    "es_source_calc_id",
    "bandstructure",
    "dos",
    "dos_energy_up",
    "dos_energy_down",
    "is_magnetic",
    "ordering",
    "total_magnetization_normalized_vol",
    "total_magnetization_normalized_formula_units",
    "num_magnetic_sites",
    "num_unique_magnetic_sites",
    "types_of_magnetic_species",
    "bulk_modulus",
    "shear_modulus",
    "universal_anisotropy",
    "homogeneous_poisson",
    "e_total",
    "e_ionic",
    "e_electronic",
    "n",
    "e_ij_max",
    "weighted_surface_energy_EV_PER_ANG2",
    "weighted_surface_energy",
    "weighted_work_function",
    "surface_anisotropy",
    "shape_factor",
    "has_reconstructed",
    "possible_species",
    "has_props",
    "theoretical",
    "database_IDs"
  ]
}
