{
  "builder_meta": null,
  "nsites": null,
  "elements": null,
  "nelements": null,
  "composition": null,
  "composition_reduced": null,
  "formula_pretty": "TiSb",
  "formula_anonymous": "AB",
  "chemsys": null,
  "volume": 88.21455415101838,
  "density": 6.38607229750209,
  "density_atomic": 22.053638537754594,
  "symmetry": null,
  "property_name": null,
  "material_id": "mp-2187",
  "deprecated": null,
  "deprecation_reasons": null,
  "last_updated": null,
  "origins": null,
  "warnings": null,
  "structure": {
    "@module": "pymatgen.core.structure",
    "@class": "Structure",
    "charge": 0,
    "lattice": {
      "matrix": [
        [4.06298061, -0.0, -0.0],
        [-2.0314903, 3.51864432, 0.0],
        [-0.0, 0.0, 6.17049671]
      ],
      "pbc": [true, true, true],
      "a": 4.06298061,
      "b": 4.0629805180018215,
      "c": 6.17049671,
      "alpha": 90.0,
      "beta": 90.0,
      "gamma": 120.0000006676079,
      "volume": 88.21455415101838
    },
    "properties": {},
    "sites": [
      {
        "species": [{ "element": "Ti", "occu": 1 }],
        "abc": [-0.0, -0.0, 0.0],
        "properties": { "magmom": -0.0 },
        "label": "Ti",
        "xyz": [0.0, 0.0, 0.0]
      },
      {
        "species": [{ "element": "Ti", "occu": 1 }],
        "abc": [-0.0, -0.0, 0.5],
        "properties": { "magmom": -0.0 },
        "label": "Ti",
        "xyz": [0.0, 0.0, 3.085248355]
      },
      {
        "species": [{ "element": "Sb", "occu": 1 }],
        "abc": [0.333333, 0.666667, 0.25],
        "properties": { "magmom": 0.0 },
        "label": "Sb",
        "xyz": [-2.0281569701463553e-6, 2.34576405288144, 1.5426241775]
      },
      {
        "species": [{ "element": "Sb", "occu": 1 }],
        "abc": [0.666667, 0.333333, 0.75],
        "properties": { "magmom": 0.0 },
        "label": "Sb",
        "xyz": [2.03149233815697, 1.1728802671185599, 4.6278725325]
      }
    ]
  },
  "task_ids": null,
  "uncorrected_energy_per_atom": null,
  "energy_per_atom": -19.875973365,
  "formation_energy_per_atom": -0.553936993333334,
  "energy_above_hull": 0.0,
  "is_stable": true,
  "equilibrium_reaction_energy_per_atom": null,
  "decomposes_to": null,
  "xas": null,
  "grain_boundaries": null,
  "band_gap": 0.0,
  "cbm": null,
  "vbm": null,
  "efermi": 7.44055887,
  "is_gap_direct": null,
  "is_metal": null,
  "es_source_calc_id": null,
  "bandstructure": null,
  "dos": null,
  "dos_energy_up": null,
  "dos_energy_down": null,
  "is_magnetic": null,
  "ordering": null,
  "total_magnetization": 7.510000000000001e-5,
  "total_magnetization_normalized_vol": null,
  "total_magnetization_normalized_formula_units": null,
  "num_magnetic_sites": null,
  "num_unique_magnetic_sites": null,
  "types_of_magnetic_species": null,
  "bulk_modulus": null,
  "shear_modulus": null,
  "universal_anisotropy": null,
  "homogeneous_poisson": null,
  "e_total": null,
  "e_ionic": null,
  "e_electronic": null,
  "n": null,
  "e_ij_max": null,
  "weighted_surface_energy_EV_PER_ANG2": null,
  "weighted_surface_energy": null,
  "weighted_work_function": null,
  "surface_anisotropy": null,
  "shape_factor": null,
  "has_reconstructed": null,
  "possible_species": null,
  "has_props": null,
  "theoretical": null,
  "database_IDs": null,
  "fields_not_requested": [
    "builder_meta",
    "nsites",
    "elements",
    "nelements",
    "composition",
    "composition_reduced",
    "chemsys",
    "symmetry",
    "property_name",
    "deprecated",
    "deprecation_reasons",
    "last_updated",
    "origins",
    "warnings",
    "task_ids",
    "uncorrected_energy_per_atom",
    "equilibrium_reaction_energy_per_atom",
    "decomposes_to",
    "xas",
    "grain_boundaries",
    "cbm",
    "vbm",
    "is_gap_direct",
    "is_metal",
    "es_source_calc_id",
    "bandstructure",
    "dos",
    "dos_energy_up",
    "dos_energy_down",
    "is_magnetic",
    "ordering",
    "total_magnetization_normalized_vol",
    "total_magnetization_normalized_formula_units",
    "num_magnetic_sites",
    "num_unique_magnetic_sites",
    "types_of_magnetic_species",
    "bulk_modulus",
    "shear_modulus",
    "universal_anisotropy",
    "homogeneous_poisson",
    "e_total",
    "e_ionic",
    "e_electronic",
    "n",
    "e_ij_max",
    "weighted_surface_energy_EV_PER_ANG2",
    "weighted_surface_energy",
    "weighted_work_function",
    "surface_anisotropy",
    "shape_factor",
    "has_reconstructed",
    "possible_species",
    "has_props",
    "theoretical",
    "database_IDs"
  ]
}
