{"builder_meta": null, "nsites": null, "elements": null, "nelements": null, "composition": null, "composition_reduced": null, "formula_pretty": "TiSe2", "formula_anonymous": "AB2", "chemsys": null, "volume": 69.53507401505155, "density": 4.914316375422942, "density_atomic": 23.178358005017184, "symmetry": null, "property_name": null, "material_id": "mp-2194", "deprecated": null, "deprecation_reasons": null, "last_updated": null, "origins": null, "warnings": null, "structure": {"@module": "pymatgen.core.structure", "@class": "Structure", "charge": 0, "lattice": {"matrix": [[3.55656645, -1e-08, 0.0], [-1.77828375, 3.08007771, 0.0], [0.0, 0.0, 6.34762586]], "pbc": [true, true, true], "a": 3.55656645, "b": 3.5565674174901996, "c": 6.34762586, "alpha": 90.0, "beta": 90.0, "gamma": 120.00000092852456, "volume": 69.53507401505155}, "properties": {}, "sites": [{"species": [{"element": "Ti", "occu": 1}], "abc": [-0.0, -0.0, -0.0], "properties": {"magmom": 0.0}, "label": "Ti", "xyz": [0.0, 0.0, 0.0]}, {"species": [{"element": "Se", "occu": 1}], "abc": [0.333333, 0.666667, 0.23992784], "properties": {"magmom": -0.0}, "label": "Se", "xyz": [-2.1282833999602957e-06, 2.05338616335924, 1.5229721617179424]}, {"species": [{"element": "Se", "occu": 1}], "abc": [0.666667, 0.333333, 0.76007216], "properties": {"magmom": -0.0}, "label": "Se", "xyz": [1.7782848282834003, 1.0266915366407598, 4.824653698282058]}]}, "task_ids": null, "uncorrected_energy_per_atom": null, "energy_per_atom": -6.388783286666668, "formation_energy_per_atom": -1.426344962673612, "energy_above_hull": 0.0, "is_stable": true, "equilibrium_reaction_energy_per_atom": null, "decomposes_to": null, "xas": null, "grain_boundaries": null, "band_gap": 0.0, "cbm": null, "vbm": null, "efermi": 3.27506234, "is_gap_direct": null, "is_metal": null, "es_source_calc_id": null, "bandstructure": null, "dos": null, "dos_energy_up": null, "dos_energy_down": null, "is_magnetic": null, "ordering": null, "total_magnetization": 0.0, "total_magnetization_normalized_vol": null, "total_magnetization_normalized_formula_units": null, "num_magnetic_sites": null, "num_unique_magnetic_sites": null, "types_of_magnetic_species": null, "bulk_modulus": null, "shear_modulus": null, "universal_anisotropy": null, "homogeneous_poisson": null, "e_total": null, "e_ionic": null, "e_electronic": null, "n": null, "e_ij_max": null, "weighted_surface_energy_EV_PER_ANG2": null, "weighted_surface_energy": null, "weighted_work_function": null, "surface_anisotropy": null, "shape_factor": null, "has_reconstructed": null, "possible_species": null, "has_props": null, "theoretical": null, "database_IDs": null, "fields_not_requested": ["builder_meta", "nsites", "elements", "nelements", "composition", "composition_reduced", "chemsys", "symmetry", "property_name", "deprecated", "deprecation_reasons", "last_updated", "origins", "warnings", "task_ids", "uncorrected_energy_per_atom", "equilibrium_reaction_energy_per_atom", "decomposes_to", "xas", "grain_boundaries", "cbm", "vbm", "is_gap_direct", "is_metal", "es_source_calc_id", "bandstructure", "dos", "dos_energy_up", "dos_energy_down", "is_magnetic", "ordering", "total_magnetization_normalized_vol", "total_magnetization_normalized_formula_units", "num_magnetic_sites", "num_unique_magnetic_sites", "types_of_magnetic_species", "bulk_modulus", "shear_modulus", "universal_anisotropy", "homogeneous_poisson", "e_total", "e_ionic", "e_electronic", "n", "e_ij_max", "weighted_surface_energy_EV_PER_ANG2", "weighted_surface_energy", "weighted_work_function", "surface_anisotropy", "shape_factor", "has_reconstructed", "possible_species", "has_props", "theoretical", "database_IDs"]}