{
  "builder_meta": null,
  "nsites": null,
  "elements": null,
  "nelements": null,
  "composition": null,
  "composition_reduced": null,
  "formula_pretty": "TiSe",
  "formula_anonymous": "AB",
  "chemsys": null,
  "volume": 140.71188852146295,
  "density": 5.986734750349255,
  "density_atomic": 17.58898606518287,
  "symmetry": null,
  "property_name": null,
  "material_id": "mp-571651",
  "deprecated": null,
  "deprecation_reasons": null,
  "last_updated": null,
  "origins": null,
  "warnings": null,
  "structure": {
    "@module": "pymatgen.core.structure",
    "@class": "Structure",
    "charge": 0,
    "lattice": {
      "matrix": [
        [3.4926397700000003, -0.0, 0.0],
        [0.0, 6.24232284, 0.0],
        [0.0, 0.0, 6.4540269]
      ],
      "pbc": [true, true, true],
      "a": 3.4926397700000003,
      "b": 6.24232284,
      "c": 6.4540269,
      "alpha": 90.0,
      "beta": 90.0,
      "gamma": 90.0,
      "volume": 140.71188852146295
    },
    "properties": {},
    "sites": [
      {
        "species": [{ "element": "Ti", "occu": 1 }],
        "abc": [0.25, 0.69205023, 0.50599802],
        "properties": { "magmom": 0.156 },
        "label": "Ti",
        "xyz": [0.8731599425000001, 4.320000957156253, 3.2657248324267383]
      },
      {
        "species": [{ "element": "Ti", "occu": 1 }],
        "abc": [0.25, 0.80794977, 0.00599802],
        "properties": { "magmom": 0.156 },
        "label": "Ti",
        "xyz": [0.8731599425000001, 5.043483302843747, 0.038711382426737995]
      },
      {
        "species": [{ "element": "Ti", "occu": 1 }],
        "abc": [0.75, 0.30794977, 0.49400198],
        "properties": { "magmom": 0.156 },
        "label": "Ti",
        "xyz": [2.6194798275, 1.922321882843747, 3.188302067573262]
      },
      {
        "species": [{ "element": "Ti", "occu": 1 }],
        "abc": [0.75, 0.19205023000000002, 0.9940019800000001],
        "properties": { "magmom": 0.156 },
        "label": "Ti",
        "xyz": [2.6194798275, 1.1988395371562532, 6.415315517573262]
      },
      {
        "species": [{ "element": "Se", "occu": 1 }],
        "abc": [0.75, 0.91714446, 0.28403287],
        "properties": { "magmom": -0.007 },
        "label": "Se",
        "xyz": [2.6194798275, 5.7251118102374665, 1.833155783464203]
      },
      {
        "species": [{ "element": "Se", "occu": 1 }],
        "abc": [0.25, 0.08285554, 0.71596713],
        "properties": { "magmom": -0.007 },
        "label": "Se",
        "xyz": [0.8731599425000001, 0.5172110297625336, 4.620871116535797]
      },
      {
        "species": [{ "element": "Se", "occu": 1 }],
        "abc": [0.25, 0.41714446, 0.21596713],
        "properties": { "magmom": -0.007 },
        "label": "Se",
        "xyz": [0.8731599425000001, 2.6039503902374666, 1.393857666535797]
      },
      {
        "species": [{ "element": "Se", "occu": 1 }],
        "abc": [0.75, 0.5828555400000001, 0.78403287],
        "properties": { "magmom": -0.007 },
        "label": "Se",
        "xyz": [2.6194798275, 3.638372449762534, 5.060169233464203]
      }
    ]
  },
  "task_ids": null,
  "uncorrected_energy_per_atom": null,
  "energy_per_atom": -7.045354973749999,
  "formation_energy_per_atom": -1.349653226588541,
  "energy_above_hull": 0.013489690625000002,
  "is_stable": false,
  "equilibrium_reaction_energy_per_atom": null,
  "decomposes_to": null,
  "xas": null,
  "grain_boundaries": null,
  "band_gap": 0.0,
  "cbm": null,
  "vbm": null,
  "efermi": 6.98158356,
  "is_gap_direct": null,
  "is_metal": null,
  "es_source_calc_id": null,
  "bandstructure": null,
  "dos": null,
  "dos_energy_up": null,
  "dos_energy_down": null,
  "is_magnetic": null,
  "ordering": null,
  "total_magnetization": 0.6699986,
  "total_magnetization_normalized_vol": null,
  "total_magnetization_normalized_formula_units": null,
  "num_magnetic_sites": null,
  "num_unique_magnetic_sites": null,
  "types_of_magnetic_species": null,
  "bulk_modulus": null,
  "shear_modulus": null,
  "universal_anisotropy": null,
  "homogeneous_poisson": null,
  "e_total": null,
  "e_ionic": null,
  "e_electronic": null,
  "n": null,
  "e_ij_max": null,
  "weighted_surface_energy_EV_PER_ANG2": null,
  "weighted_surface_energy": null,
  "weighted_work_function": null,
  "surface_anisotropy": null,
  "shape_factor": null,
  "has_reconstructed": null,
  "possible_species": null,
  "has_props": null,
  "theoretical": null,
  "database_IDs": null,
  "fields_not_requested": [
    "builder_meta",
    "nsites",
    "elements",
    "nelements",
    "composition",
    "composition_reduced",
    "chemsys",
    "symmetry",
    "property_name",
    "deprecated",
    "deprecation_reasons",
    "last_updated",
    "origins",
    "warnings",
    "task_ids",
    "uncorrected_energy_per_atom",
    "equilibrium_reaction_energy_per_atom",
    "decomposes_to",
    "xas",
    "grain_boundaries",
    "cbm",
    "vbm",
    "is_gap_direct",
    "is_metal",
    "es_source_calc_id",
    "bandstructure",
    "dos",
    "dos_energy_up",
    "dos_energy_down",
    "is_magnetic",
    "ordering",
    "total_magnetization_normalized_vol",
    "total_magnetization_normalized_formula_units",
    "num_magnetic_sites",
    "num_unique_magnetic_sites",
    "types_of_magnetic_species",
    "bulk_modulus",
    "shear_modulus",
    "universal_anisotropy",
    "homogeneous_poisson",
    "e_total",
    "e_ionic",
    "e_electronic",
    "n",
    "e_ij_max",
    "weighted_surface_energy_EV_PER_ANG2",
    "weighted_surface_energy",
    "weighted_work_function",
    "surface_anisotropy",
    "shape_factor",
    "has_reconstructed",
    "possible_species",
    "has_props",
    "theoretical",
    "database_IDs"
  ]
}
