{"builder_meta": null, "nsites": null, "elements": null, "nelements": null, "composition": null, "composition_reduced": null, "formula_pretty": "TiSi2", "formula_anonymous": "AB2", "chemsys": null, "volume": 85.07105327119068, "density": 4.061526377490749, "density_atomic": 14.17850887853178, "symmetry": null, "property_name": null, "material_id": "mp-1077503", "deprecated": null, "deprecation_reasons": null, "last_updated": null, "origins": null, "warnings": null, "structure": {"@module": "pymatgen.core.structure", "@class": "Structure", "charge": 0, "lattice": {"matrix": [[-3.53021005, -1e-08, -0.0], [0.0, 0.0, -3.56517397], [1.7651035, -6.75928153, -0.0]], "pbc": [true, true, true], "a": 3.53021005, "b": 3.56517397, "c": 6.98594855173665, "alpha": 90.0, "beta": 104.63525911812947, "gamma": 90.0, "volume": 85.07105327119068}, "properties": {}, "sites": [{"species": [{"element": "Ti", "occu": 1}], "abc": [0.89688193, 0.75, 0.79376385], "properties": {"magmom": 0.0}, "label": "Ti", "xyz": [-1.7651062531409214, -5.36527333945551, -2.6738804775]}, {"species": [{"element": "Ti", "occu": 1}], "abc": [0.10311807, 0.25, 0.20623615], "properties": {"magmom": 0.0}, "label": "Ti", "xyz": [-2.968590784857561e-07, -1.3940082005444903, -0.8912934925]}, {"species": [{"element": "Si", "occu": 1}], "abc": [0.55825096, 0.75, 0.11650292], "properties": {"magmom": -0.0}, "label": "Si", "xyz": [-1.765103437561928, -0.7874760409295771, -2.6738804775]}, {"species": [{"element": "Si", "occu": 1}], "abc": [0.44174904, 0.25, 0.88349708], "properties": {"magmom": -0.0}, "label": "Si", "xyz": [-3.112438071939394e-06, -5.971805499070423, -0.8912934925]}, {"species": [{"element": "Si", "occu": 1}], "abc": [0.24968419, 0.75, 0.49937037], "properties": {"magmom": -0.0}, "label": "Si", "xyz": [2.751019185454062e-06, -3.375384921067108, -2.6738804775]}, {"species": [{"element": "Si", "occu": 1}], "abc": [0.75031581, 0.25, 0.50062963], "properties": {"magmom": -0.0}, "label": "Si", "xyz": [-1.7651093010191854, -3.3838966189328925, -0.8912934925]}]}, "task_ids": null, "uncorrected_energy_per_atom": null, "energy_per_atom": -10.699797833333333, "formation_energy_per_atom": -0.538035765555555, "energy_above_hull": 0.0, "is_stable": true, "equilibrium_reaction_energy_per_atom": null, "decomposes_to": null, "xas": null, "grain_boundaries": null, "band_gap": 0.0, "cbm": null, "vbm": null, "efermi": 9.52663801, "is_gap_direct": null, "is_metal": null, "es_source_calc_id": null, "bandstructure": null, "dos": null, "dos_energy_up": null, "dos_energy_down": null, "is_magnetic": null, "ordering": null, "total_magnetization": 1.899999999999999e-06, "total_magnetization_normalized_vol": null, "total_magnetization_normalized_formula_units": null, "num_magnetic_sites": null, "num_unique_magnetic_sites": null, "types_of_magnetic_species": null, "bulk_modulus": null, "shear_modulus": null, "universal_anisotropy": null, "homogeneous_poisson": null, "e_total": null, "e_ionic": null, "e_electronic": null, "n": null, "e_ij_max": null, "weighted_surface_energy_EV_PER_ANG2": null, "weighted_surface_energy": null, "weighted_work_function": null, "surface_anisotropy": null, "shape_factor": null, "has_reconstructed": null, "possible_species": null, "has_props": null, "theoretical": null, "database_IDs": null, "fields_not_requested": ["builder_meta", "nsites", "elements", "nelements", "composition", "composition_reduced", "chemsys", "symmetry", "property_name", "deprecated", "deprecation_reasons", "last_updated", "origins", "warnings", "task_ids", "uncorrected_energy_per_atom", "equilibrium_reaction_energy_per_atom", "decomposes_to", "xas", "grain_boundaries", "cbm", "vbm", "is_gap_direct", "is_metal", "es_source_calc_id", "bandstructure", "dos", "dos_energy_up", "dos_energy_down", "is_magnetic", "ordering", "total_magnetization_normalized_vol", "total_magnetization_normalized_formula_units", "num_magnetic_sites", "num_unique_magnetic_sites", "types_of_magnetic_species", "bulk_modulus", "shear_modulus", "universal_anisotropy", "homogeneous_poisson", "e_total", "e_ionic", "e_electronic", "n", "e_ij_max", "weighted_surface_energy_EV_PER_ANG2", "weighted_surface_energy", "weighted_work_function", "surface_anisotropy", "shape_factor", "has_reconstructed", "possible_species", "has_props", "theoretical", "database_IDs"]}