{
  "builder_meta": null,
  "nsites": null,
  "elements": null,
  "nelements": null,
  "composition": null,
  "composition_reduced": null,
  "formula_pretty": "TiSi",
  "formula_anonymous": "AB",
  "chemsys": null,
  "volume": 118.09958047739894,
  "density": 4.271720287103741,
  "density_atomic": 14.762447559674868,
  "symmetry": null,
  "property_name": null,
  "material_id": "mp-7092",
  "deprecated": null,
  "deprecation_reasons": null,
  "last_updated": null,
  "origins": null,
  "warnings": null,
  "structure": {
    "@module": "pymatgen.core.structure",
    "@class": "Structure",
    "charge": 0,
    "lattice": {
      "matrix": [
        [3.63174164, 0.0, 0.0],
        [-0.0, 4.99348361, 0.0],
        [0.0, 0.0, 6.51223075]
      ],
      "pbc": [true, true, true],
      "a": 3.63174164,
      "b": 4.99348361,
      "c": 6.51223075,
      "alpha": 90.0,
      "beta": 90.0,
      "gamma": 90.0,
      "volume": 118.09958047739894
    },
    "properties": {},
    "sites": [
      {
        "species": [{ "element": "Ti", "occu": 1 }],
        "abc": [0.25, 0.37178419, 0.67568383],
        "properties": { "magmom": -0.0 },
        "label": "Ti",
        "xyz": [0.90793541, 1.856498259222126, 4.400209015003772]
      },
      {
        "species": [{ "element": "Ti", "occu": 1 }],
        "abc": [0.75, 0.62821581, 0.32431617],
        "properties": { "magmom": -0.0 },
        "label": "Ti",
        "xyz": [2.72380623, 3.1369853507778744, 2.1120217349962274]
      },
      {
        "species": [{ "element": "Ti", "occu": 1 }],
        "abc": [0.75, 0.8717841900000001, 0.82431617],
        "properties": { "magmom": -0.0 },
        "label": "Ti",
        "xyz": [2.72380623, 4.353240064222127, 5.368137109996227]
      },
      {
        "species": [{ "element": "Ti", "occu": 1 }],
        "abc": [0.25, 0.12821581, 0.17568383],
        "properties": { "magmom": -0.0 },
        "label": "Ti",
        "xyz": [0.90793541, 0.6402435457778742, 1.1440936400037724]
      },
      {
        "species": [{ "element": "Si", "occu": 1 }],
        "abc": [0.25, 0.85539789, 0.54392999],
        "properties": { "magmom": -0.0 },
        "label": "Si",
        "xyz": [0.90793541, 4.271415343743583, 3.542197606725192]
      },
      {
        "species": [{ "element": "Si", "occu": 1 }],
        "abc": [0.75, 0.14460211, 0.45607001],
        "properties": { "magmom": -0.0 },
        "label": "Si",
        "xyz": [2.72380623, 0.7220682662564172, 2.9700331432748075]
      },
      {
        "species": [{ "element": "Si", "occu": 1 }],
        "abc": [0.75, 0.35539789, 0.95607001],
        "properties": { "magmom": -0.0 },
        "label": "Si",
        "xyz": [2.72380623, 1.774673538743583, 6.226148518274807]
      },
      {
        "species": [{ "element": "Si", "occu": 1 }],
        "abc": [0.25, 0.64460211, 0.04392999],
        "properties": { "magmom": -0.0 },
        "label": "Si",
        "xyz": [0.90793541, 3.218810071256417, 0.2860822317251925]
      }
    ]
  },
  "task_ids": null,
  "uncorrected_energy_per_atom": null,
  "energy_per_atom": -11.64112525875,
  "formation_energy_per_atom": -0.785364454583332,
  "energy_above_hull": 0.0,
  "is_stable": true,
  "equilibrium_reaction_energy_per_atom": null,
  "decomposes_to": null,
  "xas": null,
  "grain_boundaries": null,
  "band_gap": 0.0,
  "cbm": null,
  "vbm": null,
  "efermi": 8.1921141,
  "is_gap_direct": null,
  "is_metal": null,
  "es_source_calc_id": null,
  "bandstructure": null,
  "dos": null,
  "dos_energy_up": null,
  "dos_energy_down": null,
  "is_magnetic": null,
  "ordering": null,
  "total_magnetization": 0.0,
  "total_magnetization_normalized_vol": null,
  "total_magnetization_normalized_formula_units": null,
  "num_magnetic_sites": null,
  "num_unique_magnetic_sites": null,
  "types_of_magnetic_species": null,
  "bulk_modulus": null,
  "shear_modulus": null,
  "universal_anisotropy": null,
  "homogeneous_poisson": null,
  "e_total": null,
  "e_ionic": null,
  "e_electronic": null,
  "n": null,
  "e_ij_max": null,
  "weighted_surface_energy_EV_PER_ANG2": null,
  "weighted_surface_energy": null,
  "weighted_work_function": null,
  "surface_anisotropy": null,
  "shape_factor": null,
  "has_reconstructed": null,
  "possible_species": null,
  "has_props": null,
  "theoretical": null,
  "database_IDs": null,
  "fields_not_requested": [
    "builder_meta",
    "nsites",
    "elements",
    "nelements",
    "composition",
    "composition_reduced",
    "chemsys",
    "symmetry",
    "property_name",
    "deprecated",
    "deprecation_reasons",
    "last_updated",
    "origins",
    "warnings",
    "task_ids",
    "uncorrected_energy_per_atom",
    "equilibrium_reaction_energy_per_atom",
    "decomposes_to",
    "xas",
    "grain_boundaries",
    "cbm",
    "vbm",
    "is_gap_direct",
    "is_metal",
    "es_source_calc_id",
    "bandstructure",
    "dos",
    "dos_energy_up",
    "dos_energy_down",
    "is_magnetic",
    "ordering",
    "total_magnetization_normalized_vol",
    "total_magnetization_normalized_formula_units",
    "num_magnetic_sites",
    "num_unique_magnetic_sites",
    "types_of_magnetic_species",
    "bulk_modulus",
    "shear_modulus",
    "universal_anisotropy",
    "homogeneous_poisson",
    "e_total",
    "e_ionic",
    "e_electronic",
    "n",
    "e_ij_max",
    "weighted_surface_energy_EV_PER_ANG2",
    "weighted_surface_energy",
    "weighted_work_function",
    "surface_anisotropy",
    "shape_factor",
    "has_reconstructed",
    "possible_species",
    "has_props",
    "theoretical",
    "database_IDs"
  ]
}
