{
  "builder_meta": null,
  "nsites": null,
  "elements": null,
  "nelements": null,
  "composition": null,
  "composition_reduced": null,
  "formula_pretty": "TiSn3",
  "formula_anonymous": "AB3",
  "chemsys": null,
  "volume": 187.9629594015277,
  "density": 7.138138316455424,
  "density_atomic": 23.495369925190964,
  "symmetry": null,
  "property_name": null,
  "material_id": "mp-972318",
  "deprecated": null,
  "deprecation_reasons": null,
  "last_updated": null,
  "origins": null,
  "warnings": null,
  "structure": {
    "@module": "pymatgen.core.structure",
    "@class": "Structure",
    "charge": 0,
    "lattice": {
      "matrix": [
        [3.143045, -5.443914, 0.0],
        [3.143045, 5.443914, 0.0],
        [0.0, 0.0, 5.492631]
      ],
      "pbc": [true, true, true],
      "a": 6.286090320017761,
      "b": 6.286090320017761,
      "c": 5.492631,
      "alpha": 90.0,
      "beta": 90.0,
      "gamma": 120.00000336810376,
      "volume": 187.9629594015277
    },
    "properties": {},
    "sites": [
      {
        "species": [{ "element": "Ti", "occu": 1 }],
        "abc": [0.333333, 0.666667, 0.75],
        "properties": { "magmom": 0.147 },
        "label": "Ti",
        "xyz": [3.143045, 1.8146416292760001, 4.11947325]
      },
      {
        "species": [{ "element": "Ti", "occu": 1 }],
        "abc": [0.666667, 0.333333, 0.25],
        "properties": { "magmom": 0.147 },
        "label": "Ti",
        "xyz": [3.143045, -1.8146416292760001, 1.37315775]
      },
      {
        "species": [{ "element": "Sn", "occu": 1 }],
        "abc": [0.170864, 0.341728, 0.25],
        "properties": { "magmom": -0.002 },
        "label": "Sn",
        "xyz": [1.6110997226399997, 0.930168921696, 1.37315775]
      },
      {
        "species": [{ "element": "Sn", "occu": 1 }],
        "abc": [0.658272, 0.829136, 0.25],
        "properties": { "magmom": -0.001 },
        "label": "Sn",
        "xyz": [4.674990277359999, 0.9301689216959996, 1.37315775]
      },
      {
        "species": [{ "element": "Sn", "occu": 1 }],
        "abc": [0.170864, 0.829136, 0.25],
        "properties": { "magmom": -0.001 },
        "label": "Sn",
        "xyz": [3.143045, 3.5835761566079998, 1.37315775]
      },
      {
        "species": [{ "element": "Sn", "occu": 1 }],
        "abc": [0.829136, 0.658272, 0.75],
        "properties": { "magmom": -0.002 },
        "label": "Sn",
        "xyz": [4.674990277359999, -0.9301689216959996, 4.11947325]
      },
      {
        "species": [{ "element": "Sn", "occu": 1 }],
        "abc": [0.341728, 0.170864, 0.75],
        "properties": { "magmom": -0.001 },
        "label": "Sn",
        "xyz": [1.6110997226399997, -0.930168921696, 4.11947325]
      },
      {
        "species": [{ "element": "Sn", "occu": 1 }],
        "abc": [0.829136, 0.170864, 0.75],
        "properties": { "magmom": -0.001 },
        "label": "Sn",
        "xyz": [3.143045, -3.5835761566079998, 4.11947325]
      }
    ]
  },
  "task_ids": null,
  "uncorrected_energy_per_atom": null,
  "energy_per_atom": -21.6870682240625,
  "formation_energy_per_atom": 0.107008864270834,
  "energy_above_hull": 0.29467709875000003,
  "is_stable": false,
  "equilibrium_reaction_energy_per_atom": null,
  "decomposes_to": null,
  "xas": null,
  "grain_boundaries": null,
  "band_gap": 0.0,
  "cbm": null,
  "vbm": null,
  "efermi": 8.63665141,
  "is_gap_direct": null,
  "is_metal": null,
  "es_source_calc_id": null,
  "bandstructure": null,
  "dos": null,
  "dos_energy_up": null,
  "dos_energy_down": null,
  "is_magnetic": null,
  "ordering": null,
  "total_magnetization": 0.3424992,
  "total_magnetization_normalized_vol": null,
  "total_magnetization_normalized_formula_units": null,
  "num_magnetic_sites": null,
  "num_unique_magnetic_sites": null,
  "types_of_magnetic_species": null,
  "bulk_modulus": null,
  "shear_modulus": null,
  "universal_anisotropy": null,
  "homogeneous_poisson": null,
  "e_total": null,
  "e_ionic": null,
  "e_electronic": null,
  "n": null,
  "e_ij_max": null,
  "weighted_surface_energy_EV_PER_ANG2": null,
  "weighted_surface_energy": null,
  "weighted_work_function": null,
  "surface_anisotropy": null,
  "shape_factor": null,
  "has_reconstructed": null,
  "possible_species": null,
  "has_props": null,
  "theoretical": null,
  "database_IDs": null,
  "fields_not_requested": [
    "builder_meta",
    "nsites",
    "elements",
    "nelements",
    "composition",
    "composition_reduced",
    "chemsys",
    "symmetry",
    "property_name",
    "deprecated",
    "deprecation_reasons",
    "last_updated",
    "origins",
    "warnings",
    "task_ids",
    "uncorrected_energy_per_atom",
    "equilibrium_reaction_energy_per_atom",
    "decomposes_to",
    "xas",
    "grain_boundaries",
    "cbm",
    "vbm",
    "is_gap_direct",
    "is_metal",
    "es_source_calc_id",
    "bandstructure",
    "dos",
    "dos_energy_up",
    "dos_energy_down",
    "is_magnetic",
    "ordering",
    "total_magnetization_normalized_vol",
    "total_magnetization_normalized_formula_units",
    "num_magnetic_sites",
    "num_unique_magnetic_sites",
    "types_of_magnetic_species",
    "bulk_modulus",
    "shear_modulus",
    "universal_anisotropy",
    "homogeneous_poisson",
    "e_total",
    "e_ionic",
    "e_electronic",
    "n",
    "e_ij_max",
    "weighted_surface_energy_EV_PER_ANG2",
    "weighted_surface_energy",
    "weighted_work_function",
    "surface_anisotropy",
    "shape_factor",
    "has_reconstructed",
    "possible_species",
    "has_props",
    "theoretical",
    "database_IDs"
  ]
}
