{
  "builder_meta": null,
  "nsites": null,
  "elements": null,
  "nelements": null,
  "composition": null,
  "composition_reduced": null,
  "formula_pretty": "TiZn2",
  "formula_anonymous": "AB2",
  "chemsys": null,
  "volume": 177.63590646068917,
  "density": 6.681383939256305,
  "density_atomic": 14.80299220505743,
  "symmetry": null,
  "property_name": null,
  "material_id": "mp-30882",
  "deprecated": null,
  "deprecation_reasons": null,
  "last_updated": null,
  "origins": null,
  "warnings": null,
  "structure": {
    "@module": "pymatgen.core.structure",
    "@class": "Structure",
    "charge": 0,
    "lattice": {
      "matrix": [
        [5.02647857, 0.0, -0.0],
        [-2.51323928, 4.35305773, 0.0],
        [0.0, 0.0, 8.1184383]
      ],
      "pbc": [true, true, true],
      "a": 5.02647857,
      "b": 5.026478218320226,
      "c": 8.1184383,
      "alpha": 90.0,
      "beta": 90.0,
      "gamma": 120.0000022486273,
      "volume": 177.63590646068917
    },
    "properties": {},
    "sites": [
      {
        "species": [{ "element": "Ti", "occu": 1 }],
        "abc": [0.333333, 0.666667, 0.06542919999999901],
        "properties": { "magmom": 1.111 },
        "label": "Ti",
        "xyz": [-2.509905949965585e-6, 2.90203993768591, 0.5311829232183519]
      },
      {
        "species": [{ "element": "Ti", "occu": 1 }],
        "abc": [0.666667, 0.333333, 0.56540404],
        "properties": { "magmom": 1.114 },
        "label": "Ti",
        "xyz": [2.51324179990595, 1.45101779231409, 4.5901978133107315]
      },
      {
        "species": [{ "element": "Ti", "occu": 1 }],
        "abc": [0.666667, 0.333333, 0.934570799999999],
        "properties": { "magmom": 1.111 },
        "label": "Ti",
        "xyz": [2.51324179990595, 1.45101779231409, 7.5872553767816315]
      },
      {
        "species": [{ "element": "Ti", "occu": 1 }],
        "abc": [0.333333, 0.666667, 0.43459596],
        "properties": { "magmom": 1.114 },
        "label": "Ti",
        "xyz": [-2.509905949965585e-6, 2.90203993768591, 3.528240486689268]
      },
      {
        "species": [{ "element": "Zn", "occu": 1 }],
        "abc": [-0.0, -0.0, -0.0],
        "properties": { "magmom": -0.023 },
        "label": "Zn",
        "xyz": [0.0, 0.0, 0.0]
      },
      {
        "species": [{ "element": "Zn", "occu": 1 }],
        "abc": [-0.0, -0.0, 0.5],
        "properties": { "magmom": -0.022 },
        "label": "Zn",
        "xyz": [0.0, 0.0, 4.05921915]
      },
      {
        "species": [{ "element": "Zn", "occu": 1 }],
        "abc": [0.82867753, 0.65735406, 0.24964945],
        "properties": { "magmom": -0.004 },
        "label": "Zn",
        "xyz": [2.513241801526055, 2.8615001722298836, 2.0267636564539346]
      },
      {
        "species": [{ "element": "Zn", "occu": 1 }],
        "abc": [0.17132247, 0.82867753, 0.7503505500000001],
        "properties": { "magmom": -0.004 },
        "label": "Zn",
        "xyz": [-1.2215161948349107, 3.6072811276438066, 6.091674643546065]
      },
      {
        "species": [{ "element": "Zn", "occu": 1 }],
        "abc": [0.65735406, 0.82867753, 0.7503505500000001],
        "properties": { "magmom": -0.004 },
        "label": "Zn",
        "xyz": [1.2215111766431153, 3.6072811276438066, 6.091674643546065]
      },
      {
        "species": [{ "element": "Zn", "occu": 1 }],
        "abc": [0.34264594, 0.17132247, 0.24964945],
        "properties": { "magmom": -0.004 },
        "label": "Zn",
        "xyz": [1.291728113356884, 0.745776602356193, 2.0267636564539346]
      },
      {
        "species": [{ "element": "Zn", "occu": 1 }],
        "abc": [0.82867753, 0.17132247, 0.24964945],
        "properties": { "magmom": -0.004 },
        "label": "Zn",
        "xyz": [3.7347554848349107, 0.745776602356193, 2.0267636564539346]
      },
      {
        "species": [{ "element": "Zn", "occu": 1 }],
        "abc": [0.17132247, 0.34264594, 0.7503505500000001],
        "properties": { "magmom": -0.004 },
        "label": "Zn",
        "xyz": [-2.511526055237745e-6, 1.4915575577701161, 6.091674643546065]
      }
    ]
  },
  "task_ids": null,
  "uncorrected_energy_per_atom": null,
  "energy_per_atom": -3.669633576666667,
  "formation_energy_per_atom": -0.19797383111111103,
  "energy_above_hull": 0.003797694999998,
  "is_stable": false,
  "equilibrium_reaction_energy_per_atom": null,
  "decomposes_to": null,
  "xas": null,
  "grain_boundaries": null,
  "band_gap": 0.0,
  "cbm": null,
  "vbm": null,
  "efermi": 4.00192354,
  "is_gap_direct": null,
  "is_metal": null,
  "es_source_calc_id": null,
  "bandstructure": null,
  "dos": null,
  "dos_energy_up": null,
  "dos_energy_down": null,
  "is_magnetic": null,
  "ordering": null,
  "total_magnetization": 5.6266214,
  "total_magnetization_normalized_vol": null,
  "total_magnetization_normalized_formula_units": null,
  "num_magnetic_sites": null,
  "num_unique_magnetic_sites": null,
  "types_of_magnetic_species": null,
  "bulk_modulus": null,
  "shear_modulus": null,
  "universal_anisotropy": null,
  "homogeneous_poisson": null,
  "e_total": null,
  "e_ionic": null,
  "e_electronic": null,
  "n": null,
  "e_ij_max": null,
  "weighted_surface_energy_EV_PER_ANG2": null,
  "weighted_surface_energy": null,
  "weighted_work_function": null,
  "surface_anisotropy": null,
  "shape_factor": null,
  "has_reconstructed": null,
  "possible_species": null,
  "has_props": null,
  "theoretical": null,
  "database_IDs": null,
  "fields_not_requested": [
    "builder_meta",
    "nsites",
    "elements",
    "nelements",
    "composition",
    "composition_reduced",
    "chemsys",
    "symmetry",
    "property_name",
    "deprecated",
    "deprecation_reasons",
    "last_updated",
    "origins",
    "warnings",
    "task_ids",
    "uncorrected_energy_per_atom",
    "equilibrium_reaction_energy_per_atom",
    "decomposes_to",
    "xas",
    "grain_boundaries",
    "cbm",
    "vbm",
    "is_gap_direct",
    "is_metal",
    "es_source_calc_id",
    "bandstructure",
    "dos",
    "dos_energy_up",
    "dos_energy_down",
    "is_magnetic",
    "ordering",
    "total_magnetization_normalized_vol",
    "total_magnetization_normalized_formula_units",
    "num_magnetic_sites",
    "num_unique_magnetic_sites",
    "types_of_magnetic_species",
    "bulk_modulus",
    "shear_modulus",
    "universal_anisotropy",
    "homogeneous_poisson",
    "e_total",
    "e_ionic",
    "e_electronic",
    "n",
    "e_ij_max",
    "weighted_surface_energy_EV_PER_ANG2",
    "weighted_surface_energy",
    "weighted_work_function",
    "surface_anisotropy",
    "shape_factor",
    "has_reconstructed",
    "possible_species",
    "has_props",
    "theoretical",
    "database_IDs"
  ]
}
