{
  "builder_meta": null,
  "nsites": null,
  "elements": null,
  "nelements": null,
  "composition": null,
  "composition_reduced": null,
  "formula_pretty": "TiZn3",
  "formula_anonymous": "AB3",
  "chemsys": null,
  "volume": 115.64760533797705,
  "density": 7.009701960332014,
  "density_atomic": 14.455950667247132,
  "symmetry": null,
  "property_name": null,
  "material_id": "mp-1187531",
  "deprecated": null,
  "deprecation_reasons": null,
  "last_updated": null,
  "origins": null,
  "warnings": null,
  "structure": {
    "@module": "pymatgen.core.structure",
    "@class": "Structure",
    "charge": 0,
    "lattice": {
      "matrix": [
        [2.78573079, -4.82502659, -0.0],
        [2.78573079, 4.82502659, -0.0],
        [0.0, 0.0, 4.30197412]
      ],
      "pbc": [true, true, true],
      "a": 5.571460995875413,
      "b": 5.571460995875413,
      "c": 4.30197412,
      "alpha": 90.0,
      "beta": 90.0,
      "gamma": 119.99999306369152,
      "volume": 115.64760533797705
    },
    "properties": {},
    "sites": [
      {
        "species": [{ "element": "Ti", "occu": 1 }],
        "abc": [0.333333, 0.666667, 0.75],
        "properties": { "magmom": 0.0 },
        "label": "Ti",
        "xyz": [2.78573079, 1.60834541335106, 3.2264805899999995]
      },
      {
        "species": [{ "element": "Ti", "occu": 1 }],
        "abc": [0.666667, 0.333333, 0.25],
        "properties": { "magmom": 0.0 },
        "label": "Ti",
        "xyz": [2.78573079, -1.60834541335106, 1.07549353]
      },
      {
        "species": [{ "element": "Zn", "occu": 1 }],
        "abc": [0.16476782, 0.32953564, 0.25],
        "properties": { "magmom": 0.0 },
        "label": "Zn",
        "xyz": [1.3769963681255335, 0.7950091126763339, 1.07549353]
      },
      {
        "species": [{ "element": "Zn", "occu": 1 }],
        "abc": [0.67046436, 0.83523218, 0.25],
        "properties": { "magmom": 0.0 },
        "label": "Zn",
        "xyz": [4.1944652118744665, 0.7950091126763343, 1.07549353]
      },
      {
        "species": [{ "element": "Zn", "occu": 1 }],
        "abc": [0.16476782, 0.83523218, 0.25],
        "properties": { "magmom": 0.0 },
        "label": "Zn",
        "xyz": [2.78573079, 3.235008364647333, 1.07549353]
      },
      {
        "species": [{ "element": "Zn", "occu": 1 }],
        "abc": [0.83523218, 0.67046436, 0.75],
        "properties": { "magmom": 0.0 },
        "label": "Zn",
        "xyz": [4.1944652118744665, -0.7950091126763343, 3.2264805899999995]
      },
      {
        "species": [{ "element": "Zn", "occu": 1 }],
        "abc": [0.32953564, 0.16476782, 0.75],
        "properties": { "magmom": 0.0 },
        "label": "Zn",
        "xyz": [1.3769963681255335, -0.7950091126763339, 3.2264805899999995]
      },
      {
        "species": [{ "element": "Zn", "occu": 1 }],
        "abc": [0.83523218, 0.16476782, 0.75],
        "properties": { "magmom": 0.0 },
        "label": "Zn",
        "xyz": [2.78573079, -3.235008364647333, 3.2264805899999995]
      }
    ]
  },
  "task_ids": null,
  "uncorrected_energy_per_atom": null,
  "energy_per_atom": -3.124872337499997,
  "formation_energy_per_atom": -0.20619162583333,
  "energy_above_hull": 0.0,
  "is_stable": true,
  "equilibrium_reaction_energy_per_atom": null,
  "decomposes_to": null,
  "xas": null,
  "grain_boundaries": null,
  "band_gap": 0.0,
  "cbm": null,
  "vbm": null,
  "efermi": 3.92553812,
  "is_gap_direct": null,
  "is_metal": null,
  "es_source_calc_id": null,
  "bandstructure": null,
  "dos": null,
  "dos_energy_up": null,
  "dos_energy_down": null,
  "is_magnetic": null,
  "ordering": null,
  "total_magnetization": 0.0,
  "total_magnetization_normalized_vol": null,
  "total_magnetization_normalized_formula_units": null,
  "num_magnetic_sites": null,
  "num_unique_magnetic_sites": null,
  "types_of_magnetic_species": null,
  "bulk_modulus": null,
  "shear_modulus": null,
  "universal_anisotropy": null,
  "homogeneous_poisson": null,
  "e_total": null,
  "e_ionic": null,
  "e_electronic": null,
  "n": null,
  "e_ij_max": null,
  "weighted_surface_energy_EV_PER_ANG2": null,
  "weighted_surface_energy": null,
  "weighted_work_function": null,
  "surface_anisotropy": null,
  "shape_factor": null,
  "has_reconstructed": null,
  "possible_species": null,
  "has_props": null,
  "theoretical": null,
  "database_IDs": null,
  "fields_not_requested": [
    "builder_meta",
    "nsites",
    "elements",
    "nelements",
    "composition",
    "composition_reduced",
    "chemsys",
    "symmetry",
    "property_name",
    "deprecated",
    "deprecation_reasons",
    "last_updated",
    "origins",
    "warnings",
    "task_ids",
    "uncorrected_energy_per_atom",
    "equilibrium_reaction_energy_per_atom",
    "decomposes_to",
    "xas",
    "grain_boundaries",
    "cbm",
    "vbm",
    "is_gap_direct",
    "is_metal",
    "es_source_calc_id",
    "bandstructure",
    "dos",
    "dos_energy_up",
    "dos_energy_down",
    "is_magnetic",
    "ordering",
    "total_magnetization_normalized_vol",
    "total_magnetization_normalized_formula_units",
    "num_magnetic_sites",
    "num_unique_magnetic_sites",
    "types_of_magnetic_species",
    "bulk_modulus",
    "shear_modulus",
    "universal_anisotropy",
    "homogeneous_poisson",
    "e_total",
    "e_ionic",
    "e_electronic",
    "n",
    "e_ij_max",
    "weighted_surface_energy_EV_PER_ANG2",
    "weighted_surface_energy",
    "weighted_work_function",
    "surface_anisotropy",
    "shape_factor",
    "has_reconstructed",
    "possible_species",
    "has_props",
    "theoretical",
    "database_IDs"
  ]
}
