{
  "builder_meta": null,
  "nsites": null,
  "elements": null,
  "nelements": null,
  "composition": null,
  "composition_reduced": null,
  "formula_pretty": "Tl2Au",
  "formula_anonymous": "AB2",
  "chemsys": null,
  "volume": 153.71110797286386,
  "density": 13.087454827760286,
  "density_atomic": 25.61851799547731,
  "symmetry": null,
  "property_name": null,
  "material_id": "mp-30571",
  "deprecated": null,
  "deprecation_reasons": null,
  "last_updated": null,
  "origins": null,
  "warnings": null,
  "structure": {
    "@module": "pymatgen.core.structure",
    "@class": "Structure",
    "charge": 0,
    "lattice": {
      "matrix": [
        [4.99592522, -0.0, 2.72491001],
        [2.49796261, 5.19719054, 1.36245449],
        [0.00937465, -1e-8, 5.92509925]
      ],
      "pbc": [true, true, true],
      "a": 5.690729598779954,
      "b": 5.925106661263126,
      "c": 5.925106666247721,
      "alpha": 76.66685153358779,
      "beta": 61.30012585013918,
      "gamma": 61.30012006438949,
      "volume": 153.71110797286389
    },
    "properties": {},
    "sites": [
      {
        "species": [{ "element": "Tl", "occu": 1 }],
        "abc": [0.15465093, 0.5, 0.19069714000000001],
        "properties": { "magmom": -0.0 },
        "label": "Tl",
        "xyz": [2.0233935054269554, 2.5985952680930287, 2.2325365934039545]
      },
      {
        "species": [{ "element": "Tl", "occu": 1 }],
        "abc": [0.34534907, 0.8093028600000001, 0.5],
        "properties": { "magmom": -0.0 },
        "label": "Tl",
        "xyz": [3.75163373796261, 4.206101162986944, 5.006233078164032]
      },
      {
        "species": [{ "element": "Tl", "occu": 1 }],
        "abc": [0.65465093, 0.19069714000000001, 0.5],
        "properties": { "magmom": -0.0 },
        "label": "Tl",
        "xyz": [3.75162874203739, 0.9910893670130557, 5.006230671835968]
      },
      {
        "species": [{ "element": "Tl", "occu": 1 }],
        "abc": [0.84534907, 0.5, 0.8093028600000001],
        "properties": { "magmom": -0.0 },
        "label": "Tl",
        "xyz": [5.479868974573045, 2.5985952619069717, 7.779927156596045]
      },
      {
        "species": [{ "element": "Au", "occu": 1 }],
        "abc": [0.25, 0.0, -0.0],
        "properties": { "magmom": -0.0 },
        "label": "Au",
        "xyz": [1.248981305, 0.0, 0.6812275025]
      },
      {
        "species": [{ "element": "Au", "occu": 1 }],
        "abc": [0.75, -0.0, -0.0],
        "properties": { "magmom": -0.0 },
        "label": "Au",
        "xyz": [3.746943915, 0.0, 2.0436825075]
      }
    ]
  },
  "task_ids": null,
  "uncorrected_energy_per_atom": null,
  "energy_per_atom": -52.36030027333334,
  "formation_energy_per_atom": -0.045777170000008006,
  "energy_above_hull": 0.0,
  "is_stable": true,
  "equilibrium_reaction_energy_per_atom": null,
  "decomposes_to": null,
  "xas": null,
  "grain_boundaries": null,
  "band_gap": 0.0,
  "cbm": null,
  "vbm": null,
  "efermi": 5.66857381,
  "is_gap_direct": null,
  "is_metal": null,
  "es_source_calc_id": null,
  "bandstructure": null,
  "dos": null,
  "dos_energy_up": null,
  "dos_energy_down": null,
  "is_magnetic": null,
  "ordering": null,
  "total_magnetization": 0.0,
  "total_magnetization_normalized_vol": null,
  "total_magnetization_normalized_formula_units": null,
  "num_magnetic_sites": null,
  "num_unique_magnetic_sites": null,
  "types_of_magnetic_species": null,
  "bulk_modulus": null,
  "shear_modulus": null,
  "universal_anisotropy": null,
  "homogeneous_poisson": null,
  "e_total": null,
  "e_ionic": null,
  "e_electronic": null,
  "n": null,
  "e_ij_max": null,
  "weighted_surface_energy_EV_PER_ANG2": null,
  "weighted_surface_energy": null,
  "weighted_work_function": null,
  "surface_anisotropy": null,
  "shape_factor": null,
  "has_reconstructed": null,
  "possible_species": null,
  "has_props": null,
  "theoretical": null,
  "database_IDs": null,
  "fields_not_requested": [
    "builder_meta",
    "nsites",
    "elements",
    "nelements",
    "composition",
    "composition_reduced",
    "chemsys",
    "symmetry",
    "property_name",
    "deprecated",
    "deprecation_reasons",
    "last_updated",
    "origins",
    "warnings",
    "task_ids",
    "uncorrected_energy_per_atom",
    "equilibrium_reaction_energy_per_atom",
    "decomposes_to",
    "xas",
    "grain_boundaries",
    "cbm",
    "vbm",
    "is_gap_direct",
    "is_metal",
    "es_source_calc_id",
    "bandstructure",
    "dos",
    "dos_energy_up",
    "dos_energy_down",
    "is_magnetic",
    "ordering",
    "total_magnetization_normalized_vol",
    "total_magnetization_normalized_formula_units",
    "num_magnetic_sites",
    "num_unique_magnetic_sites",
    "types_of_magnetic_species",
    "bulk_modulus",
    "shear_modulus",
    "universal_anisotropy",
    "homogeneous_poisson",
    "e_total",
    "e_ionic",
    "e_electronic",
    "n",
    "e_ij_max",
    "weighted_surface_energy_EV_PER_ANG2",
    "weighted_surface_energy",
    "weighted_work_function",
    "surface_anisotropy",
    "shape_factor",
    "has_reconstructed",
    "possible_species",
    "has_props",
    "theoretical",
    "database_IDs"
  ]
}
