{"builder_meta": null, "nsites": null, "elements": null, "nelements": null, "composition": null, "composition_reduced": null, "formula_pretty": "Tl2Cl3", "formula_anonymous": "A2B3", "chemsys": null, "volume": 5027.449712848124, "density": 5.444581133498326, "density_atomic": 31.421560705300777, "symmetry": null, "property_name": null, "material_id": "mp-680294", "deprecated": null, "deprecation_reasons": null, "last_updated": null, "origins": null, "warnings": null, "structure": {"@module": "pymatgen.core.structure", "@class": "Structure", "charge": 0, "lattice": {"matrix": [[13.12115474, 0.0, 0.0], [0.0, 15.19630233, 0.0], [0.0, 0.0, 25.21376802]], "pbc": [true, true, true], "a": 13.12115474, "b": 15.19630233, "c": 25.21376802, "alpha": 90.0, "beta": 90.0, "gamma": 90.0, "volume": 5027.449712848124}, "properties": {}, "sites": [{"species": [{"element": "Tl", "occu": 1}], "abc": [0.25666325, 0.9201872, 0.66438808], "properties": {"magmom": 0.0}, "label": "Tl", "xyz": [3.367718219321305, 13.983442891396177, 16.7517269243732]}, {"species": [{"element": "Tl", "occu": 1}], "abc": [0.22933412, 0.39538459000000004, 0.65949736], "properties": {"magmom": 0.0}, "label": "Tl", "xyz": [3.0091284756817287, 6.008383766263095, 16.62841344484243]}, {"species": [{"element": "Tl", "occu": 1}], "abc": [0.42344708000000003, 0.12980409, 0.25], "properties": {"magmom": 0.0}, "label": "Tl", "xyz": [5.55611466088116, 1.9725421953105298, 6.303442005]}, {"species": [{"element": "Tl", "occu": 1}], "abc": [0.24771436, 0.391247199999999, 0.00432088], "properties": {"magmom": 0.0}, "label": "Tl", "xyz": [3.2502984488800664, 5.945510736965961, 0.1089456659622576]}, {"species": [{"element": "Tl", "occu": 1}], "abc": [0.42443178000000004, 0.11972731, 0.44306966000000003], "properties": {"magmom": 0.0}, "label": "Tl", "xyz": [5.569035061953637, 1.8194123999176324, 11.171455623940274]}, {"species": [{"element": "Tl", "occu": 1}], "abc": [0.59050789, 0.36091929, 0.5256515900000001], "properties": {"magmom": 0.0}, "label": "Tl", "xyz": [7.748145399880899, 5.4846386475689455, 13.253657249604153]}, {"species": [{"element": "Tl", "occu": 1}], "abc": [0.75666325, 0.5798128, 0.8356119200000001], "properties": {"magmom": 0.0}, "label": "Tl", "xyz": [9.928295589321305, 8.811010603603824, 21.0689251056268]}, {"species": [{"element": "Tl", "occu": 1}], "abc": [0.74771436, 0.1087528, 0.00432088], "properties": {"magmom": 0.0}, "label": "Tl", "xyz": [9.810875818880067, 1.652640428034024, 0.1089456659622576]}, {"species": [{"element": "Tl", "occu": 1}], "abc": [0.07655292, 0.62980409, 0.75], "properties": {"magmom": 0.0}, "label": "Tl", "xyz": [1.0044627091188407, 9.57069336031053, 18.910326015]}, {"species": [{"element": "Tl", "occu": 1}], "abc": [0.75228564, 0.6087528, 0.99567912], "properties": {"magmom": 0.0}, "label": "Tl", "xyz": [9.870856291119933, 9.250791593034023, 25.104822354037744]}, {"species": [{"element": "Tl", "occu": 1}], "abc": [0.92443178, 0.38027269, 0.05693034], "properties": {"magmom": 0.0}, "label": "Tl", "xyz": [12.129612431953637, 5.778738765082368, 1.4354283860597268]}, {"species": [{"element": "Tl", "occu": 1}], "abc": [0.08793214, 0.13085003, 0.75], "properties": {"magmom": 0.0}, "label": "Tl", "xyz": [1.1537712155593436, 1.98843661576957, 18.910326015]}, {"species": [{"element": "Tl", "occu": 1}], "abc": [0.582371499999999, 0.35684731000000003, 0.16122559], "properties": {"magmom": 0.0}, "label": "Tl", "xyz": [7.641386567665897, 5.422759608407233, 4.065104625147632]}, {"species": [{"element": "Tl", "occu": 1}], "abc": [0.90949211, 0.86091929, 0.025651590000000002], "properties": {"magmom": 0.0}, "label": "Tl", "xyz": [11.933586710119101, 13.082789812568945, 0.6467732396041519]}, {"species": [{"element": "Tl", "occu": 1}], "abc": [0.24771436, 0.391247199999999, 0.49567912000000003], "properties": {"magmom": 0.0}, "label": "Tl", "xyz": [3.2502984488800664, 5.945510736965961, 12.497938344037744]}, {"species": [{"element": "Tl", "occu": 1}], "abc": [0.57556822, 0.88027269, 0.94306966], "properties": {"magmom": 0.0}, "label": "Tl", "xyz": [7.552119678046362, 13.376889930082367, 23.778339633940274]}, {"species": [{"element": "Tl", "occu": 1}], "abc": [0.57556822, 0.88027269, 0.55693034], "properties": {"magmom": 0.0}, "label": "Tl", "xyz": [7.552119678046362, 13.376889930082367, 14.042312396059726]}, {"species": [{"element": "Tl", "occu": 1}], "abc": [0.0823715, 0.14315269, 0.16122559], "properties": {"magmom": 0.0}, "label": "Tl", "xyz": [1.08080919766591, 2.1753915565927677, 4.065104625147632]}, {"species": [{"element": "Tl", "occu": 1}], "abc": [0.92443178, 0.38027269, 0.44306966000000003], "properties": {"magmom": 0.0}, "label": "Tl", "xyz": [12.129612431953637, 5.778738765082368, 11.171455623940274]}, {"species": [{"element": "Tl", "occu": 1}], "abc": [0.27066588, 0.89538459, 0.15949736], "properties": {"magmom": 0.0}, "label": "Tl", "xyz": [3.5514488943182716, 13.606534931263095, 4.021529434842427]}, {"species": [{"element": "Tl", "occu": 1}], "abc": [0.27066588, 0.89538459, 0.34050264], "properties": {"magmom": 0.0}, "label": "Tl", "xyz": [3.5514488943182716, 13.606534931263095, 8.585354575157574]}, {"species": [{"element": "Tl", "occu": 1}], "abc": [0.90949211, 0.86091929, 0.47434841], "properties": {"magmom": 0.0}, "label": "Tl", "xyz": [11.933586710119101, 13.082789812568945, 11.960110770395849]}, {"species": [{"element": "Tl", "occu": 1}], "abc": [0.75228564, 0.6087528, 0.50432088], "properties": {"magmom": 0.0}, "label": "Tl", "xyz": [9.870856291119933, 9.250791593034023, 12.715829675962256]}, {"species": [{"element": "Tl", "occu": 1}], "abc": [0.57655292, 0.8701959100000001, 0.75], "properties": {"magmom": 0.0}, "label": "Tl", "xyz": [7.565040079118841, 13.22376013468947, 18.910326015]}, {"species": [{"element": "Tl", "occu": 1}], "abc": [0.75666325, 0.5798128, 0.66438808], "properties": {"magmom": 0.0}, "label": "Tl", "xyz": [9.928295589321305, 8.811010603603824, 16.7517269243732]}, {"species": [{"element": "Tl", "occu": 1}], "abc": [0.59050789, 0.36091929, 0.97434841], "properties": {"magmom": 0.0}, "label": "Tl", "xyz": [7.748145399880899, 5.4846386475689455, 24.56699478039585]}, {"species": [{"element": "Tl", "occu": 1}], "abc": [0.07597878, 0.67254251, 0.15668876], "properties": {"magmom": 0.0}, "label": "Tl", "xyz": [0.9969293293364171, 10.220159311737048, 3.9507140459814556]}, {"species": [{"element": "Tl", "occu": 1}], "abc": [0.25228564, 0.891247199999999, 0.50432088], "properties": {"magmom": 0.0}, "label": "Tl", "xyz": [3.310278921119933, 13.543661901965962, 12.715829675962256]}, {"species": [{"element": "Tl", "occu": 1}], "abc": [0.57597878, 0.82745749, 0.34331124], "properties": {"magmom": 0.0}, "label": "Tl", "xyz": [7.557506699336417, 12.574294183262952, 8.656169964018545]}, {"species": [{"element": "Tl", "occu": 1}], "abc": [0.74771436, 0.1087528, 0.49567912000000003], "properties": {"magmom": 0.0}, "label": "Tl", "xyz": [9.810875818880067, 1.652640428034024, 12.497938344037744]}, {"species": [{"element": "Tl", "occu": 1}], "abc": [0.24333675000000002, 0.4201872, 0.16438808], "properties": {"magmom": 0.0}, "label": "Tl", "xyz": [3.192859150678695, 6.385291726396176, 4.144842914373202]}, {"species": [{"element": "Tl", "occu": 1}], "abc": [0.57597878, 0.82745749, 0.15668876], "properties": {"magmom": 0.0}, "label": "Tl", "xyz": [7.557506699336417, 12.574294183262952, 3.9507140459814556]}, {"species": [{"element": "Tl", "occu": 1}], "abc": [0.22933412, 0.39538459000000004, 0.84050264], "properties": {"magmom": 0.0}, "label": "Tl", "xyz": [3.0091284756817287, 6.008383766263095, 21.192238585157572]}, {"species": [{"element": "Tl", "occu": 1}], "abc": [0.25666325, 0.9201872, 0.8356119200000001], "properties": {"magmom": 0.0}, "label": "Tl", "xyz": [3.367718219321305, 13.983442891396177, 21.0689251056268]}, {"species": [{"element": "Tl", "occu": 1}], "abc": [0.0823715, 0.14315269, 0.33877441], "properties": {"magmom": 0.0}, "label": "Tl", "xyz": [1.08080919766591, 2.1753915565927677, 8.541779384852369]}, {"species": [{"element": "Tl", "occu": 1}], "abc": [0.72933412, 0.10461541, 0.65949736], "properties": {"magmom": 0.0}, "label": "Tl", "xyz": [9.569705845681728, 1.5897673987369054, 16.62841344484243]}, {"species": [{"element": "Tl", "occu": 1}], "abc": [0.24333675000000002, 0.4201872, 0.33561192], "properties": {"magmom": 0.0}, "label": "Tl", "xyz": [3.192859150678695, 6.385291726396176, 8.462041095626798]}, {"species": [{"element": "Tl", "occu": 1}], "abc": [0.07556822, 0.61972731, 0.94306966], "properties": {"magmom": 0.0}, "label": "Tl", "xyz": [0.9915423080463629, 9.417563564917632, 23.778339633940274]}, {"species": [{"element": "Tl", "occu": 1}], "abc": [0.42402122000000003, 0.17254251, 0.84331124], "properties": {"magmom": 0.0}, "label": "Tl", "xyz": [5.563648040663583, 2.6220081467370484, 21.263053974018543]}, {"species": [{"element": "Tl", "occu": 1}], "abc": [0.9176285, 0.85684731, 0.66122559], "properties": {"magmom": 0.0}, "label": "Tl", "xyz": [12.040345542334089, 13.020910773407232, 16.67198863514763]}, {"species": [{"element": "Tl", "occu": 1}], "abc": [0.09050789000000001, 0.13908071, 0.97434841], "properties": {"magmom": 0.0}, "label": "Tl", "xyz": [1.1875680298808986, 2.113512517431054, 24.56699478039585]}, {"species": [{"element": "Tl", "occu": 1}], "abc": [0.77066588, 0.60461541, 0.34050264], "properties": {"magmom": 0.0}, "label": "Tl", "xyz": [10.11202626431827, 9.187918563736904, 8.585354575157574]}, {"species": [{"element": "Tl", "occu": 1}], "abc": [0.07597878, 0.67254251, 0.34331124], "properties": {"magmom": 0.0}, "label": "Tl", "xyz": [0.9969293293364171, 10.220159311737048, 8.656169964018545]}, {"species": [{"element": "Tl", "occu": 1}], "abc": [0.417628499999999, 0.64315269, 0.66122559], "properties": {"magmom": 0.0}, "label": "Tl", "xyz": [5.479768172334077, 9.773542721592767, 16.67198863514763]}, {"species": [{"element": "Tl", "occu": 1}], "abc": [0.92402122, 0.32745749, 0.65668876], "properties": {"magmom": 0.0}, "label": "Tl", "xyz": [12.124225410663582, 4.976143018262952, 16.557598055981455]}, {"species": [{"element": "Tl", "occu": 1}], "abc": [0.92402122, 0.32745749, 0.84331124], "properties": {"magmom": 0.0}, "label": "Tl", "xyz": [12.124225410663582, 4.976143018262952, 21.263053974018543]}, {"species": [{"element": "Tl", "occu": 1}], "abc": [0.417628499999999, 0.64315269, 0.83877441], "properties": {"magmom": 0.0}, "label": "Tl", "xyz": [5.479768172334077, 9.773542721592767, 21.148663394852367]}, {"species": [{"element": "Tl", "occu": 1}], "abc": [0.9120678600000001, 0.86914997, 0.25], "properties": {"magmom": 0.0}, "label": "Tl", "xyz": [11.967383524440656, 13.207865714230431, 6.303442005]}, {"species": [{"element": "Tl", "occu": 1}], "abc": [0.77066588, 0.60461541, 0.15949736], "properties": {"magmom": 0.0}, "label": "Tl", "xyz": [10.11202626431827, 9.187918563736904, 4.021529434842427]}, {"species": [{"element": "Tl", "occu": 1}], "abc": [0.09050789000000001, 0.13908071, 0.5256515900000001], "properties": {"magmom": 0.0}, "label": "Tl", "xyz": [1.1875680298808986, 2.113512517431054, 13.253657249604153]}, {"species": [{"element": "Tl", "occu": 1}], "abc": [0.40949211, 0.63908071, 0.47434841], "properties": {"magmom": 0.0}, "label": "Tl", "xyz": [5.3730093401191015, 9.711663682431054, 11.960110770395849]}, {"species": [{"element": "Tl", "occu": 1}], "abc": [0.9176285, 0.85684731, 0.83877441], "properties": {"magmom": 0.0}, "label": "Tl", "xyz": [12.040345542334089, 13.020910773407232, 21.148663394852367]}, {"species": [{"element": "Tl", "occu": 1}], "abc": [0.42402122000000003, 0.17254251, 0.65668876], "properties": {"magmom": 0.0}, "label": "Tl", "xyz": [5.563648040663583, 2.6220081467370484, 16.557598055981455]}, {"species": [{"element": "Tl", "occu": 1}], "abc": [0.25228564, 0.891247199999999, 0.99567912], "properties": {"magmom": 0.0}, "label": "Tl", "xyz": [3.310278921119933, 13.543661901965962, 25.104822354037744]}, {"species": [{"element": "Tl", "occu": 1}], "abc": [0.42443178000000004, 0.11972731, 0.05693034], "properties": {"magmom": 0.0}, "label": "Tl", "xyz": [5.569035061953637, 1.8194123999176324, 1.4354283860597268]}, {"species": [{"element": "Tl", "occu": 1}], "abc": [0.58793214, 0.36914997, 0.75], "properties": {"magmom": 0.0}, "label": "Tl", "xyz": [7.714348585559344, 5.60971454923043, 18.910326015]}, {"species": [{"element": "Tl", "occu": 1}], "abc": [0.92344708, 0.37019591, 0.25], "properties": {"magmom": 0.0}, "label": "Tl", "xyz": [12.11669203088116, 5.625608969689471, 6.303442005]}, {"species": [{"element": "Tl", "occu": 1}], "abc": [0.07556822, 0.61972731, 0.55693034], "properties": {"magmom": 0.0}, "label": "Tl", "xyz": [0.9915423080463629, 9.417563564917632, 14.042312396059726]}, {"species": [{"element": "Tl", "occu": 1}], "abc": [0.74333675, 0.0798128, 0.16438808], "properties": {"magmom": 0.0}, "label": "Tl", "xyz": [9.753436520678695, 1.212859438603824, 4.144842914373202]}, {"species": [{"element": "Tl", "occu": 1}], "abc": [0.582371499999999, 0.35684731000000003, 0.33877441], "properties": {"magmom": 0.0}, "label": "Tl", "xyz": [7.641386567665897, 5.422759608407233, 8.541779384852369]}, {"species": [{"element": "Tl", "occu": 1}], "abc": [0.74333675, 0.0798128, 0.33561192], "properties": {"magmom": 0.0}, "label": "Tl", "xyz": [9.753436520678695, 1.212859438603824, 8.462041095626798]}, {"species": [{"element": "Tl", "occu": 1}], "abc": [0.41206786, 0.6308500300000001, 0.25], "properties": {"magmom": 0.0}, "label": "Tl", "xyz": [5.406806154440656, 9.586587780769571, 6.303442005]}, {"species": [{"element": "Tl", "occu": 1}], "abc": [0.72933412, 0.10461541, 0.84050264], "properties": {"magmom": 0.0}, "label": "Tl", "xyz": [9.569705845681728, 1.5897673987369054, 21.192238585157572]}, {"species": [{"element": "Tl", "occu": 1}], "abc": [0.40949211, 0.63908071, 0.025651590000000002], "properties": {"magmom": 0.0}, "label": "Tl", "xyz": [5.3730093401191015, 9.711663682431054, 0.6467732396041519]}, {"species": [{"element": "Cl", "occu": 1}], "abc": [0.34279208, 0.77808318, 0.92826137], "properties": {"magmom": 0.0}, "label": "Cl", "xyz": [4.497827925326459, 11.82398724116781, 23.404966845107385]}, {"species": [{"element": "Cl", "occu": 1}], "abc": [0.9176129900000001, 0.62667636, 0.05400543], "properties": {"magmom": 0.0}, "label": "Cl", "xyz": [12.040142033224074, 9.523163429623919, 1.3616803838403486]}, {"species": [{"element": "Cl", "occu": 1}], "abc": [0.08238701, 0.37332364, 0.94599457], "properties": {"magmom": 0.0}, "label": "Cl", "xyz": [1.0810127067759274, 5.673138900376081, 23.852087636159652]}, {"species": [{"element": "Cl", "occu": 1}], "abc": [0.25690709, 0.54937535, 0.75], "properties": {"magmom": 0.0}, "label": "Cl", "xyz": [3.370917681693107, 8.348473911249567, 18.910326015]}, {"species": [{"element": "Cl", "occu": 1}], "abc": [0.51567236, 0.97823605, 0.8265469400000001], "properties": {"magmom": 0.0}, "label": "Cl", "xyz": [6.766216830700987, 14.865570765904996, 20.84036280280086]}, {"species": [{"element": "Cl", "occu": 1}], "abc": [0.68648012, 0.48542116, 0.43478995000000004], "properties": {"magmom": 0.0}, "label": "Cl", "xyz": [9.00741188045377, 7.376606704739303, 10.9626929367274]}, {"species": [{"element": "Cl", "occu": 1}], "abc": [0.9176129900000001, 0.62667636, 0.44599457000000003], "properties": {"magmom": 0.0}, "label": "Cl", "xyz": [12.040142033224074, 9.523163429623919, 11.245203626159652]}, {"species": [{"element": "Cl", "occu": 1}], "abc": [0.15720792, 0.27808318, 0.07173863], "properties": {"magmom": 0.0}, "label": "Cl", "xyz": [2.062749444673541, 4.225836076167809, 1.8088011748926125]}, {"species": [{"element": "Cl", "occu": 1}], "abc": [0.59706498, 0.1886868, 0.75], "properties": {"magmom": 0.0}, "label": "Cl", "xyz": [7.8341819924150045, 2.867341658480244, 18.910326015]}, {"species": [{"element": "Cl", "occu": 1}], "abc": [0.16470293, 0.76483567, 0.45340842000000003], "properties": {"magmom": 0.0}, "label": "Cl", "xyz": [2.161092630661388, 11.62267407408811, 11.432134720194728]}, {"species": [{"element": "Cl", "occu": 1}], "abc": [0.84279208, 0.72191682, 0.92826137], "properties": {"magmom": 0.0}, "label": "Cl", "xyz": [11.058405295326459, 10.97046625383219, 23.404966845107385]}, {"species": [{"element": "Cl", "occu": 1}], "abc": [0.21148437, 0.5926667800000001, 0.25], "properties": {"magmom": 0.0}, "label": "Cl", "xyz": [2.7749191438614136, 9.006343569827598, 6.303442005]}, {"species": [{"element": "Cl", "occu": 1}], "abc": [0.81351988, 0.98542116, 0.93478995], "properties": {"magmom": 0.0}, "label": "Cl", "xyz": [10.67432022954623, 14.974757869739303, 23.5695769467274]}, {"species": [{"element": "Cl", "occu": 1}], "abc": [0.08735058, 0.90905443, 0.56251347], "properties": {"magmom": 0.0}, "label": "Cl", "xyz": [1.146140476808749, 13.81426595270582, 14.183084140705228]}, {"species": [{"element": "Cl", "occu": 1}], "abc": [0.59678603, 0.35802708, 0.85071543], "properties": {"magmom": 0.0}, "label": "Cl", "xyz": [7.8305218463002815, 5.440687750007096, 21.44974150305455]}, {"species": [{"element": "Cl", "occu": 1}], "abc": [0.89124776, 0.70498106, 0.75], "properties": {"magmom": 0.0}, "label": "Cl", "xyz": [11.694199770638383, 10.71310532468387, 18.910326015]}, {"species": [{"element": "Cl", "occu": 1}], "abc": [0.40321397000000003, 0.6419729200000001, 0.14928457], "properties": {"magmom": 0.0}, "label": "Cl", "xyz": [5.290632893699718, 9.755614579992905, 3.7640265169454517]}, {"species": [{"element": "Cl", "occu": 1}], "abc": [0.39124776, 0.7950189400000001, 0.75], "properties": {"magmom": 0.0}, "label": "Cl", "xyz": [5.133622400638382, 12.081348170316131, 18.910326015]}, {"species": [{"element": "Cl", "occu": 1}], "abc": [0.78851563, 0.40733322, 0.75], "properties": {"magmom": 0.0}, "label": "Cl", "xyz": [10.346235596138586, 6.189958760172402, 18.910326015]}, {"species": [{"element": "Cl", "occu": 1}], "abc": [0.71148437, 0.90733322, 0.25], "properties": {"magmom": 0.0}, "label": "Cl", "xyz": [9.335496513861413, 13.788109925172403, 6.303442005]}, {"species": [{"element": "Cl", "occu": 1}], "abc": [0.36947049, 0.23439321000000002, 0.32741088], "properties": {"magmom": 0.0}, "label": "Cl", "xyz": [4.847879471153623, 3.5619100832591797, 8.255261975544057]}, {"species": [{"element": "Cl", "occu": 1}], "abc": [0.16470293, 0.76483567, 0.04659158], "properties": {"magmom": 0.0}, "label": "Cl", "xyz": [2.161092630661388, 11.62267407408811, 1.1747492898052716]}, {"species": [{"element": "Cl", "occu": 1}], "abc": [0.6087522400000001, 0.20498106, 0.25], "properties": {"magmom": 0.0}, "label": "Cl", "xyz": [7.987532339361618, 3.1149541596838697, 6.303442005]}, {"species": [{"element": "Cl", "occu": 1}], "abc": [0.90321397, 0.85802708, 0.14928457], "properties": {"magmom": 0.0}, "label": "Cl", "xyz": [11.851210263699718, 13.038838915007098, 3.7640265169454517]}, {"species": [{"element": "Cl", "occu": 1}], "abc": [0.48432764, 0.02176395, 0.32654694], "properties": {"magmom": 0.0}, "label": "Cl", "xyz": [6.3549379092990135, 0.3307315640950035, 8.23347879280086]}, {"species": [{"element": "Cl", "occu": 1}], "abc": [0.5873505800000001, 0.59094557, 0.56251347], "properties": {"magmom": 0.0}, "label": "Cl", "xyz": [7.70671784680875, 8.980187542294178, 14.183084140705228]}, {"species": [{"element": "Cl", "occu": 1}], "abc": [0.5873505800000001, 0.59094557, 0.93748653], "properties": {"magmom": 0.0}, "label": "Cl", "xyz": [7.70671784680875, 8.980187542294178, 23.637567889294772]}, {"species": [{"element": "Cl", "occu": 1}], "abc": [0.40321397000000003, 0.6419729200000001, 0.35071543], "properties": {"magmom": 0.0}, "label": "Cl", "xyz": [5.290632893699718, 9.755614579992905, 8.842857493054549]}, {"species": [{"element": "Cl", "occu": 1}], "abc": [0.44057267, 0.45723777, 0.25], "properties": {"magmom": 0.0}, "label": "Cl", "xyz": [5.780822177284955, 6.948323389615004, 6.303442005]}, {"species": [{"element": "Cl", "occu": 1}], "abc": [0.01567236, 0.52176395, 0.67345306], "properties": {"magmom": 0.0}, "label": "Cl", "xyz": [0.2056394607009864, 7.928882729095003, 16.980289227199144]}, {"species": [{"element": "Cl", "occu": 1}], "abc": [0.86947049, 0.26560679, 0.17258912], "properties": {"magmom": 0.0}, "label": "Cl", "xyz": [11.408456841153622, 4.036241081740821, 4.351622034455943]}, {"species": [{"element": "Cl", "occu": 1}], "abc": [0.90321397, 0.85802708, 0.35071543], "properties": {"magmom": 0.0}, "label": "Cl", "xyz": [11.851210263699718, 13.038838915007098, 8.842857493054549]}, {"species": [{"element": "Cl", "occu": 1}], "abc": [0.40293502000000003, 0.8113132, 0.25], "properties": {"magmom": 0.0}, "label": "Cl", "xyz": [5.286972747584995, 12.328960671519756, 6.303442005]}, {"species": [{"element": "Cl", "occu": 1}], "abc": [0.59678603, 0.35802708, 0.6492845700000001], "properties": {"magmom": 0.0}, "label": "Cl", "xyz": [7.8305218463002815, 5.440687750007096, 16.37091052694545]}, {"species": [{"element": "Cl", "occu": 1}], "abc": [0.08735058, 0.90905443, 0.93748653], "properties": {"magmom": 0.0}, "label": "Cl", "xyz": [1.146140476808749, 13.81426595270582, 23.637567889294772]}, {"species": [{"element": "Cl", "occu": 1}], "abc": [0.81351988, 0.98542116, 0.56521005], "properties": {"magmom": 0.0}, "label": "Cl", "xyz": [10.67432022954623, 14.974757869739303, 14.251075083272601]}, {"species": [{"element": "Cl", "occu": 1}], "abc": [0.83529707, 0.23516433, 0.54659158], "properties": {"magmom": 0.0}, "label": "Cl", "xyz": [10.960062109338612, 3.573628255911889, 13.781633299805272]}, {"species": [{"element": "Cl", "occu": 1}], "abc": [0.9843276400000001, 0.47823605, 0.32654694], "properties": {"magmom": 0.0}, "label": "Cl", "xyz": [12.915515279299013, 7.267419600904997, 8.23347879280086]}, {"species": [{"element": "Cl", "occu": 1}], "abc": [0.41761299, 0.8733236400000001, 0.05400543], "properties": {"magmom": 0.0}, "label": "Cl", "xyz": [5.479564663224073, 13.271290065376082, 1.3616803838403486]}, {"species": [{"element": "Cl", "occu": 1}], "abc": [0.68648012, 0.48542116, 0.06521005], "properties": {"magmom": 0.0}, "label": "Cl", "xyz": [9.00741188045377, 7.376606704739303, 1.644191073272601]}, {"species": [{"element": "Cl", "occu": 1}], "abc": [0.6572079200000001, 0.22191682000000001, 0.07173863], "properties": {"magmom": 0.0}, "label": "Cl", "xyz": [8.623326814673542, 3.372315088832191, 1.8088011748926125]}, {"species": [{"element": "Cl", "occu": 1}], "abc": [0.84279208, 0.72191682, 0.57173863], "properties": {"magmom": 0.0}, "label": "Cl", "xyz": [11.058405295326459, 10.97046625383219, 14.415685184892613]}, {"species": [{"element": "Cl", "occu": 1}], "abc": [0.18648012, 0.014578840000000001, 0.43478995000000004], "properties": {"magmom": 0.0}, "label": "Cl", "xyz": [2.4468345104537685, 0.2215444602606972, 10.9626929367274]}, {"species": [{"element": "Cl", "occu": 1}], "abc": [0.24309291, 0.04937535, 0.25], "properties": {"magmom": 0.0}, "label": "Cl", "xyz": [3.189659688306893, 0.7503227462495655, 6.303442005]}, {"species": [{"element": "Cl", "occu": 1}], "abc": [0.51567236, 0.97823605, 0.67345306], "properties": {"magmom": 0.0}, "label": "Cl", "xyz": [6.766216830700987, 14.865570765904996, 16.980289227199144]}, {"species": [{"element": "Cl", "occu": 1}], "abc": [0.08238701, 0.37332364, 0.55400543], "properties": {"magmom": 0.0}, "label": "Cl", "xyz": [1.0810127067759274, 5.673138900376081, 13.96856439384035]}, {"species": [{"element": "Cl", "occu": 1}], "abc": [0.34279208, 0.77808318, 0.57173863], "properties": {"magmom": 0.0}, "label": "Cl", "xyz": [4.497827925326459, 11.82398724116781, 14.415685184892613]}, {"species": [{"element": "Cl", "occu": 1}], "abc": [0.09706498, 0.3113132, 0.75], "properties": {"magmom": 0.0}, "label": "Cl", "xyz": [1.273604622415005, 4.730809506519756, 18.910326015]}, {"species": [{"element": "Cl", "occu": 1}], "abc": [0.94057267, 0.04276223, 0.25], "properties": {"magmom": 0.0}, "label": "Cl", "xyz": [12.341399547284956, 0.6498277753849959, 6.303442005]}, {"species": [{"element": "Cl", "occu": 1}], "abc": [0.66470293, 0.73516433, 0.45340842000000003], "properties": {"magmom": 0.0}, "label": "Cl", "xyz": [8.721670000661389, 11.17177942091189, 11.432134720194728]}, {"species": [{"element": "Cl", "occu": 1}], "abc": [0.09678603, 0.14197292, 0.6492845700000001], "properties": {"magmom": 0.0}, "label": "Cl", "xyz": [1.269944476300282, 2.1574634149929035, 16.37091052694545]}, {"species": [{"element": "Cl", "occu": 1}], "abc": [0.9843276400000001, 0.47823605, 0.17345306], "properties": {"magmom": 0.0}, "label": "Cl", "xyz": [12.915515279299013, 7.267419600904997, 4.373405217199141]}, {"species": [{"element": "Cl", "occu": 1}], "abc": [0.61063437, 0.6679020800000001, 0.25], "properties": {"magmom": 0.0}, "label": "Cl", "xyz": [8.012228058332413, 10.149641934515847, 6.303442005]}, {"species": [{"element": "Cl", "occu": 1}], "abc": [0.41761299, 0.8733236400000001, 0.44599457000000003], "properties": {"magmom": 0.0}, "label": "Cl", "xyz": [5.479564663224073, 13.271290065376082, 11.245203626159652]}, {"species": [{"element": "Cl", "occu": 1}], "abc": [0.33529707000000003, 0.26483567, 0.54659158], "properties": {"magmom": 0.0}, "label": "Cl", "xyz": [4.399484739338612, 4.024522909088112, 13.781633299805272]}, {"species": [{"element": "Cl", "occu": 1}], "abc": [0.8345973600000001, 0.47937751, 0.5559742], "properties": {"magmom": 0.0}, "label": "Cl", "xyz": [10.950881106155487, 7.284765572162598, 14.018204503905084]}, {"species": [{"element": "Cl", "occu": 1}], "abc": [0.91264942, 0.09094557, 0.43748653], "properties": {"magmom": 0.0}, "label": "Cl", "xyz": [11.975014263191252, 1.3820363772941782, 11.03068387929477]}, {"species": [{"element": "Cl", "occu": 1}], "abc": [0.33529707000000003, 0.26483567, 0.95340842], "properties": {"magmom": 0.0}, "label": "Cl", "xyz": [4.399484739338612, 4.024522909088112, 24.03901873019473]}, {"species": [{"element": "Cl", "occu": 1}], "abc": [0.31351988000000003, 0.51457884, 0.93478995], "properties": {"magmom": 0.0}, "label": "Cl", "xyz": [4.113742859546232, 7.819695625260697, 23.5695769467274]}, {"species": [{"element": "Cl", "occu": 1}], "abc": [0.11063437, 0.83209792, 0.25], "properties": {"magmom": 0.0}, "label": "Cl", "xyz": [1.4516506883324136, 12.644811560484154, 6.303442005]}, {"species": [{"element": "Cl", "occu": 1}], "abc": [0.13052951000000002, 0.73439321, 0.8274108800000001], "properties": {"magmom": 0.0}, "label": "Cl", "xyz": [1.7126978988463775, 11.16006124825918, 20.86214598554406]}, {"species": [{"element": "Cl", "occu": 1}], "abc": [0.01567236, 0.52176395, 0.8265469400000001], "properties": {"magmom": 0.0}, "label": "Cl", "xyz": [0.2056394607009864, 7.928882729095003, 20.84036280280086]}, {"species": [{"element": "Cl", "occu": 1}], "abc": [0.91264942, 0.09094557, 0.06251347], "properties": {"magmom": 0.0}, "label": "Cl", "xyz": [11.975014263191252, 1.3820363772941782, 1.5762001307052294]}, {"species": [{"element": "Cl", "occu": 1}], "abc": [0.6572079200000001, 0.22191682000000001, 0.42826137000000003], "properties": {"magmom": 0.0}, "label": "Cl", "xyz": [8.623326814673542, 3.372315088832191, 10.798082835107389]}, {"species": [{"element": "Cl", "occu": 1}], "abc": [0.90293502, 0.688686799999999, 0.25], "properties": {"magmom": 0.0}, "label": "Cl", "xyz": [11.847550117584994, 10.46549282348023, 6.303442005]}, {"species": [{"element": "Cl", "occu": 1}], "abc": [0.66540264, 0.9793775100000001, 0.444025799999999], "properties": {"magmom": 0.0}, "label": "Cl", "xyz": [8.730851003844514, 14.8829167371626, 11.195563516094891]}, {"species": [{"element": "Cl", "occu": 1}], "abc": [0.10875224, 0.29501894, 0.25], "properties": {"magmom": 0.0}, "label": "Cl", "xyz": [1.4269549693616175, 4.48319700531613, 6.303442005]}, {"species": [{"element": "Cl", "occu": 1}], "abc": [0.75690709, 0.9506246500000001, 0.75], "properties": {"magmom": 0.0}, "label": "Cl", "xyz": [9.931495051693107, 14.445979583750436, 18.910326015]}, {"species": [{"element": "Cl", "occu": 1}], "abc": [0.86947049, 0.26560679, 0.32741088], "properties": {"magmom": 0.0}, "label": "Cl", "xyz": [11.408456841153622, 4.036241081740821, 8.255261975544057]}, {"species": [{"element": "Cl", "occu": 1}], "abc": [0.63052951, 0.76560679, 0.8274108800000001], "properties": {"magmom": 0.0}, "label": "Cl", "xyz": [8.273275268846378, 11.63439224674082, 20.86214598554406]}, {"species": [{"element": "Cl", "occu": 1}], "abc": [0.58238701, 0.12667636000000002, 0.55400543], "properties": {"magmom": 0.0}, "label": "Cl", "xyz": [7.641590076775928, 1.925012264623919, 13.96856439384035]}, {"species": [{"element": "Cl", "occu": 1}], "abc": [0.18648012, 0.014578840000000001, 0.06521005], "properties": {"magmom": 0.0}, "label": "Cl", "xyz": [2.4468345104537685, 0.2215444602606972, 1.644191073272601]}, {"species": [{"element": "Cl", "occu": 1}], "abc": [0.16540264, 0.52062249, 0.055974199999999], "properties": {"magmom": 0.0}, "label": "Cl", "xyz": [2.170273633844513, 7.9115367578374025, 1.4113204939050588]}, {"species": [{"element": "Cl", "occu": 1}], "abc": [0.33459736, 0.02062249, 0.5559742], "properties": {"magmom": 0.0}, "label": "Cl", "xyz": [4.390303736155486, 0.3133855928374017, 14.018204503905084]}, {"species": [{"element": "Cl", "occu": 1}], "abc": [0.33459736, 0.02062249, 0.944025799999999], "properties": {"magmom": 0.0}, "label": "Cl", "xyz": [4.390303736155486, 0.3133855928374017, 23.80244752609489]}, {"species": [{"element": "Cl", "occu": 1}], "abc": [0.55942733, 0.54276223, 0.75], "properties": {"magmom": 0.0}, "label": "Cl", "xyz": [7.340332562715044, 8.247978940384996, 18.910326015]}, {"species": [{"element": "Cl", "occu": 1}], "abc": [0.58238701, 0.12667636000000002, 0.94599457], "properties": {"magmom": 0.0}, "label": "Cl", "xyz": [7.641590076775928, 1.925012264623919, 23.852087636159652]}, {"species": [{"element": "Cl", "occu": 1}], "abc": [0.15720792, 0.27808318, 0.42826137000000003], "properties": {"magmom": 0.0}, "label": "Cl", "xyz": [2.062749444673541, 4.225836076167809, 10.798082835107389]}, {"species": [{"element": "Cl", "occu": 1}], "abc": [0.48432764, 0.02176395, 0.17345306], "properties": {"magmom": 0.0}, "label": "Cl", "xyz": [6.3549379092990135, 0.3307315640950035, 4.373405217199141]}, {"species": [{"element": "Cl", "occu": 1}], "abc": [0.41264942, 0.40905443, 0.43748653], "properties": {"magmom": 0.0}, "label": "Cl", "xyz": [5.41443689319125, 6.2161147877058225, 11.03068387929477]}, {"species": [{"element": "Cl", "occu": 1}], "abc": [0.36947049, 0.23439321000000002, 0.17258912], "properties": {"magmom": 0.0}, "label": "Cl", "xyz": [4.847879471153623, 3.5619100832591797, 4.351622034455943]}, {"species": [{"element": "Cl", "occu": 1}], "abc": [0.41264942, 0.40905443, 0.06251347], "properties": {"magmom": 0.0}, "label": "Cl", "xyz": [5.41443689319125, 6.2161147877058225, 1.5762001307052294]}, {"species": [{"element": "Cl", "occu": 1}], "abc": [0.16540264, 0.52062249, 0.444025799999999], "properties": {"magmom": 0.0}, "label": "Cl", "xyz": [2.170273633844513, 7.9115367578374025, 11.195563516094891]}, {"species": [{"element": "Cl", "occu": 1}], "abc": [0.13052951000000002, 0.73439321, 0.67258912], "properties": {"magmom": 0.0}, "label": "Cl", "xyz": [1.7126978988463775, 11.16006124825918, 16.958506044455945]}, {"species": [{"element": "Cl", "occu": 1}], "abc": [0.28851563, 0.09266678, 0.75], "properties": {"magmom": 0.0}, "label": "Cl", "xyz": [3.7856582261385863, 1.4081924048275976, 18.910326015]}, {"species": [{"element": "Cl", "occu": 1}], "abc": [0.31351988000000003, 0.51457884, 0.56521005], "properties": {"magmom": 0.0}, "label": "Cl", "xyz": [4.113742859546232, 7.819695625260697, 14.251075083272601]}, {"species": [{"element": "Cl", "occu": 1}], "abc": [0.74309291, 0.45062465, 0.25], "properties": {"magmom": 0.0}, "label": "Cl", "xyz": [9.750237058306894, 6.847828418750435, 6.303442005]}, {"species": [{"element": "Cl", "occu": 1}], "abc": [0.38936563, 0.33209792, 0.75], "properties": {"magmom": 0.0}, "label": "Cl", "xyz": [5.108926681667587, 5.046660395484153, 18.910326015]}, {"species": [{"element": "Cl", "occu": 1}], "abc": [0.83529707, 0.23516433, 0.95340842], "properties": {"magmom": 0.0}, "label": "Cl", "xyz": [10.960062109338612, 3.573628255911889, 24.03901873019473]}, {"species": [{"element": "Cl", "occu": 1}], "abc": [0.8345973600000001, 0.47937751, 0.944025799999999], "properties": {"magmom": 0.0}, "label": "Cl", "xyz": [10.950881106155487, 7.284765572162598, 23.80244752609489]}, {"species": [{"element": "Cl", "occu": 1}], "abc": [0.66470293, 0.73516433, 0.04659158], "properties": {"magmom": 0.0}, "label": "Cl", "xyz": [8.721670000661389, 11.17177942091189, 1.1747492898052716]}, {"species": [{"element": "Cl", "occu": 1}], "abc": [0.63052951, 0.76560679, 0.67258912], "properties": {"magmom": 0.0}, "label": "Cl", "xyz": [8.273275268846378, 11.63439224674082, 16.958506044455945]}, {"species": [{"element": "Cl", "occu": 1}], "abc": [0.88936563, 0.16790208, 0.75], "properties": {"magmom": 0.0}, "label": "Cl", "xyz": [11.669504051667586, 2.5514907695158464, 18.910326015]}, {"species": [{"element": "Cl", "occu": 1}], "abc": [0.66540264, 0.9793775100000001, 0.055974199999999], "properties": {"magmom": 0.0}, "label": "Cl", "xyz": [8.730851003844514, 14.8829167371626, 1.4113204939050588]}, {"species": [{"element": "Cl", "occu": 1}], "abc": [0.09678603, 0.14197292, 0.85071543], "properties": {"magmom": 0.0}, "label": "Cl", "xyz": [1.269944476300282, 2.1574634149929035, 21.44974150305455]}, {"species": [{"element": "Cl", "occu": 1}], "abc": [0.05942733, 0.95723777, 0.75], "properties": {"magmom": 0.0}, "label": "Cl", "xyz": [0.7797551927150442, 14.546474554615004, 18.910326015]}]}, "task_ids": null, "uncorrected_energy_per_atom": null, "energy_per_atom": -3.327889332187499, "formation_energy_per_atom": -1.270174805520836, "energy_above_hull": 0.0, "is_stable": true, "equilibrium_reaction_energy_per_atom": null, "decomposes_to": null, "xas": null, "grain_boundaries": null, "band_gap": 1.878899999999999, "cbm": null, "vbm": null, "efermi": 1.78668815, "is_gap_direct": null, "is_metal": null, "es_source_calc_id": null, "bandstructure": null, "dos": null, "dos_energy_up": null, "dos_energy_down": null, "is_magnetic": null, "ordering": null, "total_magnetization": 0.0001214, "total_magnetization_normalized_vol": null, "total_magnetization_normalized_formula_units": null, "num_magnetic_sites": null, "num_unique_magnetic_sites": null, "types_of_magnetic_species": null, "bulk_modulus": null, "shear_modulus": null, "universal_anisotropy": null, "homogeneous_poisson": null, "e_total": null, "e_ionic": null, "e_electronic": null, "n": null, "e_ij_max": null, "weighted_surface_energy_EV_PER_ANG2": null, "weighted_surface_energy": null, "weighted_work_function": null, "surface_anisotropy": null, "shape_factor": null, "has_reconstructed": null, "possible_species": null, "has_props": null, "theoretical": null, "database_IDs": null, "fields_not_requested": ["builder_meta", "nsites", "elements", "nelements", "composition", "composition_reduced", "chemsys", "symmetry", "property_name", "deprecated", "deprecation_reasons", "last_updated", "origins", "warnings", "task_ids", "uncorrected_energy_per_atom", "equilibrium_reaction_energy_per_atom", "decomposes_to", "xas", "grain_boundaries", "cbm", "vbm", "is_gap_direct", "is_metal", "es_source_calc_id", "bandstructure", "dos", "dos_energy_up", "dos_energy_down", "is_magnetic", "ordering", "total_magnetization_normalized_vol", "total_magnetization_normalized_formula_units", "num_magnetic_sites", "num_unique_magnetic_sites", "types_of_magnetic_species", "bulk_modulus", "shear_modulus", "universal_anisotropy", "homogeneous_poisson", "e_total", "e_ionic", "e_electronic", "n", "e_ij_max", "weighted_surface_energy_EV_PER_ANG2", "weighted_surface_energy", "weighted_work_function", "surface_anisotropy", "shape_factor", "has_reconstructed", "possible_species", "has_props", "theoretical", "database_IDs"]}