{
  "builder_meta": null,
  "nsites": null,
  "elements": null,
  "nelements": null,
  "composition": null,
  "composition_reduced": null,
  "formula_pretty": "Tl2O3",
  "formula_anonymous": "A2B3",
  "chemsys": null,
  "volume": 598.4246830628017,
  "density": 10.139632486625052,
  "density_atomic": 14.960617076570042,
  "symmetry": null,
  "property_name": null,
  "material_id": "mp-1658",
  "deprecated": null,
  "deprecation_reasons": null,
  "last_updated": null,
  "origins": null,
  "warnings": null,
  "structure": {
    "@module": "pymatgen.core.structure",
    "@class": "Structure",
    "charge": 0,
    "lattice": {
      "matrix": [
        [8.66897059, -0.0, -3.06494378],
        [-4.3344858, 7.50754945, -3.06494378],
        [0.0, -0.0, 9.19483134]
      ],
      "pbc": [true, true, true],
      "a": 9.194831780127664,
      "b": 9.19483258516204,
      "c": 9.19483134,
      "alpha": 109.47121789127674,
      "beta": 109.47121966484623,
      "gamma": 109.471222977373,
      "volume": 598.4246830628017
    },
    "properties": {},
    "sites": [
      {
        "species": [{ "element": "Tl", "occu": 1 }],
        "abc": [0.5, 0.5, 0.5],
        "properties": { "magmom": -0.0 },
        "label": "Tl",
        "xyz": [2.167242395, 3.753774725, 1.53247189]
      },
      {
        "species": [{ "element": "Tl", "occu": 1 }],
        "abc": [-0.0, 0.0, 0.5],
        "properties": { "magmom": -0.0 },
        "label": "Tl",
        "xyz": [0.0, 0.0, 4.59741567]
      },
      {
        "species": [{ "element": "Tl", "occu": 1 }],
        "abc": [0.5, 0.0, 0.0],
        "properties": { "magmom": -0.0 },
        "label": "Tl",
        "xyz": [4.334485295, 0.0, -1.53247189]
      },
      {
        "species": [{ "element": "Tl", "occu": 1 }],
        "abc": [-0.0, 0.5, 0.0],
        "properties": { "magmom": -0.0 },
        "label": "Tl",
        "xyz": [-2.1672429, 3.753774725, -1.53247189]
      },
      {
        "species": [{ "element": "Tl", "occu": 1 }],
        "abc": [0.25, 0.21696107, 0.96696107],
        "properties": { "magmom": -0.0 },
        "label": "Tl",
        "xyz": [1.226827970432194, 1.6288459617499116, 7.45983452399729]
      },
      {
        "species": [{ "element": "Tl", "occu": 1 }],
        "abc": [0.28303893, 0.53303893, 0.75],
        "properties": { "magmom": -0.0 },
        "label": "Tl",
        "xyz": [0.1432064870628751, 4.001816125750088, 4.394890743997289]
      },
      {
        "species": [{ "element": "Tl", "occu": 1 }],
        "abc": [0.53303893, 0.75, 0.28303893],
        "properties": { "magmom": -0.0 },
        "label": "Tl",
        "xyz": [1.370034457495069, 5.6306620875, -1.3299469639972892]
      },
      {
        "species": [{ "element": "Tl", "occu": 1 }],
        "abc": [0.21696107, 0.96696107, 0.25],
        "properties": { "magmom": -0.0 },
        "label": "Tl",
        "xyz": [-2.310449892062875, 7.259508049249911, -1.3299469639972887]
      },
      {
        "species": [{ "element": "Tl", "occu": 1 }],
        "abc": [0.96696107, 0.25, 0.21696107],
        "properties": { "magmom": -0.0 },
        "label": "Tl",
        "xyz": [7.298935627504933, 1.8768873625, -1.7349968160027105]
      },
      {
        "species": [{ "element": "Tl", "occu": 1 }],
        "abc": [0.75, 0.28303893, 0.53303893],
        "properties": { "magmom": -0.0 },
        "label": "Tl",
        "xyz": [5.274899719567806, 2.1249287632500886, 1.7349968160027105]
      },
      {
        "species": [{ "element": "Tl", "occu": 1 }],
        "abc": [0.75, 0.78303893, 0.03303893],
        "properties": { "magmom": -0.0 },
        "label": "Tl",
        "xyz": [3.107656819567806, 5.878703488250089, -4.39489074399729]
      },
      {
        "species": [{ "element": "Tl", "occu": 1 }],
        "abc": [0.71696107, 0.46696107000000003, 0.25],
        "properties": { "magmom": -0.0 },
        "label": "Tl",
        "xyz": [4.191278302937125, 3.5057333242499116, -1.3299469639972892]
      },
      {
        "species": [{ "element": "Tl", "occu": 1 }],
        "abc": [0.46696107000000003, 0.25, 0.71696107],
        "properties": { "magmom": -0.0 },
        "label": "Tl",
        "xyz": [2.9644503325049323, 1.8768873625, 4.394890743997289]
      },
      {
        "species": [{ "element": "Tl", "occu": 1 }],
        "abc": [0.78303893, 0.03303893, 0.75],
        "properties": { "magmom": -0.0 },
        "label": "Tl",
        "xyz": [6.644934682062876, 0.24804140075008851, 4.394890743997289]
      },
      {
        "species": [{ "element": "Tl", "occu": 1 }],
        "abc": [0.03303893, 0.75, 0.78303893],
        "properties": { "magmom": -0.0 },
        "label": "Tl",
        "xyz": [-2.964450837504932, 5.6306620875, 4.7999405960027115]
      },
      {
        "species": [{ "element": "Tl", "occu": 1 }],
        "abc": [0.25, 0.71696107, 0.46696107000000003],
        "properties": { "magmom": -0.0 },
        "label": "Tl",
        "xyz": [-0.9404149295678059, 5.382620686749911, 1.3299469639972896]
      },
      {
        "species": [{ "element": "O", "occu": 1 }],
        "abc": [0.53752294, 0.77157262, 0.5426833],
        "properties": { "magmom": 0.0 },
        "label": "O",
        "xyz": [1.3153999932515386, 5.792619598916059, 0.9775771204870054]
      },
      {
        "species": [{ "element": "O", "occu": 1 }],
        "abc": [0.99484064, 0.957316699999999, 0.7288893200000001],
        "properties": { "magmom": 0.0 },
        "label": "O",
        "xyz": [4.474768607643922, 7.187102464560808, 0.7187618661129465]
      },
      {
        "species": [{ "element": "O", "occu": 1 }],
        "abc": [0.26595032, 0.77111068, 0.7284273800000001],
        "properties": { "magmom": 0.0 },
        "label": "O",
        "xyz": [-1.0368527902072557, 5.789151561523126, 3.51923324110751]
      },
      {
        "species": [{ "element": "O", "occu": 1 }],
        "abc": [0.5051593600000001, 0.23404968, 0.96247706],
        "properties": { "magmom": 0.0 },
        "label": "O",
        "xyz": [3.3647266206486792, 1.7571395463566761, 6.584180086051289]
      },
      {
        "species": [{ "element": "O", "occu": 1 }],
        "abc": [0.957316699999999, 0.7288893200000001, 0.99484064],
        "properties": { "magmom": 0.0 },
        "label": "O",
        "xyz": [5.139589910304188, 5.472172613476874, 3.979265242180105]
      },
      {
        "species": [{ "element": "O", "occu": 1 }],
        "abc": [0.7284273800000001, 0.26595032, 0.77111068],
        "properties": { "magmom": 0.0 },
        "label": "O",
        "xyz": [5.161957648625299, 1.996635178643324, 4.0425209004870055]
      },
      {
        "species": [{ "element": "O", "occu": 1 }],
        "abc": [0.23404968, 0.96247706, 0.5051593600000001],
        "properties": { "magmom": 0.0 },
        "label": "O",
        "xyz": [-2.1428733568768368, 7.225844122440617, 0.9775679256556664]
      },
      {
        "species": [{ "element": "O", "occu": 1 }],
        "abc": [0.5426833, 0.53752294, 0.77157262],
        "properties": { "magmom": 0.0 },
        "label": "O",
        "xyz": [2.3746200167798945, 4.035480052559383, 3.783708711056724]
      },
      {
        "species": [{ "element": "O", "occu": 1 }],
        "abc": [0.77157262, 0.5426833, 0.53752294],
        "properties": { "magmom": 0.0 },
        "label": "O",
        "xyz": [4.336487293082106, 4.0742217104391845, 0.9143122673487625]
      },
      {
        "species": [{ "element": "O", "occu": 1 }],
        "abc": [0.7288893200000001, 0.99484064, 0.957316699999999],
        "properties": { "magmom": 0.0 },
        "label": "O",
        "xyz": [2.006597451102188, 7.468815299669648, 3.5192301761637204]
      },
      {
        "species": [{ "element": "O", "occu": 1 }],
        "abc": [0.77111068, 0.7284273800000001, 0.26595032],
        "properties": { "magmom": 0.0 },
        "label": "O",
        "xyz": [3.527377671613697, 5.468704576083941, -2.1506315126512385]
      },
      {
        "species": [{ "element": "O", "occu": 1 }],
        "abc": [0.96247706, 0.5051593600000001, 0.23404968],
        "properties": { "magmom": 0.0 },
        "label": "O",
        "xyz": [6.1540792540325775, 3.7925088753303524, -2.346175783999496]
      },
      {
        "species": [{ "element": "O", "occu": 1 }],
        "abc": [0.46247706, 0.22842738, 0.457316699999999],
        "properties": { "magmom": 0.0 },
        "label": "O",
        "xyz": [3.0190847967484618, 1.714929851083941, 2.087366659512986]
      },
      {
        "species": [{ "element": "O", "occu": 1 }],
        "abc": [0.00515936, 0.0426833, 0.27111068],
        "properties": { "magmom": 0.0 },
        "label": "O",
        "xyz": [-0.14028381764391762, 0.320446985439185, 2.3461819138870563]
      },
      {
        "species": [{ "element": "O", "occu": 1 }],
        "abc": [0.73404968, 0.22888932, 0.27157262],
        "properties": { "magmom": 0.0 },
        "label": "O",
        "xyz": [5.371337580207256, 1.718397888476874, -0.4542894611075097]
      },
      {
        "species": [{ "element": "O", "occu": 1 }],
        "abc": [0.49484064, 0.76595032, 0.03752294],
        "properties": { "magmom": 0.0 },
        "label": "O",
        "xyz": [0.9697581693513215, 5.750409903643324, -3.5192363060512886]
      },
      {
        "species": [{ "element": "O", "occu": 1 }],
        "abc": [0.0426833, 0.27111068, 0.00515936],
        "properties": { "magmom": 0.0 },
        "label": "O",
        "xyz": [-0.805105120304197, 2.0353768365231257, -0.914321462180102]
      },
      {
        "species": [{ "element": "O", "occu": 1 }],
        "abc": [0.27157262, 0.73404968, 0.22888932],
        "properties": { "magmom": 0.0 },
        "label": "O",
        "xyz": [-0.8274728586252986, 5.510914271356676, -0.9775771204870054]
      },
      {
        "species": [{ "element": "O", "occu": 1 }],
        "abc": [0.76595032, 0.03752294, 0.49484064],
        "properties": { "magmom": 0.0 },
        "label": "O",
        "xyz": [6.477358146876837, 0.281705327559383, 2.0873758543443355]
      },
      {
        "species": [{ "element": "O", "occu": 1 }],
        "abc": [0.457316699999999, 0.46247706, 0.22842738],
        "properties": { "magmom": 0.0 },
        "label": "O",
        "xyz": [1.959864773220097, 3.472069397440617, -0.7187649310567203]
      },
      {
        "species": [{ "element": "O", "occu": 1 }],
        "abc": [0.22842738, 0.457316699999999, 0.46247706],
        "properties": { "magmom": 0.0 },
        "label": "O",
        "xyz": [-0.00200250308210137, 3.4333277395608075, 2.1506315126512408]
      },
      {
        "species": [{ "element": "O", "occu": 1 }],
        "abc": [0.27111068, 0.00515936, 0.0426833],
        "properties": { "magmom": 0.0 },
        "label": "O",
        "xyz": [2.3278873388978134, 0.038734150330352, -0.45428639616372923]
      },
      {
        "species": [{ "element": "O", "occu": 1 }],
        "abc": [0.22888932, 0.27157262, 0.73404968],
        "properties": { "magmom": 0.0 },
        "label": "O",
        "xyz": [0.807107118386303, 2.0388448739160587, 5.215575292651238]
      },
      {
        "species": [{ "element": "O", "occu": 1 }],
        "abc": [0.03752294, 0.49484064, 0.76595032],
        "properties": { "magmom": 0.0 },
        "label": "O",
        "xyz": [-1.8195944640325776, 3.715040574669648, 5.411119563999497]
      }
    ]
  },
  "task_ids": null,
  "uncorrected_energy_per_atom": null,
  "energy_per_atom": -5.017802756999998,
  "formation_energy_per_atom": -1.100437307333334,
  "energy_above_hull": 0.0,
  "is_stable": true,
  "equilibrium_reaction_energy_per_atom": null,
  "decomposes_to": null,
  "xas": null,
  "grain_boundaries": null,
  "band_gap": 0.0,
  "cbm": null,
  "vbm": null,
  "efermi": 3.78240231,
  "is_gap_direct": null,
  "is_metal": null,
  "es_source_calc_id": null,
  "bandstructure": null,
  "dos": null,
  "dos_energy_up": null,
  "dos_energy_down": null,
  "is_magnetic": null,
  "ordering": null,
  "total_magnetization": 1e-6,
  "total_magnetization_normalized_vol": null,
  "total_magnetization_normalized_formula_units": null,
  "num_magnetic_sites": null,
  "num_unique_magnetic_sites": null,
  "types_of_magnetic_species": null,
  "bulk_modulus": null,
  "shear_modulus": null,
  "universal_anisotropy": null,
  "homogeneous_poisson": null,
  "e_total": null,
  "e_ionic": null,
  "e_electronic": null,
  "n": null,
  "e_ij_max": null,
  "weighted_surface_energy_EV_PER_ANG2": null,
  "weighted_surface_energy": null,
  "weighted_work_function": null,
  "surface_anisotropy": null,
  "shape_factor": null,
  "has_reconstructed": null,
  "possible_species": null,
  "has_props": null,
  "theoretical": null,
  "database_IDs": null,
  "fields_not_requested": [
    "builder_meta",
    "nsites",
    "elements",
    "nelements",
    "composition",
    "composition_reduced",
    "chemsys",
    "symmetry",
    "property_name",
    "deprecated",
    "deprecation_reasons",
    "last_updated",
    "origins",
    "warnings",
    "task_ids",
    "uncorrected_energy_per_atom",
    "equilibrium_reaction_energy_per_atom",
    "decomposes_to",
    "xas",
    "grain_boundaries",
    "cbm",
    "vbm",
    "is_gap_direct",
    "is_metal",
    "es_source_calc_id",
    "bandstructure",
    "dos",
    "dos_energy_up",
    "dos_energy_down",
    "is_magnetic",
    "ordering",
    "total_magnetization_normalized_vol",
    "total_magnetization_normalized_formula_units",
    "num_magnetic_sites",
    "num_unique_magnetic_sites",
    "types_of_magnetic_species",
    "bulk_modulus",
    "shear_modulus",
    "universal_anisotropy",
    "homogeneous_poisson",
    "e_total",
    "e_ionic",
    "e_electronic",
    "n",
    "e_ij_max",
    "weighted_surface_energy_EV_PER_ANG2",
    "weighted_surface_energy",
    "weighted_work_function",
    "surface_anisotropy",
    "shape_factor",
    "has_reconstructed",
    "possible_species",
    "has_props",
    "theoretical",
    "database_IDs"
  ]
}
