{
  "builder_meta": null,
  "nsites": null,
  "elements": null,
  "nelements": null,
  "composition": null,
  "composition_reduced": null,
  "formula_pretty": "Tl2O",
  "formula_anonymous": "AB2",
  "chemsys": null,
  "volume": 142.54251278066627,
  "density": 9.896563816701345,
  "density_atomic": 23.75708546344438,
  "symmetry": null,
  "property_name": null,
  "material_id": "mp-27484",
  "deprecated": null,
  "deprecation_reasons": null,
  "last_updated": null,
  "origins": null,
  "warnings": null,
  "structure": {
    "@module": "pymatgen.core.structure",
    "@class": "Structure",
    "charge": 0,
    "lattice": {
      "matrix": [
        [13.16464816, -1.7706331400000002, 0.02012061],
        [13.16464816, 1.7706331400000002, 0.02012061],
        [12.92182622, 0.0, 3.07732062]
      ],
      "pbc": [true, true, true],
      "a": 13.283203970880082,
      "b": 13.283203970880082,
      "c": 13.28320349381717,
      "alpha": 15.320506918176804,
      "beta": 15.320506918176804,
      "gamma": 15.320500959533833,
      "volume": 142.5425127806663
    },
    "properties": {},
    "sites": [
      {
        "species": [{ "element": "Tl", "occu": 1 }],
        "abc": [0.28861927, 0.28861927, 0.28861927],
        "properties": { "magmom": -0.0 },
        "label": "Tl",
        "xyz": [11.328630334175346, 0.0, 0.8997884224406568]
      },
      {
        "species": [{ "element": "Tl", "occu": 1 }],
        "abc": [0.71138073, 0.71138073, 0.71138073],
        "properties": { "magmom": -0.0 },
        "label": "Tl",
        "xyz": [27.922492205824657, 0.0, 2.2177734175593433]
      },
      {
        "species": [{ "element": "Tl", "occu": 1 }],
        "abc": [0.87848718, 0.87848718, 0.87848718],
        "properties": { "magmom": -0.0 },
        "label": "Tl",
        "xyz": [34.48160795199904, 0.0, 2.7387381092972114]
      },
      {
        "species": [{ "element": "Tl", "occu": 1 }],
        "abc": [0.12151282000000001, 0.12151282000000001, 0.12151282000000001],
        "properties": { "magmom": -0.0 },
        "label": "Tl",
        "xyz": [4.7695145880009635, 0.0, 0.3788237307027888]
      },
      {
        "species": [{ "element": "O", "occu": 1 }],
        "abc": [0.5835086700000001, 0.5835086700000001, 0.5835086700000001],
        "properties": { "magmom": 0.0 },
        "label": "O",
        "xyz": [22.903370309322426, 0.0, 1.8191243629011529]
      },
      {
        "species": [{ "element": "O", "occu": 1 }],
        "abc": [0.41649133, 0.41649133, 0.41649133],
        "properties": { "magmom": 0.0 },
        "label": "O",
        "xyz": [16.347752230677578, 0.0, 1.2984374770988472]
      }
    ]
  },
  "task_ids": null,
  "uncorrected_energy_per_atom": null,
  "energy_per_atom": -4.044394161666669,
  "formation_energy_per_atom": -0.8140924155555621,
  "energy_above_hull": 0.0,
  "is_stable": true,
  "equilibrium_reaction_energy_per_atom": null,
  "decomposes_to": null,
  "xas": null,
  "grain_boundaries": null,
  "band_gap": 0.5717000000000001,
  "cbm": null,
  "vbm": null,
  "efermi": 3.98236093,
  "is_gap_direct": null,
  "is_metal": null,
  "es_source_calc_id": null,
  "bandstructure": null,
  "dos": null,
  "dos_energy_up": null,
  "dos_energy_down": null,
  "is_magnetic": null,
  "ordering": null,
  "total_magnetization": 0.0,
  "total_magnetization_normalized_vol": null,
  "total_magnetization_normalized_formula_units": null,
  "num_magnetic_sites": null,
  "num_unique_magnetic_sites": null,
  "types_of_magnetic_species": null,
  "bulk_modulus": null,
  "shear_modulus": null,
  "universal_anisotropy": null,
  "homogeneous_poisson": null,
  "e_total": null,
  "e_ionic": null,
  "e_electronic": null,
  "n": null,
  "e_ij_max": null,
  "weighted_surface_energy_EV_PER_ANG2": null,
  "weighted_surface_energy": null,
  "weighted_work_function": null,
  "surface_anisotropy": null,
  "shape_factor": null,
  "has_reconstructed": null,
  "possible_species": null,
  "has_props": null,
  "theoretical": null,
  "database_IDs": null,
  "fields_not_requested": [
    "builder_meta",
    "nsites",
    "elements",
    "nelements",
    "composition",
    "composition_reduced",
    "chemsys",
    "symmetry",
    "property_name",
    "deprecated",
    "deprecation_reasons",
    "last_updated",
    "origins",
    "warnings",
    "task_ids",
    "uncorrected_energy_per_atom",
    "equilibrium_reaction_energy_per_atom",
    "decomposes_to",
    "xas",
    "grain_boundaries",
    "cbm",
    "vbm",
    "is_gap_direct",
    "is_metal",
    "es_source_calc_id",
    "bandstructure",
    "dos",
    "dos_energy_up",
    "dos_energy_down",
    "is_magnetic",
    "ordering",
    "total_magnetization_normalized_vol",
    "total_magnetization_normalized_formula_units",
    "num_magnetic_sites",
    "num_unique_magnetic_sites",
    "types_of_magnetic_species",
    "bulk_modulus",
    "shear_modulus",
    "universal_anisotropy",
    "homogeneous_poisson",
    "e_total",
    "e_ionic",
    "e_electronic",
    "n",
    "e_ij_max",
    "weighted_surface_energy_EV_PER_ANG2",
    "weighted_surface_energy",
    "weighted_work_function",
    "surface_anisotropy",
    "shape_factor",
    "has_reconstructed",
    "possible_species",
    "has_props",
    "theoretical",
    "database_IDs"
  ]
}
