{"builder_meta": null, "nsites": null, "elements": null, "nelements": null, "composition": null, "composition_reduced": null, "formula_pretty": "Tl2Pt3", "formula_anonymous": "A2B3", "chemsys": null, "volume": 393.83094338005617, "density": 16.764621937125582, "density_atomic": 19.69154716900281, "symmetry": null, "property_name": null, "material_id": "mp-30853", "deprecated": null, "deprecation_reasons": null, "last_updated": null, "origins": null, "warnings": null, "structure": {"@module": "pymatgen.core.structure", "@class": "Structure", "charge": 0, "lattice": {"matrix": [[5.69237224, 0.0, -0.0], [-2.84618612, 4.9297387, 0.0], [0.0, 0.0, 14.034361]], "pbc": [true, true, true], "a": 5.69237224, "b": 5.692372008219275, "c": 14.034361, "alpha": 90.0, "beta": 90.0, "gamma": 120.00000134693317, "volume": 393.83094338005617}, "properties": {}, "sites": [{"species": [{"element": "Tl", "occu": 1}], "abc": [-0.0, -0.0, 0.25], "properties": {"magmom": -0.0}, "label": "Tl", "xyz": [0.0, 0.0, 3.50859025]}, {"species": [{"element": "Tl", "occu": 1}], "abc": [-0.0, -0.0, 0.75], "properties": {"magmom": -0.0}, "label": "Tl", "xyz": [0.0, 0.0, 10.52577075]}, {"species": [{"element": "Tl", "occu": 1}], "abc": [0.333333, 0.666667, 0.25], "properties": {"magmom": 0.0}, "label": "Tl", "xyz": [-2.846186120120109e-06, 3.2864941099129, 3.50859025]}, {"species": [{"element": "Tl", "occu": 1}], "abc": [0.666667, 0.333333, 0.75], "properties": {"magmom": 0.0}, "label": "Tl", "xyz": [2.84618896618612, 1.6432445900870998, 10.52577075]}, {"species": [{"element": "Tl", "occu": 1}], "abc": [0.333333, 0.666667, 0.90734232], "properties": {"magmom": -0.0}, "label": "Tl", "xyz": [-2.846186120120109e-06, 3.2864941099129, 12.73396966945752]}, {"species": [{"element": "Tl", "occu": 1}], "abc": [0.333333, 0.666667, 0.59265768], "properties": {"magmom": -0.0}, "label": "Tl", "xyz": [-2.846186120120109e-06, 3.2864941099129, 8.31757183054248]}, {"species": [{"element": "Tl", "occu": 1}], "abc": [0.666667, 0.333333, 0.09265768], "properties": {"magmom": -0.0}, "label": "Tl", "xyz": [2.84618896618612, 1.6432445900870998, 1.3003913305424801]}, {"species": [{"element": "Tl", "occu": 1}], "abc": [0.666667, 0.333333, 0.40734232000000004], "properties": {"magmom": -0.0}, "label": "Tl", "xyz": [2.84618896618612, 1.6432445900870998, 5.71678916945752]}, {"species": [{"element": "Pt", "occu": 1}], "abc": [0.16611463, 0.33222573, 0.08619116], "properties": {"magmom": 0.0}, "label": "Pt", "xyz": [1.0047037003579895e-05, 1.6377860383167508, 1.20963785444876]}, {"species": [{"element": "Pt", "occu": 1}], "abc": [0.66777427, 0.8338899, 0.08619116], "properties": {"magmom": 0.0}, "label": "Pt", "xyz": [1.4278138581460769, 4.110859311569129, 1.20963785444876]}, {"species": [{"element": "Pt", "occu": 1}], "abc": [0.166110099999999, 0.8338853700000001, 0.08619116], "properties": {"magmom": 0.0}, "label": "Pt", "xyz": [-1.4278324437414462, 4.110836979852819, 1.20963785444876]}, {"species": [{"element": "Pt", "occu": 1}], "abc": [0.66777427, 0.8338853700000001, 0.41380884], "properties": {"magmom": 0.0}, "label": "Pt", "xyz": [1.4278267513692002, 4.110836979852819, 5.807542645551241]}, {"species": [{"element": "Pt", "occu": 1}], "abc": [0.166110099999999, 0.33222573, 0.41380884], "properties": {"magmom": 0.0}, "label": "Pt", "xyz": [-1.5739409249260206e-05, 1.6377860383167508, 5.807542645551241]}, {"species": [{"element": "Pt", "occu": 1}], "abc": [0.16611463, 0.8338899, 0.41380884], "properties": {"magmom": 0.0}, "label": "Pt", "xyz": [-1.4278195505183169, 4.110859311569129, 5.807542645551241]}, {"species": [{"element": "Pt", "occu": 1}], "abc": [0.8338853700000001, 0.66777427, 0.9138088400000001], "properties": {"magmom": 0.0}, "label": "Pt", "xyz": [2.8461760729629972, 3.291952661683249, 12.824723145551241]}, {"species": [{"element": "Pt", "occu": 1}], "abc": [0.33222573, 0.166110099999999, 0.9138088400000001], "properties": {"magmom": 0.0}, "label": "Pt", "xyz": [1.418372261853926, 0.818879388430865, 12.824723145551241]}, {"species": [{"element": "Pt", "occu": 1}], "abc": [0.8338899, 0.16611463, 0.9138088400000001], "properties": {"magmom": 0.0}, "label": "Pt", "xyz": [4.274018563741441, 0.818901720147181, 12.824723145551241]}, {"species": [{"element": "Pt", "occu": 1}], "abc": [0.33222573, 0.16611463, 0.58619116], "properties": {"magmom": 0.0}, "label": "Pt", "xyz": [1.4183593686307998, 0.818901720147181, 8.226818354448762]}, {"species": [{"element": "Pt", "occu": 1}], "abc": [0.8338899, 0.66777427, 0.58619116], "properties": {"magmom": 0.0}, "label": "Pt", "xyz": [2.846201859409244, 3.291952661683249, 8.226818354448762]}, {"species": [{"element": "Pt", "occu": 1}], "abc": [0.8338853700000001, 0.166110099999999, 0.58619116], "properties": {"magmom": 0.0}, "label": "Pt", "xyz": [4.274005670518321, 0.818879388430865, 8.226818354448762]}]}, "task_ids": null, "uncorrected_energy_per_atom": null, "energy_per_atom": -52.324372022, "formation_energy_per_atom": -0.16002005000000202, "energy_above_hull": 0.0, "is_stable": true, "equilibrium_reaction_energy_per_atom": null, "decomposes_to": null, "xas": null, "grain_boundaries": null, "band_gap": 0.0, "cbm": null, "vbm": null, "efermi": 7.05918412, "is_gap_direct": null, "is_metal": null, "es_source_calc_id": null, "bandstructure": null, "dos": null, "dos_energy_up": null, "dos_energy_down": null, "is_magnetic": null, "ordering": null, "total_magnetization": 0.0, "total_magnetization_normalized_vol": null, "total_magnetization_normalized_formula_units": null, "num_magnetic_sites": null, "num_unique_magnetic_sites": null, "types_of_magnetic_species": null, "bulk_modulus": null, "shear_modulus": null, "universal_anisotropy": null, "homogeneous_poisson": null, "e_total": null, "e_ionic": null, "e_electronic": null, "n": null, "e_ij_max": null, "weighted_surface_energy_EV_PER_ANG2": null, "weighted_surface_energy": null, "weighted_work_function": null, "surface_anisotropy": null, "shape_factor": null, "has_reconstructed": null, "possible_species": null, "has_props": null, "theoretical": null, "database_IDs": null, "fields_not_requested": ["builder_meta", "nsites", "elements", "nelements", "composition", "composition_reduced", "chemsys", "symmetry", "property_name", "deprecated", "deprecation_reasons", "last_updated", "origins", "warnings", "task_ids", "uncorrected_energy_per_atom", "equilibrium_reaction_energy_per_atom", "decomposes_to", "xas", "grain_boundaries", "cbm", "vbm", "is_gap_direct", "is_metal", "es_source_calc_id", "bandstructure", "dos", "dos_energy_up", "dos_energy_down", "is_magnetic", "ordering", "total_magnetization_normalized_vol", "total_magnetization_normalized_formula_units", "num_magnetic_sites", "num_unique_magnetic_sites", "types_of_magnetic_species", "bulk_modulus", "shear_modulus", "universal_anisotropy", "homogeneous_poisson", "e_total", "e_ionic", "e_electronic", "n", "e_ij_max", "weighted_surface_energy_EV_PER_ANG2", "weighted_surface_energy", "weighted_work_function", "surface_anisotropy", "shape_factor", "has_reconstructed", "possible_species", "has_props", "theoretical", "database_IDs"]}