{
  "builder_meta": null,
  "nsites": null,
  "elements": null,
  "nelements": null,
  "composition": null,
  "composition_reduced": null,
  "formula_pretty": "Tl2Pt",
  "formula_anonymous": "AB2",
  "chemsys": null,
  "volume": 135.82921619482212,
  "density": 14.764386334257209,
  "density_atomic": 22.638202699137018,
  "symmetry": null,
  "property_name": null,
  "material_id": "mp-571160",
  "deprecated": null,
  "deprecation_reasons": null,
  "last_updated": null,
  "origins": null,
  "warnings": null,
  "structure": {
    "@module": "pymatgen.core.structure",
    "@class": "Structure",
    "charge": 0,
    "lattice": {
      "matrix": [
        [4.89574352, -3.0000000000000004e-8, 2.8239522900000003],
        [2.44786971, 4.90233117, 1.4119741],
        [-0.00159779, -3.0000000000000004e-8, 5.6584979]
      ],
      "pbc": [true, true, true],
      "a": 5.651814854524008,
      "b": 5.658496962671259,
      "c": 5.65849812558397,
      "alpha": 75.55742869371403,
      "beta": 60.039062572972306,
      "gamma": 60.039089111817596,
      "volume": 135.82921619482212
    },
    "properties": {},
    "sites": [
      {
        "species": [{ "element": "Tl", "occu": 1 }],
        "abc": [0.65976461, 0.18046777, 0.5],
        "properties": { "magmom": -0.0 },
        "label": "Tl",
        "xyz": [3.6710010069470735, 0.8847127392584526, 4.947208548395214]
      },
      {
        "species": [{ "element": "Tl", "occu": 1 }],
        "abc": [0.84023539, 0.5, 0.81953223],
        "properties": { "magmom": -0.0 },
        "label": "Tl",
        "xyz": [5.336202380465401, 2.4511655352069712, 7.716093106166861]
      },
      {
        "species": [{ "element": "Tl", "occu": 1 }],
        "abc": [0.34023539, 0.81953223, 0.5],
        "properties": { "magmom": -0.0 },
        "label": "Tl",
        "xyz": [3.6710144330529264, 4.0176183707415465, 4.947215741604786]
      },
      {
        "species": [{ "element": "Tl", "occu": 1 }],
        "abc": [0.15976461, 0.5, 0.18046777],
        "properties": { "magmom": -0.0 },
        "label": "Tl",
        "xyz": [2.005813059534599, 2.4511655747930283, 2.17833118383314]
      },
      {
        "species": [{ "element": "Pt", "occu": 1 }],
        "abc": [0.25, -0.0, 0.0],
        "properties": { "magmom": -0.0 },
        "label": "Pt",
        "xyz": [1.22393588, -7.500000000000001e-9, 0.7059880725000001]
      },
      {
        "species": [{ "element": "Pt", "occu": 1 }],
        "abc": [0.75, -0.0, 0.0],
        "properties": { "magmom": -0.0 },
        "label": "Pt",
        "xyz": [3.67180764, -2.2500000000000003e-8, 2.1179642175]
      }
    ]
  },
  "task_ids": null,
  "uncorrected_energy_per_atom": null,
  "energy_per_atom": -52.72174066666667,
  "formation_energy_per_atom": -0.10629864666666801,
  "energy_above_hull": 0.0,
  "is_stable": true,
  "equilibrium_reaction_energy_per_atom": null,
  "decomposes_to": null,
  "xas": null,
  "grain_boundaries": null,
  "band_gap": 0.0,
  "cbm": null,
  "vbm": null,
  "efermi": 7.06617859,
  "is_gap_direct": null,
  "is_metal": null,
  "es_source_calc_id": null,
  "bandstructure": null,
  "dos": null,
  "dos_energy_up": null,
  "dos_energy_down": null,
  "is_magnetic": null,
  "ordering": null,
  "total_magnetization": 0.0,
  "total_magnetization_normalized_vol": null,
  "total_magnetization_normalized_formula_units": null,
  "num_magnetic_sites": null,
  "num_unique_magnetic_sites": null,
  "types_of_magnetic_species": null,
  "bulk_modulus": null,
  "shear_modulus": null,
  "universal_anisotropy": null,
  "homogeneous_poisson": null,
  "e_total": null,
  "e_ionic": null,
  "e_electronic": null,
  "n": null,
  "e_ij_max": null,
  "weighted_surface_energy_EV_PER_ANG2": null,
  "weighted_surface_energy": null,
  "weighted_work_function": null,
  "surface_anisotropy": null,
  "shape_factor": null,
  "has_reconstructed": null,
  "possible_species": null,
  "has_props": null,
  "theoretical": null,
  "database_IDs": null,
  "fields_not_requested": [
    "builder_meta",
    "nsites",
    "elements",
    "nelements",
    "composition",
    "composition_reduced",
    "chemsys",
    "symmetry",
    "property_name",
    "deprecated",
    "deprecation_reasons",
    "last_updated",
    "origins",
    "warnings",
    "task_ids",
    "uncorrected_energy_per_atom",
    "equilibrium_reaction_energy_per_atom",
    "decomposes_to",
    "xas",
    "grain_boundaries",
    "cbm",
    "vbm",
    "is_gap_direct",
    "is_metal",
    "es_source_calc_id",
    "bandstructure",
    "dos",
    "dos_energy_up",
    "dos_energy_down",
    "is_magnetic",
    "ordering",
    "total_magnetization_normalized_vol",
    "total_magnetization_normalized_formula_units",
    "num_magnetic_sites",
    "num_unique_magnetic_sites",
    "types_of_magnetic_species",
    "bulk_modulus",
    "shear_modulus",
    "universal_anisotropy",
    "homogeneous_poisson",
    "e_total",
    "e_ionic",
    "e_electronic",
    "n",
    "e_ij_max",
    "weighted_surface_energy_EV_PER_ANG2",
    "weighted_surface_energy",
    "weighted_work_function",
    "surface_anisotropy",
    "shape_factor",
    "has_reconstructed",
    "possible_species",
    "has_props",
    "theoretical",
    "database_IDs"
  ]
}
