{"builder_meta": null, "nsites": null, "elements": null, "nelements": null, "composition": null, "composition_reduced": null, "formula_pretty": "Tl2Pd", "formula_anonymous": "AB2", "chemsys": null, "volume": 135.64250924151426, "density": 12.613855061699198, "density_atomic": 22.60708487358571, "symmetry": null, "property_name": null, "material_id": "mp-570896", "deprecated": null, "deprecation_reasons": null, "last_updated": null, "origins": null, "warnings": null, "structure": {"@module": "pymatgen.core.structure", "@class": "Structure", "charge": 0, "lattice": {"matrix": [[5.4462509, 0.00451323, -1.5323924500000001], [-3.1336217, 4.40466117, -1.51236501], [-0.01494781, -0.0045132, 5.6577078499999995]], "pbc": [true, true, true], "a": 5.657728860224113, "b": 5.613187410437047, "c": 5.657729396317012, "alpha": 105.57982756930147, "beta": 105.86622640685492, "gamma": 117.63210617605853, "volume": 135.6425092415142}, "properties": {}, "sites": [{"species": [{"element": "Tl", "occu": 1}], "abc": [0.33426969, 0.83427776, 0.16783116], "properties": {"magmom": -0.0}, "label": "Tl", "xyz": [-0.7963030008499303, 3.6754620348682656, -0.824425170658412]}, {"species": [{"element": "Tl", "occu": 1}], "abc": [0.16644661, 0.33427776, 0.50000807], "properties": {"magmom": -0.0}, "label": "Tl", "xyz": [-0.14846406867776973, 1.4708748448787055, 2.0682880663650773]}, {"species": [{"element": "Tl", "occu": 1}], "abc": [0.8335533900000001, 0.66572224, 0.49999193000000003], "properties": {"magmom": -0.0}, "label": "Tl", "xyz": [2.4461454586777696, 2.9337863551212946, 0.5446623236349222]}, {"species": [{"element": "Tl", "occu": 1}], "abc": [0.66573031, 0.16572224, 0.83216884], "properties": {"magmom": -0.0}, "label": "Tl", "xyz": [3.093984390849931, 0.729199165131734, 3.437375560658412]}, {"species": [{"element": "Pd", "occu": 1}], "abc": [0.25080372, 0.25, 0.0008037200000000001], "properties": {"magmom": -0.0}, "label": "Pd", "xyz": [0.5825225469194949, 1.1022936000241115, -0.7578737665067119]}, {"species": [{"element": "Pd", "occu": 1}], "abc": [0.74919628, 0.75, 0.99919628], "properties": {"magmom": -0.0}, "label": "Pd", "xyz": [1.7151588430805056, 3.302367599975888, 3.3708241565067123]}]}, "task_ids": null, "uncorrected_energy_per_atom": null, "energy_per_atom": -43.26534337333334, "formation_energy_per_atom": -0.15898911666666501, "energy_above_hull": 0.0, "is_stable": true, "equilibrium_reaction_energy_per_atom": null, "decomposes_to": null, "xas": null, "grain_boundaries": null, "band_gap": 0.0, "cbm": null, "vbm": null, "efermi": 6.62388701, "is_gap_direct": null, "is_metal": null, "es_source_calc_id": null, "bandstructure": null, "dos": null, "dos_energy_up": null, "dos_energy_down": null, "is_magnetic": null, "ordering": null, "total_magnetization": 0.0, "total_magnetization_normalized_vol": null, "total_magnetization_normalized_formula_units": null, "num_magnetic_sites": null, "num_unique_magnetic_sites": null, "types_of_magnetic_species": null, "bulk_modulus": null, "shear_modulus": null, "universal_anisotropy": null, "homogeneous_poisson": null, "e_total": null, "e_ionic": null, "e_electronic": null, "n": null, "e_ij_max": null, "weighted_surface_energy_EV_PER_ANG2": null, "weighted_surface_energy": null, "weighted_work_function": null, "surface_anisotropy": null, "shape_factor": null, "has_reconstructed": null, "possible_species": null, "has_props": null, "theoretical": null, "database_IDs": null, "fields_not_requested": ["builder_meta", "nsites", "elements", "nelements", "composition", "composition_reduced", "chemsys", "symmetry", "property_name", "deprecated", "deprecation_reasons", "last_updated", "origins", "warnings", "task_ids", "uncorrected_energy_per_atom", "equilibrium_reaction_energy_per_atom", "decomposes_to", "xas", "grain_boundaries", "cbm", "vbm", "is_gap_direct", "is_metal", "es_source_calc_id", "bandstructure", "dos", "dos_energy_up", "dos_energy_down", "is_magnetic", "ordering", "total_magnetization_normalized_vol", "total_magnetization_normalized_formula_units", "num_magnetic_sites", "num_unique_magnetic_sites", "types_of_magnetic_species", "bulk_modulus", "shear_modulus", "universal_anisotropy", "homogeneous_poisson", "e_total", "e_ionic", "e_electronic", "n", "e_ij_max", "weighted_surface_energy_EV_PER_ANG2", "weighted_surface_energy", "weighted_work_function", "surface_anisotropy", "shape_factor", "has_reconstructed", "possible_species", "has_props", "theoretical", "database_IDs"]}