{
  "builder_meta": null,
  "nsites": null,
  "elements": null,
  "nelements": null,
  "composition": null,
  "composition_reduced": null,
  "formula_pretty": "Tl2Se3",
  "formula_anonymous": "A2B3",
  "chemsys": null,
  "volume": 287.79361486645905,
  "density": 7.450626748720227,
  "density_atomic": 28.779361486645904,
  "symmetry": null,
  "property_name": null,
  "material_id": "mp-1080677",
  "deprecated": null,
  "deprecation_reasons": null,
  "last_updated": null,
  "origins": null,
  "warnings": null,
  "structure": {
    "@module": "pymatgen.core.structure",
    "@class": "Structure",
    "charge": 0,
    "lattice": {
      "matrix": [
        [3.18661658, 6.38728575, 0.09178038000000001],
        [-3.18661658, 6.38728575, 0.09178038000000001],
        [-0.0, 2.68875015, 7.10840065]
      ],
      "pbc": [true, true, true],
      "a": 7.138653102528299,
      "b": 7.138653102528299,
      "c": 7.599916918627825,
      "alpha": 70.81770263907049,
      "beta": 70.81770263907049,
      "gamma": 53.02448822472492,
      "volume": 287.79361486645905
    },
    "properties": {},
    "sites": [
      {
        "species": [{ "element": "Tl", "occu": 1 }],
        "abc": [0.79017137, 0.43204897000000003, 0.52477253],
        "properties": { "magmom": 0.0 },
        "label": "Tl",
        "xyz": [1.1411987775093921, 9.217652779795536, 3.842469240603074]
      },
      {
        "species": [{ "element": "Tl", "occu": 1 }],
        "abc": [0.56795103, 0.20982863000000002, 0.97522747],
        "properties": { "magmom": 0.0 },
        "label": "Tl",
        "xyz": [1.1411987775093921, 7.5900439452044655, 7.003692494396926]
      },
      {
        "species": [{ "element": "Tl", "occu": 1 }],
        "abc": [0.20982863000000002, 0.56795103, 0.47522747],
        "properties": { "magmom": 0.0 },
        "label": "Tl",
        "xyz": [-1.1411987775093921, 6.245668870204465, 3.4494921693969265]
      },
      {
        "species": [{ "element": "Tl", "occu": 1 }],
        "abc": [0.43204897000000003, 0.79017137, 0.02477253],
        "properties": { "magmom": 0.0 },
        "label": "Tl",
        "xyz": [-1.1411987775093921, 7.873277704795535, 0.2882689156030737]
      },
      {
        "species": [{ "element": "Se", "occu": 1 }],
        "abc": [0.15342986, 0.84657014, 0.75],
        "properties": { "magmom": 0.0 },
        "label": "Se",
        "xyz": [-2.208772308513842, 8.4038483625, 5.4230808675]
      },
      {
        "species": [{ "element": "Se", "occu": 1 }],
        "abc": [0.84657014, 0.15342986, 0.25],
        "properties": { "magmom": 0.0 },
        "label": "Se",
        "xyz": [2.208772308513842, 7.0594732875, 1.8688805425000001]
      },
      {
        "species": [{ "element": "Se", "occu": 1 }],
        "abc": [0.98054825, 0.64615341, 0.060513290000000004],
        "properties": { "magmom": -0.0 },
        "label": "Se",
        "xyz": [1.0655881414104469, 10.552913449983839, 0.5794520064710693]
      },
      {
        "species": [{ "element": "Se", "occu": 1 }],
        "abc": [0.35384659, 0.01945175, 0.43948671],
        "properties": { "magmom": -0.0 },
        "label": "Se",
        "xyz": [1.0655881414104473, 3.566033125016162, 3.158309078528931]
      },
      {
        "species": [{ "element": "Se", "occu": 1 }],
        "abc": [0.01945175, 0.35384659, 0.9394867100000001],
        "properties": { "magmom": -0.0 },
        "label": "Se",
        "xyz": [-1.0655881414104473, 4.910408200016162, 6.712509403528931]
      },
      {
        "species": [{ "element": "Se", "occu": 1 }],
        "abc": [0.64615341, 0.98054825, 0.56051329],
        "properties": { "magmom": -0.0 },
        "label": "Se",
        "xyz": [-1.0655881414104469, 11.89728852498384, 4.13365233147107]
      }
    ]
  },
  "task_ids": null,
  "uncorrected_energy_per_atom": null,
  "energy_per_atom": -30.120065279,
  "formation_energy_per_atom": -0.26140730843749704,
  "energy_above_hull": 0.037115184187502,
  "is_stable": false,
  "equilibrium_reaction_energy_per_atom": null,
  "decomposes_to": null,
  "xas": null,
  "grain_boundaries": null,
  "band_gap": 0.8149999999999991,
  "cbm": null,
  "vbm": null,
  "efermi": 3.4842665,
  "is_gap_direct": null,
  "is_metal": null,
  "es_source_calc_id": null,
  "bandstructure": null,
  "dos": null,
  "dos_energy_up": null,
  "dos_energy_down": null,
  "is_magnetic": null,
  "ordering": null,
  "total_magnetization": 0.0,
  "total_magnetization_normalized_vol": null,
  "total_magnetization_normalized_formula_units": null,
  "num_magnetic_sites": null,
  "num_unique_magnetic_sites": null,
  "types_of_magnetic_species": null,
  "bulk_modulus": null,
  "shear_modulus": null,
  "universal_anisotropy": null,
  "homogeneous_poisson": null,
  "e_total": null,
  "e_ionic": null,
  "e_electronic": null,
  "n": null,
  "e_ij_max": null,
  "weighted_surface_energy_EV_PER_ANG2": null,
  "weighted_surface_energy": null,
  "weighted_work_function": null,
  "surface_anisotropy": null,
  "shape_factor": null,
  "has_reconstructed": null,
  "possible_species": null,
  "has_props": null,
  "theoretical": null,
  "database_IDs": null,
  "fields_not_requested": [
    "builder_meta",
    "nsites",
    "elements",
    "nelements",
    "composition",
    "composition_reduced",
    "chemsys",
    "symmetry",
    "property_name",
    "deprecated",
    "deprecation_reasons",
    "last_updated",
    "origins",
    "warnings",
    "task_ids",
    "uncorrected_energy_per_atom",
    "equilibrium_reaction_energy_per_atom",
    "decomposes_to",
    "xas",
    "grain_boundaries",
    "cbm",
    "vbm",
    "is_gap_direct",
    "is_metal",
    "es_source_calc_id",
    "bandstructure",
    "dos",
    "dos_energy_up",
    "dos_energy_down",
    "is_magnetic",
    "ordering",
    "total_magnetization_normalized_vol",
    "total_magnetization_normalized_formula_units",
    "num_magnetic_sites",
    "num_unique_magnetic_sites",
    "types_of_magnetic_species",
    "bulk_modulus",
    "shear_modulus",
    "universal_anisotropy",
    "homogeneous_poisson",
    "e_total",
    "e_ionic",
    "e_electronic",
    "n",
    "e_ij_max",
    "weighted_surface_energy_EV_PER_ANG2",
    "weighted_surface_energy",
    "weighted_work_function",
    "surface_anisotropy",
    "shape_factor",
    "has_reconstructed",
    "possible_species",
    "has_props",
    "theoretical",
    "database_IDs"
  ]
}
