{"builder_meta": null, "nsites": null, "elements": null, "nelements": null, "composition": null, "composition_reduced": null, "formula_pretty": "Tl2S", "formula_anonymous": "AB2", "chemsys": null, "volume": 877.923757882407, "density": 7.5042539664458054, "density_atomic": 32.51569473638545, "symmetry": null, "property_name": null, "material_id": "mp-556516", "deprecated": null, "deprecation_reasons": null, "last_updated": null, "origins": null, "warnings": null, "structure": {"@module": "pymatgen.core.structure", "@class": "Structure", "charge": 0, "lattice": {"matrix": [[7.337329, -6.3077, 0.0], [7.337329, 6.3077, 0.0], [1.914772, 0.0, 9.484573]], "pbc": [true, true, true], "a": 9.67592249577481, "b": 9.67592249577481, "c": 9.675922529883804, "alpha": 81.36948910233049, "beta": 81.36948910233049, "gamma": 81.36948570421247, "volume": 877.923757882407}, "properties": {}, "sites": [{"species": [{"element": "Tl", "occu": 1}], "abc": [0.733584, 0.758967, 0.427566], "properties": {"magmom": 0.0}, "label": "Tl", "xyz": [11.770029141231001, 0.1601083490999997, 4.055280939318]}, {"species": [{"element": "Tl", "occu": 1}], "abc": [0.085538999999999, 0.764562, 0.055147999999999], "properties": {"magmom": 0.0}, "label": "Tl", "xyz": [6.343066566484991, 4.283073377100006, 0.5230552318039905]}, {"species": [{"element": "Tl", "occu": 1}], "abc": [0.692317, 0.6606500000000001, 0.036210000000000006], "properties": {"magmom": 0.0}, "label": "Tl", "xyz": [9.996497899263002, -0.19974593589999934, 0.34343638833]}, {"species": [{"element": "Tl", "occu": 1}], "abc": [0.427085999999999, 0.094987999999999, 0.397181], "properties": {"magmom": 0.0}, "label": "Tl", "xyz": [4.591139758077986, -2.0947745546, 3.767092188713]}, {"species": [{"element": "Tl", "occu": 1}], "abc": [0.055147999999999, 0.085538999999999, 0.764562], "properties": {"magmom": 0.0}, "label": "Tl", "xyz": [2.4962287148869855, 0.19169731069999996, 7.251544102025999]}, {"species": [{"element": "Tl", "occu": 1}], "abc": [0.758967, 0.427566, 0.733584], "properties": {"magmom": 0.0}, "label": "Tl", "xyz": [10.110629093205, -2.0903780876999996, 6.957730999631999]}, {"species": [{"element": "Tl", "occu": 1}], "abc": [0.33343, 0.69964, 0.365768], "properties": {"magmom": 0.0}, "label": "Tl", "xyz": [8.280336794926, 2.3099428170000005, 3.4691532970639996]}, {"species": [{"element": "Tl", "occu": 1}], "abc": [0.001238, 0.365444, 0.031514], "properties": {"magmom": 0.0}, "label": "Tl", "xyz": [2.750808597186, 2.2973021861999996, 0.29889683352199997]}, {"species": [{"element": "Tl", "occu": 1}], "abc": [0.031514, 0.001238, 0.365444], "properties": {"magmom": 0.0}, "label": "Tl", "xyz": [0.9400541381759999, -0.19097192519999998, 3.4660802954119996]}, {"species": [{"element": "Tl", "occu": 1}], "abc": [0.69964, 0.365768, 0.33343], "properties": {"magmom": 0.0}, "label": "Tl", "xyz": [8.455691443192, -2.1059644144000003, 3.1624411753899997]}, {"species": [{"element": "Tl", "occu": 1}], "abc": [0.397181, 0.427085999999999, 0.094987999999999], "properties": {"magmom": 0.0}, "label": "Tl", "xyz": [6.229798525578992, 0.1886317684999934, 0.9009206201239904]}, {"species": [{"element": "Tl", "occu": 1}], "abc": [0.427566, 0.733584, 0.758967], "properties": {"magmom": 0.0}, "label": "Tl", "xyz": [9.972988328874, 1.9302697385999998, 7.198477916090999]}, {"species": [{"element": "Tl", "occu": 1}], "abc": [0.094987999999999, 0.397181, 0.427085999999999], "properties": {"magmom": 0.0}, "label": "Tl", "xyz": [4.428978190992991, 1.9061427861000064, 4.0507283442779904]}, {"species": [{"element": "Tl", "occu": 1}], "abc": [0.036210000000000006, 0.692317, 0.6606500000000001], "properties": {"magmom": 0.0}, "label": "Tl", "xyz": [6.610436406183, 4.138526123899999, 6.2659831524500005]}, {"species": [{"element": "Tl", "occu": 1}], "abc": [0.764562, 0.055147999999999, 0.085538999999999], "properties": {"magmom": 0.0}, "label": "Tl", "xyz": [6.178269636697991, -4.474770687800006, 0.8113008898469904]}, {"species": [{"element": "Tl", "occu": 1}], "abc": [0.365444, 0.031514, 0.001238], "properties": {"magmom": 0.0}, "label": "Tl", "xyz": [2.9149819329180002, -2.1063302609999996, 0.011741901373999998]}, {"species": [{"element": "Tl", "occu": 1}], "abc": [0.6606500000000001, 0.036210000000000006, 0.692317], "properties": {"magmom": 0.0}, "label": "Tl", "xyz": [6.438720293664001, -3.938780188, 6.566331125640999]}, {"species": [{"element": "Tl", "occu": 1}], "abc": [0.365768, 0.33343, 0.69964], "properties": {"magmom": 0.0}, "label": "Tl", "xyz": [6.469896844221999, -0.20397840260000022, 6.635786653719999]}, {"species": [{"element": "S", "occu": 1}], "abc": [0.540945, 0.540945, 0.540945], "properties": {"magmom": -0.0}, "label": "S", "xyz": [8.973969211350001, 0.0, 5.130632341485]}, {"species": [{"element": "S", "occu": 1}], "abc": [0.207752, 0.207752, 0.207752], "properties": {"magmom": -0.0}, "label": "S", "xyz": [3.44648726136, 0.0, 1.9704390098959998]}, {"species": [{"element": "S", "occu": 1}], "abc": [0.576373, 0.241397, 0.911176999999999], "properties": {"magmom": -0.0}, "label": "S", "xyz": [7.744943742973999, -2.1129281152, 8.64212477242099]}, {"species": [{"element": "S", "occu": 1}], "abc": [0.542658, 0.874548999999999, 0.209683999999999], "properties": {"magmom": -0.0}, "label": "S", "xyz": [10.800011072150992, 2.0934688606999936, 1.9887632049319905]}, {"species": [{"element": "S", "occu": 1}], "abc": [0.241397, 0.911176999999999, 0.576373], "properties": {"magmom": -0.0}, "label": "S", "xyz": [9.560437516801993, 4.224771305999994, 5.466651793729]}, {"species": [{"element": "S", "occu": 1}], "abc": [0.874548999999999, 0.209683999999999, 0.542658], "properties": {"magmom": -0.0}, "label": "S", "xyz": [8.994440577632986, -4.1937689605, 5.146879415033999]}, {"species": [{"element": "S", "occu": 1}], "abc": [0.911176999999999, 0.576373, 0.241397], "properties": {"magmom": -0.0}, "label": "S", "xyz": [11.376863970433995, -2.111843190799994, 2.289547468481]}, {"species": [{"element": "S", "occu": 1}], "abc": [0.209683999999999, 0.542658, 0.874548999999999], "properties": {"magmom": -0.0}, "label": "S", "xyz": [7.194742712345991, 2.1003000998000063, 8.29472383257699]}, {"species": [{"element": "S", "occu": 1}], "abc": [0.862633, 0.862633, 0.862633], "properties": {"magmom": -0.0}, "label": "S", "xyz": [14.31058976919, 0.0, 8.181705660709]}]}, "task_ids": null, "uncorrected_energy_per_atom": null, "energy_per_atom": -3.465230354074074, "formation_energy_per_atom": -0.5047957537963, "energy_above_hull": 0.0, "is_stable": true, "equilibrium_reaction_energy_per_atom": null, "decomposes_to": null, "xas": null, "grain_boundaries": null, "band_gap": 0.7668, "cbm": null, "vbm": null, "efermi": 3.73642589, "is_gap_direct": null, "is_metal": null, "es_source_calc_id": null, "bandstructure": null, "dos": null, "dos_energy_up": null, "dos_energy_down": null, "is_magnetic": null, "ordering": null, "total_magnetization": 0.0054148, "total_magnetization_normalized_vol": null, "total_magnetization_normalized_formula_units": null, "num_magnetic_sites": null, "num_unique_magnetic_sites": null, "types_of_magnetic_species": null, "bulk_modulus": null, "shear_modulus": null, "universal_anisotropy": null, "homogeneous_poisson": null, "e_total": null, "e_ionic": null, "e_electronic": null, "n": null, "e_ij_max": null, "weighted_surface_energy_EV_PER_ANG2": null, "weighted_surface_energy": null, "weighted_work_function": null, "surface_anisotropy": null, "shape_factor": null, "has_reconstructed": null, "possible_species": null, "has_props": null, "theoretical": null, "database_IDs": null, "fields_not_requested": ["builder_meta", "nsites", "elements", "nelements", "composition", "composition_reduced", "chemsys", "symmetry", "property_name", "deprecated", "deprecation_reasons", "last_updated", "origins", "warnings", "task_ids", "uncorrected_energy_per_atom", "equilibrium_reaction_energy_per_atom", "decomposes_to", "xas", "grain_boundaries", "cbm", "vbm", "is_gap_direct", "is_metal", "es_source_calc_id", "bandstructure", "dos", "dos_energy_up", "dos_energy_down", "is_magnetic", "ordering", "total_magnetization_normalized_vol", "total_magnetization_normalized_formula_units", "num_magnetic_sites", "num_unique_magnetic_sites", "types_of_magnetic_species", "bulk_modulus", "shear_modulus", "universal_anisotropy", "homogeneous_poisson", "e_total", "e_ionic", "e_electronic", "n", "e_ij_max", "weighted_surface_energy_EV_PER_ANG2", "weighted_surface_energy", "weighted_work_function", "surface_anisotropy", "shape_factor", "has_reconstructed", "possible_species", "has_props", "theoretical", "database_IDs"]}