{"builder_meta": null, "nsites": null, "elements": null, "nelements": null, "composition": null, "composition_reduced": null, "formula_pretty": "Tl2S3", "formula_anonymous": "A2B3", "chemsys": null, "volume": 6116.7762077767175, "density": 0.274166794876943, "density_atomic": 611.6776207776718, "symmetry": null, "property_name": null, "material_id": "mp-1206297", "deprecated": null, "deprecation_reasons": null, "last_updated": null, "origins": null, "warnings": null, "structure": {"@module": "pymatgen.core.structure", "@class": "Structure", "charge": 0, "lattice": {"matrix": [[-4.90522775, -8.49610326, 0.0], [-7.04879906, 9.73369478, 0.0], [0.0, 0.0, -56.82976726]], "pbc": [true, true, true], "a": 9.810455131335788, "b": 12.017919215007902, "c": 56.82976726, "alpha": 90.0, "beta": 90.0, "gamma": 114.08926606750495, "volume": 6116.7762077767175}, "properties": {}, "sites": [{"species": [{"element": "Tl", "occu": 1}], "abc": [0.0, 0.0, 0.5], "properties": {"magmom": 0.17500000000000002}, "label": "Tl", "xyz": [0.0, 0.0, -28.41488363]}, {"species": [{"element": "Tl", "occu": 1}], "abc": [0.5, 0.5, 0.0], "properties": {"magmom": -0.004}, "label": "Tl", "xyz": [-5.977013405, 0.6187957600000003, 0.0]}, {"species": [{"element": "Tl", "occu": 1}], "abc": [-0.0, 0.5, 0.0], "properties": {"magmom": -0.004}, "label": "Tl", "xyz": [-3.52439953, 4.86684739, 0.0]}, {"species": [{"element": "Tl", "occu": 1}], "abc": [0.0, -0.0, 0.0], "properties": {"magmom": -0.002}, "label": "Tl", "xyz": [0.0, 0.0, 0.0]}, {"species": [{"element": "S", "occu": 1}], "abc": [-0.0, 0.0, 0.74990164], "properties": {"magmom": 0.991}, "label": "S", "xyz": [0.0, 0.0, -42.61673566909231]}, {"species": [{"element": "S", "occu": 1}], "abc": [-0.0, 0.0, 0.25009836], "properties": {"magmom": 0.991}, "label": "S", "xyz": [0.0, 0.0, -14.213031590907693]}, {"species": [{"element": "S", "occu": 1}], "abc": [0.76346261, 0.73455269, -0.0], "properties": {"magmom": 0.095}, "label": "S", "xyz": [-8.9226722914519, 0.6634545145788495, 0.0]}, {"species": [{"element": "S", "occu": 1}], "abc": [0.23653739000000001, 0.26544731, 0.0], "properties": {"magmom": 0.095}, "label": "S", "xyz": [-3.0313545185481012, 0.5741370054211501, 0.0]}, {"species": [{"element": "S", "occu": 1}], "abc": [0.028909920000000002, 0.26544731, -0.0], "properties": {"magmom": 0.094}, "label": "S", "xyz": [-2.0128944910418087, 2.3381614301537024, 0.0]}, {"species": [{"element": "S", "occu": 1}], "abc": [0.97109008, 0.73455269, 0.0], "properties": {"magmom": 0.094}, "label": "S", "xyz": [-9.941132318958191, -1.1005699101537028, 0.0]}]}, "task_ids": null, "uncorrected_energy_per_atom": null, "energy_per_atom": -2.818356837, "formation_energy_per_atom": 0.613247750166664, "energy_above_hull": 1.113145177222219, "is_stable": false, "equilibrium_reaction_energy_per_atom": null, "decomposes_to": null, "xas": null, "grain_boundaries": null, "band_gap": 0.0, "cbm": null, "vbm": null, "efermi": -4.05296893, "is_gap_direct": null, "is_metal": null, "es_source_calc_id": null, "bandstructure": null, "dos": null, "dos_energy_up": null, "dos_energy_down": null, "is_magnetic": null, "ordering": null, "total_magnetization": 3.4967834, "total_magnetization_normalized_vol": null, "total_magnetization_normalized_formula_units": null, "num_magnetic_sites": null, "num_unique_magnetic_sites": null, "types_of_magnetic_species": null, "bulk_modulus": null, "shear_modulus": null, "universal_anisotropy": null, "homogeneous_poisson": null, "e_total": null, "e_ionic": null, "e_electronic": null, "n": null, "e_ij_max": null, "weighted_surface_energy_EV_PER_ANG2": null, "weighted_surface_energy": null, "weighted_work_function": null, "surface_anisotropy": null, "shape_factor": null, "has_reconstructed": null, "possible_species": null, "has_props": null, "theoretical": null, "database_IDs": null, "fields_not_requested": ["builder_meta", "nsites", "elements", "nelements", "composition", "composition_reduced", "chemsys", "symmetry", "property_name", "deprecated", "deprecation_reasons", "last_updated", "origins", "warnings", "task_ids", "uncorrected_energy_per_atom", "equilibrium_reaction_energy_per_atom", "decomposes_to", "xas", "grain_boundaries", "cbm", "vbm", "is_gap_direct", "is_metal", "es_source_calc_id", "bandstructure", "dos", "dos_energy_up", "dos_energy_down", "is_magnetic", "ordering", "total_magnetization_normalized_vol", "total_magnetization_normalized_formula_units", "num_magnetic_sites", "num_unique_magnetic_sites", "types_of_magnetic_species", "bulk_modulus", "shear_modulus", "universal_anisotropy", "homogeneous_poisson", "e_total", "e_ionic", "e_electronic", "n", "e_ij_max", "weighted_surface_energy_EV_PER_ANG2", "weighted_surface_energy", "weighted_work_function", "surface_anisotropy", "shape_factor", "has_reconstructed", "possible_species", "has_props", "theoretical", "database_IDs"]}