{"builder_meta": null, "nsites": null, "elements": null, "nelements": null, "composition": null, "composition_reduced": null, "formula_pretty": "Tl2Te", "formula_anonymous": "AB2", "chemsys": null, "volume": 2295.8231018409, "density": 8.534834080777113, "density_atomic": 34.78519851274091, "symmetry": null, "property_name": null, "material_id": "mp-582753", "deprecated": null, "deprecation_reasons": null, "last_updated": null, "origins": null, "warnings": null, "structure": {"@module": "pymatgen.core.structure", "@class": "Structure", "charge": 0, "lattice": {"matrix": [[4.55718086, 8.03193923, 0.035593520000000003], [-4.55718086, 8.03193923, 0.035593520000000003], [0.0, 5.25410504, 31.38441678]], "pbc": [true, true, true], "a": 9.234782730732181, "b": 9.234782730732181, "c": 31.821175911523113, "alpha": 81.5232190432472, "beta": 81.5232190432472, "gamma": 59.1391433111517, "volume": 2295.8231018409}, "properties": {}, "sites": [{"species": [{"element": "Tl", "occu": 1}], "abc": [0.40224071, 0.20598464, 0.312116399999999], "properties": {"magmom": -0.0}, "label": "Tl", "xyz": [0.8943744058628201, 6.525121399652132, 9.817240062632893]}, {"species": [{"element": "Tl", "occu": 1}], "abc": [0.20598464, 0.40224071, 0.8121164], "properties": {"magmom": -0.0}, "label": "Tl", "xyz": [-0.8943744058628201, 9.152173919652137, 25.50944845263292]}, {"species": [{"element": "Tl", "occu": 1}], "abc": [0.48524866, 0.6834684, 0.41306689], "properties": {"magmom": -0.0}, "label": "Tl", "xyz": [-0.9033232052021765, 11.557361231590392, 13.005462187827865]}, {"species": [{"element": "Tl", "occu": 1}], "abc": [0.00535808, 0.83316046, 0.42933751000000003], "properties": {"magmom": 0.0}, "label": "Tl", "xyz": [-3.7724451619984465, 8.990714331660376, 13.504353179551279]}, {"species": [{"element": "Tl", "occu": 1}], "abc": [0.72100312, 0.19607751, 0.8093752], "properties": {"magmom": -0.0}, "label": "Tl", "xyz": [2.3921809428158243, 11.618478206741123, 25.434410735941373]}, {"species": [{"element": "Tl", "occu": 1}], "abc": [0.52322268, 0.05779937, 0.4357531], "properties": {"magmom": -0.0}, "label": "Tl", "xyz": [2.1210182001298468, 6.956226355795646, 13.696537523534133]}, {"species": [{"element": "Tl", "occu": 1}], "abc": [0.5619526300000001, 0.71111279, 0.00107314], "properties": {"magmom": -0.0}, "label": "Tl", "xyz": [-0.6797498262265371, 10.230822479537053, 0.07899275251136761]}, {"species": [{"element": "Tl", "occu": 1}], "abc": [0.16796952, 0.04543885, 0.75923196], "properties": {"magmom": -0.0}, "label": "Tl", "xyz": [0.5583944240869763, 5.703167526578434, 23.83564822042205]}, {"species": [{"element": "Tl", "occu": 1}], "abc": [0.04543885, 0.16796952, 0.25923196], "properties": {"magmom": -0.0}, "label": "Tl", "xyz": [-0.5583944240869763, 3.0761150065784335, 8.14343983042205]}, {"species": [{"element": "Tl", "occu": 1}], "abc": [0.7940153600000001, 0.59775929, 0.187883599999999], "properties": {"magmom": -0.0}, "label": "Tl", "xyz": [0.8943744058628198, 12.165809580347862, 5.946155367367045]}, {"species": [{"element": "Tl", "occu": 1}], "abc": [0.51799442, 0.03599494, 0.12267202], "properties": {"magmom": -0.0}, "label": "Tl", "xyz": [2.1965588047859526, 5.094140552135574, 3.8697082342894427]}, {"species": [{"element": "Tl", "occu": 1}], "abc": [0.9946419200000001, 0.16683954, 0.57066249], "properties": {"magmom": 0.0}, "label": "Tl", "xyz": [3.7724451619984465, 12.327269168339626, 17.95125064044872]}, {"species": [{"element": "Tl", "occu": 1}], "abc": [0.94220063, 0.47677732, 0.0642469], "properties": {"magmom": -0.0}, "label": "Tl", "xyz": [2.1210182001298463, 11.734704624204356, 2.0668579064658656]}, {"species": [{"element": "Tl", "occu": 1}], "abc": [0.19607751, 0.72100312, 0.309375199999999], "properties": {"magmom": -0.0}, "label": "Tl", "xyz": [-2.3921809428158243, 8.991425686741119, 9.742202345941344]}, {"species": [{"element": "Tl", "occu": 1}], "abc": [0.73136435, 0.25571209, 0.14558494], "properties": {"magmom": 0.0}, "label": "Tl", "xyz": [2.1676333752877435, 8.69305654844684, 4.604231958859962]}, {"species": [{"element": "Tl", "occu": 1}], "abc": [0.83316046, 0.00535808, 0.92933751], "properties": {"magmom": 0.0}, "label": "Tl", "xyz": [3.7724451619984465, 11.617766851660376, 29.196561569551278]}, {"species": [{"element": "Tl", "occu": 1}], "abc": [0.39371795, 0.30800249, 0.69696541], "properties": {"magmom": -0.0}, "label": "Tl", "xyz": [0.3906208537180955, 9.298105403915528, 21.898829609199126]}, {"species": [{"element": "Tl", "occu": 1}], "abc": [0.30800249, 0.39371795, 0.19696541], "properties": {"magmom": -0.0}, "label": "Tl", "xyz": [-0.3906208537180955, 6.671052883915529, 6.206621219199129]}, {"species": [{"element": "Tl", "occu": 1}], "abc": [0.48200558, 0.96400506, 0.87732798], "properties": {"magmom": -0.0}, "label": "Tl", "xyz": [-2.1965588047859526, 16.223842947864426, 27.585895585710556]}, {"species": [{"element": "Tl", "occu": 1}], "abc": [0.26863565, 0.74428791, 0.85441506], "properties": {"magmom": 0.0}, "label": "Tl", "xyz": [-2.167633375287744, 12.624926951553162, 26.851371861140038]}, {"species": [{"element": "Tl", "occu": 1}], "abc": [0.95456115, 0.83203048, 0.74076804], "properties": {"magmom": -0.0}, "label": "Tl", "xyz": [0.558394424086976, 18.241868493421567, 23.312163989577947]}, {"species": [{"element": "Tl", "occu": 1}], "abc": [0.05779937, 0.52322268, 0.9357531], "properties": {"magmom": -0.0}, "label": "Tl", "xyz": [-2.1210182001298468, 9.583278875795646, 29.388745913534134]}, {"species": [{"element": "Tl", "occu": 1}], "abc": [0.60628205, 0.69199751, 0.30303459], "properties": {"magmom": -0.0}, "label": "Tl", "xyz": [-0.3906208537180955, 12.019878096084474, 9.55677421080087]}, {"species": [{"element": "Tl", "occu": 1}], "abc": [0.43804737, 0.28888721, 0.99892686], "properties": {"magmom": -0.0}, "label": "Tl", "xyz": [0.6797498262265376, 11.087161020462947, 31.376611067488632]}, {"species": [{"element": "Tl", "occu": 1}], "abc": [0.10541129, 0.15856173, 0.46300278], "properties": {"magmom": -0.0}, "label": "Tl", "xyz": [-0.24221616786857847, 4.552880494931586, 14.540467946785478]}, {"species": [{"element": "Tl", "occu": 1}], "abc": [0.51475134, 0.316531599999999, 0.58693311], "properties": {"magmom": -0.0}, "label": "Tl", "xyz": [0.9033232052021811, 9.760622268409604, 18.450141632172134]}, {"species": [{"element": "Tl", "occu": 1}], "abc": [0.27899688, 0.80392249, 0.190624799999999], "properties": {"magmom": -0.0}, "label": "Tl", "xyz": [-2.3921809428158247, 9.699505293258873, 6.021193084058595]}, {"species": [{"element": "Tl", "occu": 1}], "abc": [0.84143827, 0.8945887100000001, 0.03699722], "properties": {"magmom": -0.0}, "label": "Tl", "xyz": [-0.24221616786857858, 14.138050485068417, 1.2229274832145212]}, {"species": [{"element": "Tl", "occu": 1}], "abc": [0.16683954, 0.9946419200000001, 0.07066249000000001], "properties": {"magmom": 0.0}, "label": "Tl", "xyz": [-3.7724451619984465, 9.700216648339627, 2.2590422504487213]}, {"species": [{"element": "Tl", "occu": 1}], "abc": [0.25571209, 0.73136435, 0.64558494], "properties": {"magmom": 0.0}, "label": "Tl", "xyz": [-2.1676333752877435, 11.32010906844684, 20.29644034885996]}, {"species": [{"element": "Tl", "occu": 1}], "abc": [0.69199751, 0.60628205, 0.80303459], "properties": {"magmom": -0.0}, "label": "Tl", "xyz": [0.3906208537180955, 14.646930616084475, 25.24898260080087]}, {"species": [{"element": "Tl", "occu": 1}], "abc": [0.47677732, 0.94220063, 0.5642469], "properties": {"magmom": -0.0}, "label": "Tl", "xyz": [-2.1210182001298463, 14.361757144204356, 17.759066296465864]}, {"species": [{"element": "Tl", "occu": 1}], "abc": [0.74428791, 0.26863565, 0.35441506], "properties": {"magmom": 0.0}, "label": "Tl", "xyz": [2.167633375287744, 9.997874431553162, 11.159163471140037]}, {"species": [{"element": "Tl", "occu": 1}], "abc": [0.15856173, 0.10541129, 0.9630027800000001], "properties": {"magmom": -0.0}, "label": "Tl", "xyz": [0.24221616786857847, 7.179933014931587, 30.232676336785477]}, {"species": [{"element": "Tl", "occu": 1}], "abc": [0.96400506, 0.48200558, 0.37732798], "properties": {"magmom": -0.0}, "label": "Tl", "xyz": [2.1965588047859526, 13.596790427864427, 11.893687195710557]}, {"species": [{"element": "Tl", "occu": 1}], "abc": [0.6834684, 0.48524866, 0.91306689], "properties": {"magmom": -0.0}, "label": "Tl", "xyz": [0.9033232052021765, 14.184413751590391, 28.697670577827864]}, {"species": [{"element": "Tl", "occu": 1}], "abc": [0.316531599999999, 0.51475134, 0.08693311000000001], "properties": {"magmom": -0.0}, "label": "Tl", "xyz": [-0.9033232052021811, 7.133569748409604, 2.7579332421721348]}, {"species": [{"element": "Tl", "occu": 1}], "abc": [0.80392249, 0.27899688, 0.690624799999999], "properties": {"magmom": -0.0}, "label": "Tl", "xyz": [2.3921809428158247, 12.326557813258873, 21.713401474058596]}, {"species": [{"element": "Tl", "occu": 1}], "abc": [0.28888721, 0.43804737, 0.49892686], "properties": {"magmom": -0.0}, "label": "Tl", "xyz": [-0.6797498262265376, 8.460108500462947, 15.684402677488633]}, {"species": [{"element": "Tl", "occu": 1}], "abc": [0.71111279, 0.5619526300000001, 0.50107314], "properties": {"magmom": -0.0}, "label": "Tl", "xyz": [0.6797498262265371, 12.857874999537053, 15.771201142511368]}, {"species": [{"element": "Tl", "occu": 1}], "abc": [0.59775929, 0.7940153600000001, 0.687883599999999], "properties": {"magmom": -0.0}, "label": "Tl", "xyz": [-0.8943744058628198, 14.792862100347861, 21.638363757367046]}, {"species": [{"element": "Tl", "occu": 1}], "abc": [0.8945887100000001, 0.84143827, 0.53699722], "properties": {"magmom": -0.0}, "label": "Tl", "xyz": [0.24221616786857858, 16.76510300506842, 16.91513587321452]}, {"species": [{"element": "Tl", "occu": 1}], "abc": [0.83203048, 0.95456115, 0.24076804000000002], "properties": {"magmom": -0.0}, "label": "Tl", "xyz": [-0.558394424086976, 15.61481597342157, 7.619955599577949]}, {"species": [{"element": "Tl", "occu": 1}], "abc": [0.03599494, 0.51799442, 0.62267202], "properties": {"magmom": -0.0}, "label": "Tl", "xyz": [-2.1965588047859526, 7.7211930721355735, 19.56191662428944]}, {"species": [{"element": "Te", "occu": 1}], "abc": [0.7726799400000001, 0.9096766, 0.35232418], "properties": {"magmom": -0.0}, "label": "Te", "xyz": [-0.6243185568359273, 15.363733742324932, 11.11736989794536]}, {"species": [{"element": "Te", "occu": 1}], "abc": [0.0903234, 0.22732006000000002, 0.14767582], "properties": {"magmom": -0.0}, "label": "Te", "xyz": [-0.6243185568359277, 3.327197237675069, 4.646025532054638]}, {"species": [{"element": "Te", "occu": 1}], "abc": [0.98141423, 0.48244769, 0.72631766], "properties": {"magmom": 0.0}, "label": "Te", "xyz": [2.273880765868425, 15.573799260598129, 22.84716015464109]}, {"species": [{"element": "Te", "occu": 1}], "abc": [0.9096766, 0.7726799400000001, 0.85232418], "properties": {"magmom": -0.0}, "label": "Te", "xyz": [0.6243185568359273, 17.99078626232493, 26.809578287945357]}, {"species": [{"element": "Te", "occu": 1}], "abc": [0.22732006000000002, 0.0903234, 0.64767582], "properties": {"magmom": -0.0}, "label": "Te", "xyz": [0.6243185568359277, 5.954249757675068, 20.338233922054638]}, {"species": [{"element": "Te", "occu": 1}], "abc": [0.32067526, 0.4555934, 0.39463713], "properties": {"magmom": 0.0}, "label": "Te", "xyz": [-0.6148463652748002, 8.308407636977668, 12.413086298858124]}, {"species": [{"element": "Te", "occu": 1}], "abc": [0.39773111, 0.6022688900000001, 0.75], "properties": {"magmom": 0.0}, "label": "Te", "xyz": [-0.9321156561628912, 11.972518010000002, 23.573906105]}, {"species": [{"element": "Te", "occu": 1}], "abc": [0.01897002, 0.18404971, 0.87190987], "properties": {"magmom": 0.0}, "label": "Te", "xyz": [-0.7522980036427334, 6.211748176243753, 27.371608941495765]}, {"species": [{"element": "Te", "occu": 1}], "abc": [0.21934434, 0.71115766, 0.984799299999999], "properties": {"magmom": 0.0}, "label": "Te", "xyz": [-2.241282248597055, 12.647974482911927, 30.940471517399263]}, {"species": [{"element": "Te", "occu": 1}], "abc": [0.5444066, 0.67932474, 0.10536287], "properties": {"magmom": 0.0}, "label": "Te", "xyz": [-0.6148463652748002, 10.382523343022335, 3.3503091311418753]}, {"species": [{"element": "Te", "occu": 1}], "abc": [0.71115766, 0.21934434, 0.4847993], "properties": {"magmom": 0.0}, "label": "Te", "xyz": [2.241282248597055, 10.020921962911933, 15.248263127399293]}, {"species": [{"element": "Te", "occu": 1}], "abc": [0.81595029, 0.98102998, 0.62809013], "properties": {"magmom": 0.0}, "label": "Te", "xyz": [-0.7522980036427334, 17.733287843756248, 19.776203268504233]}, {"species": [{"element": "Te", "occu": 1}], "abc": [0.6022688900000001, 0.39773111, 0.25], "properties": {"magmom": 0.0}, "label": "Te", "xyz": [0.9321156561628912, 9.34546549, 7.881697715]}, {"species": [{"element": "Te", "occu": 1}], "abc": [0.51755231, 0.01858577, 0.77368234], "properties": {"magmom": 0.0}, "label": "Te", "xyz": [2.2738807658684244, 8.37123675940187, 24.300652055358906]}, {"species": [{"element": "Te", "occu": 1}], "abc": [0.4555934, 0.32067526, 0.89463713], "properties": {"magmom": 0.0}, "label": "Te", "xyz": [0.6148463652748002, 10.935460156977667, 28.105294688858123]}, {"species": [{"element": "Te", "occu": 1}], "abc": [0.98102998, 0.81595029, 0.12809013], "properties": {"magmom": 0.0}, "label": "Te", "xyz": [0.7522980036427334, 15.106235323756248, 4.083994878504231]}, {"species": [{"element": "Te", "occu": 1}], "abc": [0.78065566, 0.28884234000000003, 0.0152007], "properties": {"magmom": 0.0}, "label": "Te", "xyz": [2.241282248597055, 8.670009017088068, 0.515132302600706]}, {"species": [{"element": "Te", "occu": 1}], "abc": [0.67932474, 0.5444066, 0.60536287], "properties": {"magmom": 0.0}, "label": "Te", "xyz": [0.6148463652748002, 13.009575863022334, 19.042517521141875]}, {"species": [{"element": "Te", "occu": 1}], "abc": [0.18404971, 0.01897002, 0.37190987000000003], "properties": {"magmom": 0.0}, "label": "Te", "xyz": [0.7522980036427334, 3.584695656243753, 11.67940055149577]}, {"species": [{"element": "Te", "occu": 1}], "abc": [0.01858577, 0.51755231, 0.27368234], "properties": {"magmom": 0.0}, "label": "Te", "xyz": [-2.2738807658684244, 5.744184239401872, 8.608443665358907]}, {"species": [{"element": "Te", "occu": 1}], "abc": [0.28884234000000003, 0.78065566, 0.5152007], "properties": {"magmom": 0.0}, "label": "Te", "xyz": [-2.241282248597055, 11.297061537088068, 16.207340692600706]}, {"species": [{"element": "Te", "occu": 1}], "abc": [0.48244769, 0.98141423, 0.22631766], "properties": {"magmom": 0.0}, "label": "Te", "xyz": [-2.273880765868425, 12.946746740598128, 7.154951764641093]}]}, "task_ids": null, "uncorrected_energy_per_atom": null, "energy_per_atom": -3.063743224545457, "formation_energy_per_atom": -0.434993182323239, "energy_above_hull": 0.0, "is_stable": true, "equilibrium_reaction_energy_per_atom": null, "decomposes_to": null, "xas": null, "grain_boundaries": null, "band_gap": 0.8007000000000001, "cbm": null, "vbm": null, "efermi": 4.42005222, "is_gap_direct": null, "is_metal": null, "es_source_calc_id": null, "bandstructure": null, "dos": null, "dos_energy_up": null, "dos_energy_down": null, "is_magnetic": null, "ordering": null, "total_magnetization": 0.0, "total_magnetization_normalized_vol": null, "total_magnetization_normalized_formula_units": null, "num_magnetic_sites": null, "num_unique_magnetic_sites": null, "types_of_magnetic_species": null, "bulk_modulus": null, "shear_modulus": null, "universal_anisotropy": null, "homogeneous_poisson": null, "e_total": null, "e_ionic": null, "e_electronic": null, "n": null, "e_ij_max": null, "weighted_surface_energy_EV_PER_ANG2": null, "weighted_surface_energy": null, "weighted_work_function": null, "surface_anisotropy": null, "shape_factor": null, "has_reconstructed": null, "possible_species": null, "has_props": null, "theoretical": null, "database_IDs": null, "fields_not_requested": ["builder_meta", "nsites", "elements", "nelements", "composition", "composition_reduced", "chemsys", "symmetry", "property_name", "deprecated", "deprecation_reasons", "last_updated", "origins", "warnings", "task_ids", "uncorrected_energy_per_atom", "equilibrium_reaction_energy_per_atom", "decomposes_to", "xas", "grain_boundaries", "cbm", "vbm", "is_gap_direct", "is_metal", "es_source_calc_id", "bandstructure", "dos", "dos_energy_up", "dos_energy_down", "is_magnetic", "ordering", "total_magnetization_normalized_vol", "total_magnetization_normalized_formula_units", "num_magnetic_sites", "num_unique_magnetic_sites", "types_of_magnetic_species", "bulk_modulus", "shear_modulus", "universal_anisotropy", "homogeneous_poisson", "e_total", "e_ionic", "e_electronic", "n", "e_ij_max", "weighted_surface_energy_EV_PER_ANG2", "weighted_surface_energy", "weighted_work_function", "surface_anisotropy", "shape_factor", "has_reconstructed", "possible_species", "has_props", "theoretical", "database_IDs"]}