{"builder_meta": null, "nsites": null, "elements": null, "nelements": null, "composition": null, "composition_reduced": null, "formula_pretty": "Tl2Te3", "formula_anonymous": "A2B3", "chemsys": null, "volume": 347.80630992550755, "density": 7.55838652494405, "density_atomic": 34.780630992550755, "symmetry": null, "property_name": null, "material_id": "mp-29711", "deprecated": null, "deprecation_reasons": null, "last_updated": null, "origins": null, "warnings": null, "structure": {"@module": "pymatgen.core.structure", "@class": "Structure", "charge": 0, "lattice": {"matrix": [[6.64435725, 2e-08, -0.0], [-3.32217809, 6.42611912, -1.94482869], [-0.0, 0.07675335, 8.12260791]], "pbc": [true, true, true], "a": 6.64435725, "b": 7.490943387821907, "c": 8.122970536468218, "alpha": 104.56668483245481, "beta": 89.9999999983704, "gamma": 116.32693696514599, "volume": 347.80630992550755}, "properties": {}, "sites": [{"species": [{"element": "Tl", "occu": 1}], "abc": [0.55290813, 0.78442771, 0.55088201], "properties": {"magmom": -0.0}, "label": "Tl", "xyz": [1.0677105907985687, 5.083107956269211, 2.9490210562636987]}, {"species": [{"element": "Tl", "occu": 1}], "abc": [0.76848142, 0.21557229, 0.94911799], "properties": {"magmom": -0.0}, "label": "Tl", "xyz": [4.3898955558181685, 1.45814121515858, 7.2900621187363]}, {"species": [{"element": "Tl", "occu": 1}], "abc": [0.44709187, 0.21557229, 0.44911799], "properties": {"magmom": -0.0}, "label": "Tl", "xyz": [2.2544685692014315, 1.419764533730789, 3.228758163736301]}, {"species": [{"element": "Tl", "occu": 1}], "abc": [0.23151858, 0.78442771, 0.05088201], "properties": {"magmom": -0.0}, "label": "Tl", "xyz": [-1.067716395818169, 5.04473127484142, -1.112282898736301]}, {"species": [{"element": "Te", "occu": 1}], "abc": [0.32703661, 0.36171295000000003, 0.07318351000000001], "properties": {"magmom": 0.0}, "label": "Te", "xyz": [0.971273233309657, 2.3300275900445953, -0.10902876549697149]}, {"species": [{"element": "Te", "occu": 1}], "abc": [0.96532366, 0.63828705, 0.42681649], "properties": {"magmom": 0.0}, "label": "Te", "xyz": [4.293452006276801, 4.134468230802611, 2.225504030496971]}, {"species": [{"element": "Te", "occu": 1}], "abc": [0.67296339, 0.63828705, 0.92681649], "properties": {"magmom": 0.0}, "label": "Te", "xyz": [2.350905926690343, 4.172844899955405, 6.286807985496971]}, {"species": [{"element": "Te", "occu": 1}], "abc": [0.03467734, 0.36171295000000003, 0.57318351], "properties": {"magmom": 0.0}, "label": "Te", "xyz": [-0.9712662019195506, 2.3684042591974097, 3.9522751895030286]}, {"species": [{"element": "Te", "occu": 1}], "abc": [0.8578517800000001, 0.0, 0.25], "properties": {"magmom": -0.0}, "label": "Te", "xyz": [5.699873693868405, 0.0191883546570356, 2.0306519775]}, {"species": [{"element": "Te", "occu": 1}], "abc": [0.14214822, -0.0, 0.75], "properties": {"magmom": -0.0}, "label": "Te", "xyz": [0.9444835561315948, 0.0575650153429644, 6.0919559324999994]}]}, "task_ids": null, "uncorrected_energy_per_atom": null, "energy_per_atom": -3.278799689999999, "formation_energy_per_atom": -0.44422730733333504, "energy_above_hull": 0.0, "is_stable": true, "equilibrium_reaction_energy_per_atom": null, "decomposes_to": null, "xas": null, "grain_boundaries": null, "band_gap": 0.638899999999999, "cbm": null, "vbm": null, "efermi": 4.85505758, "is_gap_direct": null, "is_metal": null, "es_source_calc_id": null, "bandstructure": null, "dos": null, "dos_energy_up": null, "dos_energy_down": null, "is_magnetic": null, "ordering": null, "total_magnetization": 0.0, "total_magnetization_normalized_vol": null, "total_magnetization_normalized_formula_units": null, "num_magnetic_sites": null, "num_unique_magnetic_sites": null, "types_of_magnetic_species": null, "bulk_modulus": null, "shear_modulus": null, "universal_anisotropy": null, "homogeneous_poisson": null, "e_total": null, "e_ionic": null, "e_electronic": null, "n": null, "e_ij_max": null, "weighted_surface_energy_EV_PER_ANG2": null, "weighted_surface_energy": null, "weighted_work_function": null, "surface_anisotropy": null, "shape_factor": null, "has_reconstructed": null, "possible_species": null, "has_props": null, "theoretical": null, "database_IDs": null, "fields_not_requested": ["builder_meta", "nsites", "elements", "nelements", "composition", "composition_reduced", "chemsys", "symmetry", "property_name", "deprecated", "deprecation_reasons", "last_updated", "origins", "warnings", "task_ids", "uncorrected_energy_per_atom", "equilibrium_reaction_energy_per_atom", "decomposes_to", "xas", "grain_boundaries", "cbm", "vbm", "is_gap_direct", "is_metal", "es_source_calc_id", "bandstructure", "dos", "dos_energy_up", "dos_energy_down", "is_magnetic", "ordering", "total_magnetization_normalized_vol", "total_magnetization_normalized_formula_units", "num_magnetic_sites", "num_unique_magnetic_sites", "types_of_magnetic_species", "bulk_modulus", "shear_modulus", "universal_anisotropy", "homogeneous_poisson", "e_total", "e_ionic", "e_electronic", "n", "e_ij_max", "weighted_surface_energy_EV_PER_ANG2", "weighted_surface_energy", "weighted_work_function", "surface_anisotropy", "shape_factor", "has_reconstructed", "possible_species", "has_props", "theoretical", "database_IDs"]}