{
  "builder_meta": null,
  "nsites": null,
  "elements": null,
  "nelements": null,
  "composition": null,
  "composition_reduced": null,
  "formula_pretty": "Tl3As",
  "formula_anonymous": "AB3",
  "chemsys": null,
  "volume": 236.764853098818,
  "density": 9.651513655087903,
  "density_atomic": 29.59560663735225,
  "symmetry": null,
  "property_name": null,
  "material_id": "mp-1187593",
  "deprecated": null,
  "deprecation_reasons": null,
  "last_updated": null,
  "origins": null,
  "warnings": null,
  "structure": {
    "@module": "pymatgen.core.structure",
    "@class": "Structure",
    "charge": 0,
    "lattice": {
      "matrix": [
        [3.80366708, -6.58814402, 0.0],
        [3.80366708, 6.58814402, -0.0],
        [0.0, -0.0, 4.72412799]
      ],
      "pbc": [true, true, true],
      "a": 7.607333625110541,
      "b": 7.607333625110541,
      "c": 4.72412799,
      "alpha": 90.0,
      "beta": 90.0,
      "gamma": 119.99999534817272,
      "volume": 236.764853098818
    },
    "properties": {},
    "sites": [
      {
        "species": [{ "element": "Tl", "occu": 1 }],
        "abc": [0.17873297, 0.35746694, 0.25],
        "properties": { "magmom": -0.0 },
        "label": "Tl",
        "xyz": [2.0395259459659627, 1.1775251356263594, 1.1810319975]
      },
      {
        "species": [{ "element": "Tl", "occu": 1 }],
        "abc": [0.64253306, 0.82126703, 0.25],
        "properties": { "magmom": -0.0 },
        "label": "Tl",
        "xyz": [5.567808214034037, 1.1775251356263592, 1.1810319975]
      },
      {
        "species": [{ "element": "Tl", "occu": 1 }],
        "abc": [0.17873297, 0.82126703, 0.25],
        "properties": { "magmom": -0.0 },
        "label": "Tl",
        "xyz": [3.80366708, 4.233106925035321, 1.1810319975]
      },
      {
        "species": [{ "element": "Tl", "occu": 1 }],
        "abc": [0.82126703, 0.64253306, 0.75],
        "properties": { "magmom": -0.0 },
        "label": "Tl",
        "xyz": [5.567808214034037, -1.1775251356263592, 3.5430959925000005]
      },
      {
        "species": [{ "element": "Tl", "occu": 1 }],
        "abc": [0.35746694, 0.17873297, 0.75],
        "properties": { "magmom": -0.0 },
        "label": "Tl",
        "xyz": [2.0395259459659627, -1.1775251356263594, 3.5430959925000005]
      },
      {
        "species": [{ "element": "Tl", "occu": 1 }],
        "abc": [0.82126703, 0.17873297, 0.75],
        "properties": { "magmom": -0.0 },
        "label": "Tl",
        "xyz": [3.80366708, -4.233106925035321, 3.5430959925000005]
      },
      {
        "species": [{ "element": "As", "occu": 1 }],
        "abc": [0.333333, 0.666667, 0.75],
        "properties": { "magmom": 0.0 },
        "label": "As",
        "xyz": [3.80366708, 2.1960523987626797, 3.5430959925000005]
      },
      {
        "species": [{ "element": "As", "occu": 1 }],
        "abc": [0.666667, 0.333333, 0.25],
        "properties": { "magmom": 0.0 },
        "label": "As",
        "xyz": [3.80366708, -2.1960523987626797, 1.1810319975]
      }
    ]
  },
  "task_ids": null,
  "uncorrected_energy_per_atom": null,
  "energy_per_atom": -43.54298437375,
  "formation_energy_per_atom": 0.018376808124997,
  "energy_above_hull": 0.018376808124997,
  "is_stable": false,
  "equilibrium_reaction_energy_per_atom": null,
  "decomposes_to": null,
  "xas": null,
  "grain_boundaries": null,
  "band_gap": 0.0,
  "cbm": null,
  "vbm": null,
  "efermi": 5.38684575,
  "is_gap_direct": null,
  "is_metal": null,
  "es_source_calc_id": null,
  "bandstructure": null,
  "dos": null,
  "dos_energy_up": null,
  "dos_energy_down": null,
  "is_magnetic": null,
  "ordering": null,
  "total_magnetization": 0.0,
  "total_magnetization_normalized_vol": null,
  "total_magnetization_normalized_formula_units": null,
  "num_magnetic_sites": null,
  "num_unique_magnetic_sites": null,
  "types_of_magnetic_species": null,
  "bulk_modulus": null,
  "shear_modulus": null,
  "universal_anisotropy": null,
  "homogeneous_poisson": null,
  "e_total": null,
  "e_ionic": null,
  "e_electronic": null,
  "n": null,
  "e_ij_max": null,
  "weighted_surface_energy_EV_PER_ANG2": null,
  "weighted_surface_energy": null,
  "weighted_work_function": null,
  "surface_anisotropy": null,
  "shape_factor": null,
  "has_reconstructed": null,
  "possible_species": null,
  "has_props": null,
  "theoretical": null,
  "database_IDs": null,
  "fields_not_requested": [
    "builder_meta",
    "nsites",
    "elements",
    "nelements",
    "composition",
    "composition_reduced",
    "chemsys",
    "symmetry",
    "property_name",
    "deprecated",
    "deprecation_reasons",
    "last_updated",
    "origins",
    "warnings",
    "task_ids",
    "uncorrected_energy_per_atom",
    "equilibrium_reaction_energy_per_atom",
    "decomposes_to",
    "xas",
    "grain_boundaries",
    "cbm",
    "vbm",
    "is_gap_direct",
    "is_metal",
    "es_source_calc_id",
    "bandstructure",
    "dos",
    "dos_energy_up",
    "dos_energy_down",
    "is_magnetic",
    "ordering",
    "total_magnetization_normalized_vol",
    "total_magnetization_normalized_formula_units",
    "num_magnetic_sites",
    "num_unique_magnetic_sites",
    "types_of_magnetic_species",
    "bulk_modulus",
    "shear_modulus",
    "universal_anisotropy",
    "homogeneous_poisson",
    "e_total",
    "e_ionic",
    "e_electronic",
    "n",
    "e_ij_max",
    "weighted_surface_energy_EV_PER_ANG2",
    "weighted_surface_energy",
    "weighted_work_function",
    "surface_anisotropy",
    "shape_factor",
    "has_reconstructed",
    "possible_species",
    "has_props",
    "theoretical",
    "database_IDs"
  ]
}
