{
  "builder_meta": null,
  "nsites": null,
  "elements": null,
  "nelements": null,
  "composition": null,
  "composition_reduced": null,
  "formula_pretty": "Tl3Bi",
  "formula_anonymous": "AB3",
  "chemsys": null,
  "volume": 255.78948602274534,
  "density": 10.674242340548613,
  "density_atomic": 31.973685752843167,
  "symmetry": null,
  "property_name": null,
  "material_id": "mp-1006059",
  "deprecated": null,
  "deprecation_reasons": null,
  "last_updated": null,
  "origins": null,
  "warnings": null,
  "structure": {
    "@module": "pymatgen.core.structure",
    "@class": "Structure",
    "charge": 0,
    "lattice": {
      "matrix": [
        [7.47076722, 0.00085111, 0.0009004999999990001],
        [-3.7346451700000003, 6.47016058, -0.00083081],
        [0.0006275, -0.00029138, 5.29143999]
      ],
      "pbc": [true, true, true],
      "a": 7.4707673227530655,
      "b": 7.470646101043438,
      "c": 5.291440035229517,
      "alpha": 90.01250106469983,
      "beta": 89.98629954992886,
      "gamma": 119.9874701269219,
      "volume": 255.78948602274536
    },
    "properties": {},
    "sites": [
      {
        "species": [{ "element": "Tl", "occu": 1 }],
        "abc": [0.16892565, 0.33807457, 0.250052],
        "properties": { "magmom": -0.0 },
        "label": "Tl",
        "xyz": [-0.0004274436831340572, 2.1874676700726625, 1.323006394193803]
      },
      {
        "species": [{ "element": "Tl", "occu": 1 }],
        "abc": [0.66194788, 0.8310766900000001, 0.25006716],
        "properties": { "magmom": -0.0 },
        "label": "Tl",
        "xyz": [1.8416388941873056, 5.377690164485946, 1.323120987850849]
      },
      {
        "species": [{ "element": "Tl", "occu": 1 }],
        "abc": [0.16884808, 0.8311516600000001, 0.24988685],
        "properties": { "magmom": -0.0 },
        "label": "Tl",
        "xyz": [-1.8424750273341701, 5.37775560279258, 1.3217227896505266]
      },
      {
        "species": [{ "element": "Tl", "occu": 1 }],
        "abc": [0.83109353, 0.66190465, 0.7499113900000001],
        "properties": { "magmom": -0.0 },
        "label": "Tl",
        "xyz": [3.737397865952271, 4.2831182169821975, 3.968309600723984]
      },
      {
        "species": [{ "element": "Tl", "occu": 1 }],
        "abc": [0.33806543, 0.16892213, 0.7499359800000001],
        "properties": { "magmom": -0.0 },
        "label": "Tl",
        "xyz": [1.8952145005760426, 1.0930225211379103, 3.9684053202367298]
      },
      {
        "species": [{ "element": "Tl", "occu": 1 }],
        "abc": [0.83111859, 0.16887849, 0.75013479],
        "properties": { "magmom": -0.0 },
        "label": "Tl",
        "xyz": [5.578862990689951, 1.0931597478759487, 3.9699013420482694]
      },
      {
        "species": [{ "element": "Bi", "occu": 1 }],
        "abc": [0.33337445, 0.66662425, 0.75001162],
        "properties": { "magmom": 0.0 },
        "label": "Bi",
        "xyz": [0.001428509869706019, 4.313231143964369, 3.9683878446317657]
      },
      {
        "species": [{ "element": "Bi", "occu": 1 }],
        "abc": [0.66662539, 0.33337056, 0.24999921],
        "properties": { "magmom": 0.0 },
        "label": "Bi",
        "xyz": [3.7353392344117955, 2.1574555826103974, 1.3231791458311486]
      }
    ]
  },
  "task_ids": null,
  "uncorrected_energy_per_atom": null,
  "energy_per_atom": -54.54251093,
  "formation_energy_per_atom": -0.032464058750001,
  "energy_above_hull": 0.0,
  "is_stable": true,
  "equilibrium_reaction_energy_per_atom": null,
  "decomposes_to": null,
  "xas": null,
  "grain_boundaries": null,
  "band_gap": 0.0,
  "cbm": null,
  "vbm": null,
  "efermi": 5.51740723,
  "is_gap_direct": null,
  "is_metal": null,
  "es_source_calc_id": null,
  "bandstructure": null,
  "dos": null,
  "dos_energy_up": null,
  "dos_energy_down": null,
  "is_magnetic": null,
  "ordering": null,
  "total_magnetization": 1e-7,
  "total_magnetization_normalized_vol": null,
  "total_magnetization_normalized_formula_units": null,
  "num_magnetic_sites": null,
  "num_unique_magnetic_sites": null,
  "types_of_magnetic_species": null,
  "bulk_modulus": null,
  "shear_modulus": null,
  "universal_anisotropy": null,
  "homogeneous_poisson": null,
  "e_total": null,
  "e_ionic": null,
  "e_electronic": null,
  "n": null,
  "e_ij_max": null,
  "weighted_surface_energy_EV_PER_ANG2": null,
  "weighted_surface_energy": null,
  "weighted_work_function": null,
  "surface_anisotropy": null,
  "shape_factor": null,
  "has_reconstructed": null,
  "possible_species": null,
  "has_props": null,
  "theoretical": null,
  "database_IDs": null,
  "fields_not_requested": [
    "builder_meta",
    "nsites",
    "elements",
    "nelements",
    "composition",
    "composition_reduced",
    "chemsys",
    "symmetry",
    "property_name",
    "deprecated",
    "deprecation_reasons",
    "last_updated",
    "origins",
    "warnings",
    "task_ids",
    "uncorrected_energy_per_atom",
    "equilibrium_reaction_energy_per_atom",
    "decomposes_to",
    "xas",
    "grain_boundaries",
    "cbm",
    "vbm",
    "is_gap_direct",
    "is_metal",
    "es_source_calc_id",
    "bandstructure",
    "dos",
    "dos_energy_up",
    "dos_energy_down",
    "is_magnetic",
    "ordering",
    "total_magnetization_normalized_vol",
    "total_magnetization_normalized_formula_units",
    "num_magnetic_sites",
    "num_unique_magnetic_sites",
    "types_of_magnetic_species",
    "bulk_modulus",
    "shear_modulus",
    "universal_anisotropy",
    "homogeneous_poisson",
    "e_total",
    "e_ionic",
    "e_electronic",
    "n",
    "e_ij_max",
    "weighted_surface_energy_EV_PER_ANG2",
    "weighted_surface_energy",
    "weighted_work_function",
    "surface_anisotropy",
    "shape_factor",
    "has_reconstructed",
    "possible_species",
    "has_props",
    "theoretical",
    "database_IDs"
  ]
}
