{"builder_meta": null, "nsites": null, "elements": null, "nelements": null, "composition": null, "composition_reduced": null, "formula_pretty": "Tl3Cr", "formula_anonymous": "AB3", "chemsys": null, "volume": 212.38563220352958, "density": 10.400900536758325, "density_atomic": 26.548204025441198, "symmetry": null, "property_name": null, "material_id": "mp-972130", "deprecated": null, "deprecation_reasons": null, "last_updated": null, "origins": null, "warnings": null, "structure": {"@module": "pymatgen.core.structure", "@class": "Structure", "charge": 0, "lattice": {"matrix": [[3.352096, -5.806001, 0.0], [3.352096, 5.806001, 0.0], [0.0, 0.0, 5.456342]], "pbc": [true, true, true], "a": 6.704192360397858, "b": 6.704192360397858, "c": 5.456342, "alpha": 90.0, "beta": 90.0, "gamma": 120.00000355654028, "volume": 212.38563220352958}, "properties": {}, "sites": [{"species": [{"element": "Tl", "occu": 1}], "abc": [0.170514, 0.829486, 0.25], "properties": {"magmom": -0.027}, "label": "Tl", "xyz": [3.3520959999999995, 3.8259920909719995, 1.3640855]}, {"species": [{"element": "Tl", "occu": 1}], "abc": [0.829486, 0.658971, 0.75], "properties": {"magmom": -0.018000000000000002}, "label": "Tl", "xyz": [4.989450755871999, -0.9900102605149996, 4.0922565]}, {"species": [{"element": "Tl", "occu": 1}], "abc": [0.341028999999999, 0.170514, 0.75], "properties": {"magmom": -0.001}, "label": "Tl", "xyz": [1.7147412441279966, -0.9900102605149944, 4.0922565]}, {"species": [{"element": "Tl", "occu": 1}], "abc": [0.829486, 0.170514, 0.75], "properties": {"magmom": -0.027}, "label": "Tl", "xyz": [3.3520959999999995, -3.8259920909719995, 4.0922565]}, {"species": [{"element": "Tl", "occu": 1}], "abc": [0.170514, 0.341028999999999, 0.25], "properties": {"magmom": -0.018000000000000002}, "label": "Tl", "xyz": [1.7147412441279966, 0.9900102605149944, 1.3640855]}, {"species": [{"element": "Tl", "occu": 1}], "abc": [0.658971, 0.829486, 0.25], "properties": {"magmom": -0.001}, "label": "Tl", "xyz": [4.989450755871999, 0.9900102605149996, 1.3640855]}, {"species": [{"element": "Cr", "occu": 1}], "abc": [0.333333, 0.666667, 0.75], "properties": {"magmom": 4.014}, "label": "Cr", "xyz": [3.3520959999999995, 1.935337537334, 4.0922565]}, {"species": [{"element": "Cr", "occu": 1}], "abc": [0.666667, 0.333333, 0.25], "properties": {"magmom": 4.014}, "label": "Cr", "xyz": [3.3520959999999995, -1.935337537334, 1.3640855]}]}, "task_ids": null, "uncorrected_energy_per_atom": null, "energy_per_atom": -43.202653472499996, "formation_energy_per_atom": 0.45016056000000004, "energy_above_hull": 0.45016056000000004, "is_stable": false, "equilibrium_reaction_energy_per_atom": null, "decomposes_to": null, "xas": null, "grain_boundaries": null, "band_gap": 0.0, "cbm": null, "vbm": null, "efermi": 5.9478108800000005, "is_gap_direct": null, "is_metal": null, "es_source_calc_id": null, "bandstructure": null, "dos": null, "dos_energy_up": null, "dos_energy_down": null, "is_magnetic": null, "ordering": null, "total_magnetization": 8.8109331, "total_magnetization_normalized_vol": null, "total_magnetization_normalized_formula_units": null, "num_magnetic_sites": null, "num_unique_magnetic_sites": null, "types_of_magnetic_species": null, "bulk_modulus": null, "shear_modulus": null, "universal_anisotropy": null, "homogeneous_poisson": null, "e_total": null, "e_ionic": null, "e_electronic": null, "n": null, "e_ij_max": null, "weighted_surface_energy_EV_PER_ANG2": null, "weighted_surface_energy": null, "weighted_work_function": null, "surface_anisotropy": null, "shape_factor": null, "has_reconstructed": null, "possible_species": null, "has_props": null, "theoretical": null, "database_IDs": null, "fields_not_requested": ["builder_meta", "nsites", "elements", "nelements", "composition", "composition_reduced", "chemsys", "symmetry", "property_name", "deprecated", "deprecation_reasons", "last_updated", "origins", "warnings", "task_ids", "uncorrected_energy_per_atom", "equilibrium_reaction_energy_per_atom", "decomposes_to", "xas", "grain_boundaries", "cbm", "vbm", "is_gap_direct", "is_metal", "es_source_calc_id", "bandstructure", "dos", "dos_energy_up", "dos_energy_down", "is_magnetic", "ordering", "total_magnetization_normalized_vol", "total_magnetization_normalized_formula_units", "num_magnetic_sites", "num_unique_magnetic_sites", "types_of_magnetic_species", "bulk_modulus", "shear_modulus", "universal_anisotropy", "homogeneous_poisson", "e_total", "e_ionic", "e_electronic", "n", "e_ij_max", "weighted_surface_energy_EV_PER_ANG2", "weighted_surface_energy", "weighted_work_function", "surface_anisotropy", "shape_factor", "has_reconstructed", "possible_species", "has_props", "theoretical", "database_IDs"]}