{
  "builder_meta": null,
  "nsites": null,
  "elements": null,
  "nelements": null,
  "composition": null,
  "composition_reduced": null,
  "formula_pretty": "Tl3Co",
  "formula_anonymous": "AB3",
  "chemsys": null,
  "volume": 217.1862989948188,
  "density": 10.27707770162392,
  "density_atomic": 27.14828737435235,
  "symmetry": null,
  "property_name": null,
  "material_id": "mp-1187848",
  "deprecated": null,
  "deprecation_reasons": null,
  "last_updated": null,
  "origins": null,
  "warnings": null,
  "structure": {
    "@module": "pymatgen.core.structure",
    "@class": "Structure",
    "charge": 0,
    "lattice": {
      "matrix": [
        [8.386629, 0.605609, -0.008166],
        [-3.689188, 8.132818, -0.005817],
        [0.002634999999999, 0.011477999999999001, 3.083216]
      ],
      "pbc": [true, true, true],
      "a": 8.408470427377264,
      "b": 8.930446268689881,
      "c": 3.0832384906725916,
      "alpha": 89.86330332860432,
      "beta": 89.99144186052122,
      "gamma": 110.26958807864972,
      "volume": 217.1862989948188
    },
    "properties": {},
    "sites": [
      {
        "species": [{ "element": "Tl", "occu": 1 }],
        "abc": [0.187938, 0.409377, 0.255517999999999],
        "properties": { "magmom": -0.008 },
        "label": "Tl",
        "xyz": [0.0665708550559996, 3.4461384142319997, 0.7839011381709969]
      },
      {
        "species": [{ "element": "Tl", "occu": 1 }],
        "abc": [0.603103, 0.818506, 0.244264999999999],
        "properties": { "magmom": -0.005 },
        "label": "Tl",
        "xyz": [2.0390222349339986, 7.024808608304999, 0.743435567739997]
      },
      {
        "species": [{ "element": "Tl", "occu": 1 }],
        "abc": [0.169468999999999, 0.834027, 0.249821],
        "properties": { "magmom": -0.003 },
        "label": "Tl",
        "xyz": [-1.6549504917400084, 6.888489195144999, 0.764016685423]
      },
      {
        "species": [{ "element": "Tl", "occu": 1 }],
        "abc": [0.812726, 0.593963999999999, 0.744369],
        "properties": { "magmom": -0.013000000000000001 },
        "label": "Tl",
        "xyz": [4.626747991737002, 5.331339158067991, 2.2849586016]
      },
      {
        "species": [{ "element": "Tl", "occu": 1 }],
        "abc": [0.393821, 0.18068599999999901, 0.7559],
        "properties": { "magmom": -0.011 },
        "label": "Tl",
        "xyz": [2.6382377929410024, 1.7166641153369913, 2.326335981652]
      },
      {
        "species": [{ "element": "Tl", "occu": 1 }],
        "abc": [0.8333900000000001, 0.163064, 0.750012],
        "properties": { "magmom": -0.011 },
        "label": "Tl",
        "xyz": [6.389735271897999, 1.8394869565979992, 2.304694992564]
      },
      {
        "species": [{ "element": "Co", "occu": 1 }],
        "abc": [0.329416999999999, 0.669412, 0.749595],
        "properties": { "magmom": 0.5680000000000001 },
        "label": "Co",
        "xyz": [0.29508663066199087, 5.652307714378999, 2.304579308694]
      },
      {
        "species": [{ "element": "Co", "occu": 1 }],
        "abc": [0.670129, 0.330961, 0.250506],
        "properties": { "magmom": 1.231 },
        "label": "Co",
        "xyz": [4.399806038782999, 3.1003570395269997, 0.7649666337450001]
      }
    ]
  },
  "task_ids": null,
  "uncorrected_energy_per_atom": null,
  "energy_per_atom": -42.6833396425,
  "formation_energy_per_atom": 0.509696574999999,
  "energy_above_hull": 0.509696574999999,
  "is_stable": false,
  "equilibrium_reaction_energy_per_atom": null,
  "decomposes_to": null,
  "xas": null,
  "grain_boundaries": null,
  "band_gap": 0.0,
  "cbm": null,
  "vbm": null,
  "efermi": 5.22495019,
  "is_gap_direct": null,
  "is_metal": null,
  "es_source_calc_id": null,
  "bandstructure": null,
  "dos": null,
  "dos_energy_up": null,
  "dos_energy_down": null,
  "is_magnetic": null,
  "ordering": null,
  "total_magnetization": 1.6810754,
  "total_magnetization_normalized_vol": null,
  "total_magnetization_normalized_formula_units": null,
  "num_magnetic_sites": null,
  "num_unique_magnetic_sites": null,
  "types_of_magnetic_species": null,
  "bulk_modulus": null,
  "shear_modulus": null,
  "universal_anisotropy": null,
  "homogeneous_poisson": null,
  "e_total": null,
  "e_ionic": null,
  "e_electronic": null,
  "n": null,
  "e_ij_max": null,
  "weighted_surface_energy_EV_PER_ANG2": null,
  "weighted_surface_energy": null,
  "weighted_work_function": null,
  "surface_anisotropy": null,
  "shape_factor": null,
  "has_reconstructed": null,
  "possible_species": null,
  "has_props": null,
  "theoretical": null,
  "database_IDs": null,
  "fields_not_requested": [
    "builder_meta",
    "nsites",
    "elements",
    "nelements",
    "composition",
    "composition_reduced",
    "chemsys",
    "symmetry",
    "property_name",
    "deprecated",
    "deprecation_reasons",
    "last_updated",
    "origins",
    "warnings",
    "task_ids",
    "uncorrected_energy_per_atom",
    "equilibrium_reaction_energy_per_atom",
    "decomposes_to",
    "xas",
    "grain_boundaries",
    "cbm",
    "vbm",
    "is_gap_direct",
    "is_metal",
    "es_source_calc_id",
    "bandstructure",
    "dos",
    "dos_energy_up",
    "dos_energy_down",
    "is_magnetic",
    "ordering",
    "total_magnetization_normalized_vol",
    "total_magnetization_normalized_formula_units",
    "num_magnetic_sites",
    "num_unique_magnetic_sites",
    "types_of_magnetic_species",
    "bulk_modulus",
    "shear_modulus",
    "universal_anisotropy",
    "homogeneous_poisson",
    "e_total",
    "e_ionic",
    "e_electronic",
    "n",
    "e_ij_max",
    "weighted_surface_energy_EV_PER_ANG2",
    "weighted_surface_energy",
    "weighted_work_function",
    "surface_anisotropy",
    "shape_factor",
    "has_reconstructed",
    "possible_species",
    "has_props",
    "theoretical",
    "database_IDs"
  ]
}
