{
  "builder_meta": null,
  "nsites": null,
  "elements": null,
  "nelements": null,
  "composition": null,
  "composition_reduced": null,
  "formula_pretty": "Tl3H",
  "formula_anonymous": "AB3",
  "chemsys": null,
  "volume": 209.26260569461212,
  "density": 9.74692141477936,
  "density_atomic": 26.157825711826515,
  "symmetry": null,
  "property_name": null,
  "material_id": "mp-1187619",
  "deprecated": null,
  "deprecation_reasons": null,
  "last_updated": null,
  "origins": null,
  "warnings": null,
  "structure": {
    "@module": "pymatgen.core.structure",
    "@class": "Structure",
    "charge": 0,
    "lattice": {
      "matrix": [
        [7.218819, 0.0, 0.0],
        [-3.609409, 6.251681, 0.0],
        [0.0, 0.0, 4.63691]
      ],
      "pbc": [true, true, true],
      "a": 7.218819,
      "b": 7.218819062356529,
      "c": 4.63691,
      "alpha": 90.0,
      "beta": 90.0,
      "gamma": 119.9999951318256,
      "volume": 209.26260569461212
    },
    "properties": {},
    "sites": [
      {
        "species": [{ "element": "Tl", "occu": 1 }],
        "abc": [0.183719, 0.367436999999999, 0.25],
        "properties": { "magmom": 0.0 },
        "label": "Tl",
        "xyz": [3.793128003470869e-6, 2.2970989115969935, 1.1592275]
      },
      {
        "species": [{ "element": "Tl", "occu": 1 }],
        "abc": [0.632562, 0.8162800000000001, 0.25],
        "properties": { "magmom": 0.0 },
        "label": "Tl",
        "xyz": [1.620062205757999, 5.10312216668, 1.1592275]
      },
      {
        "species": [{ "element": "Tl", "occu": 1 }],
        "abc": [0.183719, 0.8162800000000001, 0.25],
        "properties": { "magmom": 0.0 },
        "label": "Tl",
        "xyz": [-1.6200541706590004, 5.10312216668, 1.1592275]
      },
      {
        "species": [{ "element": "Tl", "occu": 1 }],
        "abc": [0.816280999999999, 0.632562, 0.75],
        "properties": { "magmom": -0.0 },
        "label": "Tl",
        "xyz": [3.6094098162809933, 3.9545758367219994, 3.4776825000000002]
      },
      {
        "species": [{ "element": "Tl", "occu": 1 }],
        "abc": [0.367436999999999, 0.183719, 0.75],
        "properties": { "magmom": -0.0 },
        "label": "Tl",
        "xyz": [1.9893441848319928, 1.1485525816389999, 3.4776825000000002]
      },
      {
        "species": [{ "element": "Tl", "occu": 1 }],
        "abc": [0.8162800000000001, 0.183719, 0.75],
        "properties": { "magmom": -0.0 },
        "label": "Tl",
        "xyz": [5.229460561249001, 1.1485525816389999, 3.4776825000000002]
      },
      {
        "species": [{ "element": "H", "occu": 1 }],
        "abc": [0.333333999999999, 0.666667, 0.75],
        "properties": { "magmom": -0.002 },
        "label": "H",
        "xyz": [3.9427429929794755e-6, 4.167789417227, 3.4776825000000002]
      },
      {
        "species": [{ "element": "H", "occu": 1 }],
        "abc": [0.666667, 0.333331999999999, 0.25],
        "properties": { "magmom": 0.002 },
        "label": "H",
        "xyz": [3.609416885485003, 2.083885331091994, 1.1592275]
      }
    ]
  },
  "task_ids": null,
  "uncorrected_energy_per_atom": null,
  "energy_per_atom": -40.3695738190625,
  "formation_energy_per_atom": 0.37868271624999705,
  "energy_above_hull": 0.37868271624999705,
  "is_stable": false,
  "equilibrium_reaction_energy_per_atom": null,
  "decomposes_to": null,
  "xas": null,
  "grain_boundaries": null,
  "band_gap": 0.0,
  "cbm": null,
  "vbm": null,
  "efermi": 4.9329402,
  "is_gap_direct": null,
  "is_metal": null,
  "es_source_calc_id": null,
  "bandstructure": null,
  "dos": null,
  "dos_energy_up": null,
  "dos_energy_down": null,
  "is_magnetic": null,
  "ordering": null,
  "total_magnetization": 0.002527799999999,
  "total_magnetization_normalized_vol": null,
  "total_magnetization_normalized_formula_units": null,
  "num_magnetic_sites": null,
  "num_unique_magnetic_sites": null,
  "types_of_magnetic_species": null,
  "bulk_modulus": null,
  "shear_modulus": null,
  "universal_anisotropy": null,
  "homogeneous_poisson": null,
  "e_total": null,
  "e_ionic": null,
  "e_electronic": null,
  "n": null,
  "e_ij_max": null,
  "weighted_surface_energy_EV_PER_ANG2": null,
  "weighted_surface_energy": null,
  "weighted_work_function": null,
  "surface_anisotropy": null,
  "shape_factor": null,
  "has_reconstructed": null,
  "possible_species": null,
  "has_props": null,
  "theoretical": null,
  "database_IDs": null,
  "fields_not_requested": [
    "builder_meta",
    "nsites",
    "elements",
    "nelements",
    "composition",
    "composition_reduced",
    "chemsys",
    "symmetry",
    "property_name",
    "deprecated",
    "deprecation_reasons",
    "last_updated",
    "origins",
    "warnings",
    "task_ids",
    "uncorrected_energy_per_atom",
    "equilibrium_reaction_energy_per_atom",
    "decomposes_to",
    "xas",
    "grain_boundaries",
    "cbm",
    "vbm",
    "is_gap_direct",
    "is_metal",
    "es_source_calc_id",
    "bandstructure",
    "dos",
    "dos_energy_up",
    "dos_energy_down",
    "is_magnetic",
    "ordering",
    "total_magnetization_normalized_vol",
    "total_magnetization_normalized_formula_units",
    "num_magnetic_sites",
    "num_unique_magnetic_sites",
    "types_of_magnetic_species",
    "bulk_modulus",
    "shear_modulus",
    "universal_anisotropy",
    "homogeneous_poisson",
    "e_total",
    "e_ionic",
    "e_electronic",
    "n",
    "e_ij_max",
    "weighted_surface_energy_EV_PER_ANG2",
    "weighted_surface_energy",
    "weighted_work_function",
    "surface_anisotropy",
    "shape_factor",
    "has_reconstructed",
    "possible_species",
    "has_props",
    "theoretical",
    "database_IDs"
  ]
}
