{
  "builder_meta": null,
  "nsites": null,
  "elements": null,
  "nelements": null,
  "composition": null,
  "composition_reduced": null,
  "formula_pretty": "Tl3Pb",
  "formula_anonymous": "AB3",
  "chemsys": null,
  "volume": 242.77687958501812,
  "density": 11.222016359711597,
  "density_atomic": 30.347109948127265,
  "symmetry": null,
  "property_name": null,
  "material_id": "mp-983235",
  "deprecated": null,
  "deprecation_reasons": null,
  "last_updated": null,
  "origins": null,
  "warnings": null,
  "structure": {
    "@module": "pymatgen.core.structure",
    "@class": "Structure",
    "charge": 0,
    "lattice": {
      "matrix": [
        [7.08143795, 3.0000000000000004e-8, -0.0],
        [-3.54071792, 6.13270522, -0.0],
        [-0.0, 0.0, 5.59028282]
      ],
      "pbc": [true, true, true],
      "a": 7.08143795,
      "b": 7.081437474441498,
      "c": 5.59028282,
      "alpha": 90.0,
      "beta": 90.0,
      "gamma": 119.99999212225471,
      "volume": 242.77687958501812
    },
    "properties": {},
    "sites": [
      {
        "species": [{ "element": "Tl", "occu": 1 }],
        "abc": [0.83247601, 0.16752299, 0.75],
        "properties": { "magmom": 0.0 },
        "label": "Tl",
        "xyz": [5.301975556973599, 1.027369140217288, 4.192712115]
      },
      {
        "species": [{ "element": "Tl", "occu": 1 }],
        "abc": [0.33504798, 0.16752299, 0.75],
        "properties": { "magmom": 0.0 },
        "label": "Tl",
        "xyz": [1.7794698279378602, 1.0273691252944472, 4.192712115]
      },
      {
        "species": [{ "element": "Tl", "occu": 1 }],
        "abc": [0.8324770100000001, 0.6649510200000001, 0.75],
        "properties": { "magmom": 0.0 },
        "label": "Tl",
        "xyz": [3.540730298680251, 4.077948616372636, 4.192712115]
      },
      {
        "species": [{ "element": "Tl", "occu": 1 }],
        "abc": [0.16752499, 0.8324770100000001, 0.250001],
        "properties": { "magmom": 0.0 },
        "label": "Tl",
        "xyz": [-1.761248445535649, 5.105336109782742, 1.3975762952828197]
      },
      {
        "species": [{ "element": "Tl", "occu": 1 }],
        "abc": [0.66495202, 0.8324770100000001, 0.250001],
        "properties": { "magmom": 0.0 },
        "label": "Tl",
        "xyz": [1.7612502020621394, 5.105336124705554, 1.3975762952828197]
      },
      {
        "species": [{ "element": "Tl", "occu": 1 }],
        "abc": [0.16752299, 0.33504698, 0.250001],
        "properties": { "magmom": 0.0 },
        "label": "Tl",
        "xyz": [-3.187244411062551e-6, 2.0547443682169253, 1.3975762952828197]
      },
      {
        "species": [{ "element": "Pb", "occu": 1 }],
        "abc": [0.666666, 0.333333, 0.250001],
        "properties": { "magmom": 0.0 },
        "label": "Pb",
        "xyz": [3.5407157859473397, 2.04423304909824, 1.3975762952828197]
      },
      {
        "species": [{ "element": "Pb", "occu": 1 }],
        "abc": [0.333333, 0.666667, 0.75],
        "properties": { "magmom": 0.0 },
        "label": "Pb",
        "xyz": [-2.837385290277439e-6, 4.08847220090173, 4.192712115]
      }
    ]
  },
  "task_ids": null,
  "uncorrected_energy_per_atom": null,
  "energy_per_atom": -53.94462886,
  "formation_energy_per_atom": 0.011133102499996,
  "energy_above_hull": 0.011133102499996,
  "is_stable": false,
  "equilibrium_reaction_energy_per_atom": null,
  "decomposes_to": null,
  "xas": null,
  "grain_boundaries": null,
  "band_gap": 0.0,
  "cbm": null,
  "vbm": null,
  "efermi": 5.9715117,
  "is_gap_direct": null,
  "is_metal": null,
  "es_source_calc_id": null,
  "bandstructure": null,
  "dos": null,
  "dos_energy_up": null,
  "dos_energy_down": null,
  "is_magnetic": null,
  "ordering": null,
  "total_magnetization": 9e-7,
  "total_magnetization_normalized_vol": null,
  "total_magnetization_normalized_formula_units": null,
  "num_magnetic_sites": null,
  "num_unique_magnetic_sites": null,
  "types_of_magnetic_species": null,
  "bulk_modulus": null,
  "shear_modulus": null,
  "universal_anisotropy": null,
  "homogeneous_poisson": null,
  "e_total": null,
  "e_ionic": null,
  "e_electronic": null,
  "n": null,
  "e_ij_max": null,
  "weighted_surface_energy_EV_PER_ANG2": null,
  "weighted_surface_energy": null,
  "weighted_work_function": null,
  "surface_anisotropy": null,
  "shape_factor": null,
  "has_reconstructed": null,
  "possible_species": null,
  "has_props": null,
  "theoretical": null,
  "database_IDs": null,
  "fields_not_requested": [
    "builder_meta",
    "nsites",
    "elements",
    "nelements",
    "composition",
    "composition_reduced",
    "chemsys",
    "symmetry",
    "property_name",
    "deprecated",
    "deprecation_reasons",
    "last_updated",
    "origins",
    "warnings",
    "task_ids",
    "uncorrected_energy_per_atom",
    "equilibrium_reaction_energy_per_atom",
    "decomposes_to",
    "xas",
    "grain_boundaries",
    "cbm",
    "vbm",
    "is_gap_direct",
    "is_metal",
    "es_source_calc_id",
    "bandstructure",
    "dos",
    "dos_energy_up",
    "dos_energy_down",
    "is_magnetic",
    "ordering",
    "total_magnetization_normalized_vol",
    "total_magnetization_normalized_formula_units",
    "num_magnetic_sites",
    "num_unique_magnetic_sites",
    "types_of_magnetic_species",
    "bulk_modulus",
    "shear_modulus",
    "universal_anisotropy",
    "homogeneous_poisson",
    "e_total",
    "e_ionic",
    "e_electronic",
    "n",
    "e_ij_max",
    "weighted_surface_energy_EV_PER_ANG2",
    "weighted_surface_energy",
    "weighted_work_function",
    "surface_anisotropy",
    "shape_factor",
    "has_reconstructed",
    "possible_species",
    "has_props",
    "theoretical",
    "database_IDs"
  ]
}
