{"builder_meta": null, "nsites": null, "elements": null, "nelements": null, "composition": null, "composition_reduced": null, "formula_pretty": "Tl3Ru", "formula_anonymous": "AB3", "chemsys": null, "volume": 186.82703603053238, "density": 12.696128689846836, "density_atomic": 23.353379503816548, "symmetry": null, "property_name": null, "material_id": "mp-980038", "deprecated": null, "deprecation_reasons": null, "last_updated": null, "origins": null, "warnings": null, "structure": {"@module": "pymatgen.core.structure", "@class": "Structure", "charge": 0, "lattice": {"matrix": [[3.190498, -5.526105, 0.0], [3.190498, 5.526105, 0.0], [0.0, 0.0, 5.298246]], "pbc": [true, true, true], "a": 6.380996313980208, "b": 6.380996313980208, "c": 5.298246, "alpha": 90.0, "beta": 90.0, "gamma": 120.00000325541062, "volume": 186.82703603053238}, "properties": {}, "sites": [{"species": [{"element": "Tl", "occu": 1}], "abc": [0.1724, 0.3448, 0.25], "properties": {"magmom": -0.005}, "label": "Tl", "xyz": [1.6501255655999998, 0.952700502, 1.3245615]}, {"species": [{"element": "Tl", "occu": 1}], "abc": [0.6552, 0.8276, 0.25], "properties": {"magmom": -0.005}, "label": "Tl", "xyz": [4.7308704344, 0.9527005020000003, 1.3245615]}, {"species": [{"element": "Tl", "occu": 1}], "abc": [0.1724, 0.8276, 0.25], "properties": {"magmom": -0.005}, "label": "Tl", "xyz": [3.190498, 3.6207039960000005, 1.3245615]}, {"species": [{"element": "Tl", "occu": 1}], "abc": [0.8276, 0.6552, 0.75], "properties": {"magmom": -0.005}, "label": "Tl", "xyz": [4.7308704344, -0.9527005020000003, 3.9736845]}, {"species": [{"element": "Tl", "occu": 1}], "abc": [0.3448, 0.1724, 0.75], "properties": {"magmom": -0.005}, "label": "Tl", "xyz": [1.6501255655999998, -0.952700502, 3.9736845]}, {"species": [{"element": "Tl", "occu": 1}], "abc": [0.8276, 0.1724, 0.75], "properties": {"magmom": -0.005}, "label": "Tl", "xyz": [3.190498, -3.6207039960000005, 3.9736845]}, {"species": [{"element": "Ru", "occu": 1}], "abc": [0.333333, 0.666667, 0.75], "properties": {"magmom": 0.85}, "label": "Ru", "xyz": [3.190498, 1.8420386840700003, 3.9736845]}, {"species": [{"element": "Ru", "occu": 1}], "abc": [0.666667, 0.333333, 0.25], "properties": {"magmom": 0.85}, "label": "Ru", "xyz": [3.190498, -1.8420386840700003, 1.3245615]}]}, "task_ids": null, "uncorrected_energy_per_atom": null, "energy_per_atom": -45.58788643875, "formation_energy_per_atom": 0.65272582, "energy_above_hull": 0.65272582, "is_stable": false, "equilibrium_reaction_energy_per_atom": null, "decomposes_to": null, "xas": null, "grain_boundaries": null, "band_gap": 0.0, "cbm": null, "vbm": null, "efermi": 7.28266907, "is_gap_direct": null, "is_metal": null, "es_source_calc_id": null, "bandstructure": null, "dos": null, "dos_energy_up": null, "dos_energy_down": null, "is_magnetic": null, "ordering": null, "total_magnetization": 1.6991535, "total_magnetization_normalized_vol": null, "total_magnetization_normalized_formula_units": null, "num_magnetic_sites": null, "num_unique_magnetic_sites": null, "types_of_magnetic_species": null, "bulk_modulus": null, "shear_modulus": null, "universal_anisotropy": null, "homogeneous_poisson": null, "e_total": null, "e_ionic": null, "e_electronic": null, "n": null, "e_ij_max": null, "weighted_surface_energy_EV_PER_ANG2": null, "weighted_surface_energy": null, "weighted_work_function": null, "surface_anisotropy": null, "shape_factor": null, "has_reconstructed": null, "possible_species": null, "has_props": null, "theoretical": null, "database_IDs": null, "fields_not_requested": ["builder_meta", "nsites", "elements", "nelements", "composition", "composition_reduced", "chemsys", "symmetry", "property_name", "deprecated", "deprecation_reasons", "last_updated", "origins", "warnings", "task_ids", "uncorrected_energy_per_atom", "equilibrium_reaction_energy_per_atom", "decomposes_to", "xas", "grain_boundaries", "cbm", "vbm", "is_gap_direct", "is_metal", "es_source_calc_id", "bandstructure", "dos", "dos_energy_up", "dos_energy_down", "is_magnetic", "ordering", "total_magnetization_normalized_vol", "total_magnetization_normalized_formula_units", "num_magnetic_sites", "num_unique_magnetic_sites", "types_of_magnetic_species", "bulk_modulus", "shear_modulus", "universal_anisotropy", "homogeneous_poisson", "e_total", "e_ionic", "e_electronic", "n", "e_ij_max", "weighted_surface_energy_EV_PER_ANG2", "weighted_surface_energy", "weighted_work_function", "surface_anisotropy", "shape_factor", "has_reconstructed", "possible_species", "has_props", "theoretical", "database_IDs"]}