{"builder_meta": null, "nsites": null, "elements": null, "nelements": null, "composition": null, "composition_reduced": null, "formula_pretty": "Tl4Bi", "formula_anonymous": "AB4", "chemsys": null, "volume": 157.85815140871355, "density": 10.798086256457431, "density_atomic": 31.57163028174271, "symmetry": null, "property_name": null, "material_id": "mp-1216575", "deprecated": null, "deprecation_reasons": null, "last_updated": null, "origins": null, "warnings": null, "structure": {"@module": "pymatgen.core.structure", "@class": "Structure", "charge": 0, "lattice": {"matrix": [[14.929033, -1.749123, 0.0], [14.929033, 1.749123, 0.0], [14.724101, 0.0, 3.02263]], "pbc": [true, true, true], "a": 15.031149576270538, "b": 15.031149576270538, "c": 15.031149070350574, "alpha": 13.364901245049149, "beta": 13.364901245049149, "gamma": 13.364903523677315, "volume": 157.85815140871355}, "properties": {}, "sites": [{"species": [{"element": "Tl", "occu": 1}], "abc": [0.600235, 0.600235, 0.600235], "properties": {"magmom": 0.001}, "label": "Tl", "xyz": [26.759777009245, 0.0, 1.8142883180499998]}, {"species": [{"element": "Tl", "occu": 1}], "abc": [0.200234, 0.200234, 0.200234], "properties": {"magmom": 0.001}, "label": "Tl", "xyz": [8.926865627078, 0.0, 0.6052332954199999]}, {"species": [{"element": "Tl", "occu": 1}], "abc": [0.799766, 0.799766, 0.799766], "properties": {"magmom": 0.001}, "label": "Tl", "xyz": [35.655301372922, 0.0, 2.4173967045799998]}, {"species": [{"element": "Tl", "occu": 1}], "abc": [0.399765, 0.399765, 0.399765], "properties": {"magmom": 0.001}, "label": "Tl", "xyz": [17.822389990755, 0.0, 1.20834168195]}, {"species": [{"element": "Bi", "occu": 1}], "abc": [0.0, 0.0, 0.0], "properties": {"magmom": 0.001}, "label": "Bi", "xyz": [0.0, 0.0, 0.0]}]}, "task_ids": null, "uncorrected_energy_per_atom": null, "energy_per_atom": -54.24304355966666, "formation_energy_per_atom": 0.0008548533333390001, "energy_above_hull": 0.026826100333337002, "is_stable": false, "equilibrium_reaction_energy_per_atom": null, "decomposes_to": null, "xas": null, "grain_boundaries": null, "band_gap": 0.0, "cbm": null, "vbm": null, "efermi": 5.9255543, "is_gap_direct": null, "is_metal": null, "es_source_calc_id": null, "bandstructure": null, "dos": null, "dos_energy_up": null, "dos_energy_down": null, "is_magnetic": null, "ordering": null, "total_magnetization": 0.0554138, "total_magnetization_normalized_vol": null, "total_magnetization_normalized_formula_units": null, "num_magnetic_sites": null, "num_unique_magnetic_sites": null, "types_of_magnetic_species": null, "bulk_modulus": null, "shear_modulus": null, "universal_anisotropy": null, "homogeneous_poisson": null, "e_total": null, "e_ionic": null, "e_electronic": null, "n": null, "e_ij_max": null, "weighted_surface_energy_EV_PER_ANG2": null, "weighted_surface_energy": null, "weighted_work_function": null, "surface_anisotropy": null, "shape_factor": null, "has_reconstructed": null, "possible_species": null, "has_props": null, "theoretical": null, "database_IDs": null, "fields_not_requested": ["builder_meta", "nsites", "elements", "nelements", "composition", "composition_reduced", "chemsys", "symmetry", "property_name", "deprecated", "deprecation_reasons", "last_updated", "origins", "warnings", "task_ids", "uncorrected_energy_per_atom", "equilibrium_reaction_energy_per_atom", "decomposes_to", "xas", "grain_boundaries", "cbm", "vbm", "is_gap_direct", "is_metal", "es_source_calc_id", "bandstructure", "dos", "dos_energy_up", "dos_energy_down", "is_magnetic", "ordering", "total_magnetization_normalized_vol", "total_magnetization_normalized_formula_units", "num_magnetic_sites", "num_unique_magnetic_sites", "types_of_magnetic_species", "bulk_modulus", "shear_modulus", "universal_anisotropy", "homogeneous_poisson", "e_total", "e_ionic", "e_electronic", "n", "e_ij_max", "weighted_surface_energy_EV_PER_ANG2", "weighted_surface_energy", "weighted_work_function", "surface_anisotropy", "shape_factor", "has_reconstructed", "possible_species", "has_props", "theoretical", "database_IDs"]}