{"builder_meta": null, "nsites": null, "elements": null, "nelements": null, "composition": null, "composition_reduced": null, "formula_pretty": "Tl4Sn", "formula_anonymous": "AB4", "chemsys": null, "volume": 147.62648932752631, "density": 10.531093820089339, "density_atomic": 29.525297865505262, "symmetry": null, "property_name": null, "material_id": "mp-1216560", "deprecated": null, "deprecation_reasons": null, "last_updated": null, "origins": null, "warnings": null, "structure": {"@module": "pymatgen.core.structure", "@class": "Structure", "charge": 0, "lattice": {"matrix": [[14.17475246, -1.73608323, -0.07071944000000001], [14.17475246, 1.73608323, -0.07071944000000001], [13.97709186, -0.0, 2.9297626]], "pbc": [true, true, true], "a": 14.280847087023837, "b": 14.280847087023837, "c": 14.28084751529954, "alpha": 13.96512669980192, "beta": 13.96512669980192, "gamma": 13.965122695697794, "volume": 147.62648932752631}, "properties": {}, "sites": [{"species": [{"element": "Tl", "occu": 1}], "abc": [0.60207926, 0.60207926, 0.60207926], "properties": {"magmom": 0.0}, "label": "Tl", "xyz": [25.483966067620784, 0.0, 1.6787918819780474]}, {"species": [{"element": "Tl", "occu": 1}], "abc": [0.20085779, 0.20085779, 0.20085779], "properties": {"magmom": 0.0}, "label": "Tl", "xyz": [8.501626687451918, 0.0, 0.5600565402037788]}, {"species": [{"element": "Tl", "occu": 1}], "abc": [0.79914221, 0.79914221, 0.79914221], "properties": {"magmom": 0.0}, "label": "Tl", "xyz": [33.824970092548085, 0.0, 2.2282671797962212]}, {"species": [{"element": "Tl", "occu": 1}], "abc": [0.39792074, 0.39792074, 0.39792074], "properties": {"magmom": 0.0}, "label": "Tl", "xyz": [16.84263071237922, 0.0, 1.1095318380219528]}, {"species": [{"element": "Sn", "occu": 1}], "abc": [0.0, 0.0, 0.0], "properties": {"magmom": 0.0}, "label": "Sn", "xyz": [0.0, 0.0, 0.0]}]}, "task_ids": null, "uncorrected_energy_per_atom": null, "energy_per_atom": -47.446762264, "formation_energy_per_atom": 0.045918155999999, "energy_above_hull": 0.045918155999999, "is_stable": false, "equilibrium_reaction_energy_per_atom": null, "decomposes_to": null, "xas": null, "grain_boundaries": null, "band_gap": 0.0, "cbm": null, "vbm": null, "efermi": 6.01126301, "is_gap_direct": null, "is_metal": null, "es_source_calc_id": null, "bandstructure": null, "dos": null, "dos_energy_up": null, "dos_energy_down": null, "is_magnetic": null, "ordering": null, "total_magnetization": 2e-07, "total_magnetization_normalized_vol": null, "total_magnetization_normalized_formula_units": null, "num_magnetic_sites": null, "num_unique_magnetic_sites": null, "types_of_magnetic_species": null, "bulk_modulus": null, "shear_modulus": null, "universal_anisotropy": null, "homogeneous_poisson": null, "e_total": null, "e_ionic": null, "e_electronic": null, "n": null, "e_ij_max": null, "weighted_surface_energy_EV_PER_ANG2": null, "weighted_surface_energy": null, "weighted_work_function": null, "surface_anisotropy": null, "shape_factor": null, "has_reconstructed": null, "possible_species": null, "has_props": null, "theoretical": null, "database_IDs": null, "fields_not_requested": ["builder_meta", "nsites", "elements", "nelements", "composition", "composition_reduced", "chemsys", "symmetry", "property_name", "deprecated", "deprecation_reasons", "last_updated", "origins", "warnings", "task_ids", "uncorrected_energy_per_atom", "equilibrium_reaction_energy_per_atom", "decomposes_to", "xas", "grain_boundaries", "cbm", "vbm", "is_gap_direct", "is_metal", "es_source_calc_id", "bandstructure", "dos", "dos_energy_up", "dos_energy_down", "is_magnetic", "ordering", "total_magnetization_normalized_vol", "total_magnetization_normalized_formula_units", "num_magnetic_sites", "num_unique_magnetic_sites", "types_of_magnetic_species", "bulk_modulus", "shear_modulus", "universal_anisotropy", "homogeneous_poisson", "e_total", "e_ionic", "e_electronic", "n", "e_ij_max", "weighted_surface_energy_EV_PER_ANG2", "weighted_surface_energy", "weighted_work_function", "surface_anisotropy", "shape_factor", "has_reconstructed", "possible_species", "has_props", "theoretical", "database_IDs"]}