{
  "builder_meta": null,
  "nsites": null,
  "elements": null,
  "nelements": null,
  "composition": null,
  "composition_reduced": null,
  "formula_pretty": "Tl4S3",
  "formula_anonymous": "A3B4",
  "chemsys": null,
  "volume": 812.8567184519853,
  "density": 7.46641486949202,
  "density_atomic": 29.030597087570904,
  "symmetry": null,
  "property_name": null,
  "material_id": "mp-2753",
  "deprecated": null,
  "deprecation_reasons": null,
  "last_updated": null,
  "origins": null,
  "warnings": null,
  "structure": {
    "@module": "pymatgen.core.structure",
    "@class": "Structure",
    "charge": 0,
    "lattice": {
      "matrix": [
        [7.94322949, 0.052051799999999, 0.0],
        [-1.91696866, 7.80399075, 0.0],
        [0.0, 0.0, 13.09186851]
      ],
      "pbc": [true, true, true],
      "a": 7.943400035292753,
      "b": 8.0359841008745,
      "c": 13.09186851,
      "alpha": 90.0,
      "beta": 90.0,
      "gamma": 103.42541075786946,
      "volume": 812.8567184519852
    },
    "properties": {},
    "sites": [
      {
        "species": [{ "element": "Tl", "occu": 1 }],
        "abc": [0.32075302, 0.45801532, 0.76960236],
        "properties": { "magmom": -0.0 },
        "label": "Tl",
        "xyz": [1.6698138332306884, 3.5910430926847257, 10.075532902105683]
      },
      {
        "species": [{ "element": "Tl", "occu": 1 }],
        "abc": [0.6792469800000001, 0.04198468, 0.26960236],
        "properties": { "magmom": -0.0 },
        "label": "Tl",
        "xyz": [5.314931326769312, 0.36300408231527337, 3.5295986471056833]
      },
      {
        "species": [{ "element": "Tl", "occu": 1 }],
        "abc": [0.6792469800000001, 0.54198468, 0.23039764000000001],
        "properties": { "magmom": -0.0 },
        "label": "Tl",
        "xyz": [4.3564469967693125, 4.264999457315273, 3.0163356078943164]
      },
      {
        "species": [{ "element": "Tl", "occu": 1 }],
        "abc": [0.32075302, 0.95801532, 0.7303976400000001],
        "properties": { "magmom": -0.0 },
        "label": "Tl",
        "xyz": [0.7113295032306886, 7.493038467684726, 9.562269862894317]
      },
      {
        "species": [{ "element": "Tl", "occu": 1 }],
        "abc": [0.84786469, 0.58188914, 0.8056673],
        "properties": { "magmom": 0.0 },
        "label": "Tl",
        "xyz": [5.619320564163356, 4.585190349356396, 10.547690354406722]
      },
      {
        "species": [{ "element": "Tl", "occu": 1 }],
        "abc": [0.15213531, 0.91811086, 0.3056673],
        "properties": { "magmom": 0.0 },
        "label": "Tl",
        "xyz": [-0.5515440641633558, 7.172847575643603, 4.001756099406722]
      },
      {
        "species": [{ "element": "Tl", "occu": 1 }],
        "abc": [0.15213531, 0.41811086000000003, 0.1943327],
        "properties": { "magmom": 0.0 },
        "label": "Tl",
        "xyz": [0.4069402658366442, 3.2708522006436027, 2.544178155593277]
      },
      {
        "species": [{ "element": "Tl", "occu": 1 }],
        "abc": [0.84786469, 0.08188914, 0.694332699999999],
        "properties": { "magmom": 0.0 },
        "label": "Tl",
        "xyz": [6.577804894163355, 0.6831949743563961, 9.090112410593264]
      },
      {
        "species": [{ "element": "Tl", "occu": 1 }],
        "abc": [0.89523608, 0.71539139, 0.55005337],
        "properties": { "magmom": -0.0 },
        "label": "Tl",
        "xyz": [5.739682756904163, 5.629506439578585, 7.201226393522378]
      },
      {
        "species": [{ "element": "Tl", "occu": 1 }],
        "abc": [0.10476392, 0.78460861, 0.05005337],
        "properties": { "magmom": -0.0 },
        "label": "Tl",
        "xyz": [-0.6719062569041618, 6.128531485421414, 0.6552921385223787]
      },
      {
        "species": [{ "element": "Tl", "occu": 1 }],
        "abc": [0.10476392, 0.28460861, 0.44994663],
        "properties": { "magmom": -0.0 },
        "label": "Tl",
        "xyz": [0.28657807309583827, 2.226536110421413, 5.890642116477621]
      },
      {
        "species": [{ "element": "Tl", "occu": 1 }],
        "abc": [0.89523608, 0.21539139000000002, 0.94994663],
        "properties": { "magmom": -0.0 },
        "label": "Tl",
        "xyz": [6.698167086904162, 1.7275110645785858, 12.43657637147762]
      },
      {
        "species": [{ "element": "Tl", "occu": 1 }],
        "abc": [0.54801584, 0.27938808, 0.50197609],
        "properties": { "magmom": -0.0 },
        "label": "Tl",
        "xyz": [3.8174373879375496, 2.208867202880771, 6.571804965443925]
      },
      {
        "species": [{ "element": "Tl", "occu": 1 }],
        "abc": [0.45198416, 0.22061192000000002, 0.0019760900000000002],
        "properties": { "magmom": -0.0 },
        "label": "Tl",
        "xyz": [3.1673077720624514, 1.7451799721192276, 0.0258707104439259]
      },
      {
        "species": [{ "element": "Tl", "occu": 1 }],
        "abc": [0.45198416, 0.72061192, 0.49802391],
        "properties": { "magmom": -0.0 },
        "label": "Tl",
        "xyz": [2.2088234420624517, 5.647175347119227, 6.520063544556074]
      },
      {
        "species": [{ "element": "Tl", "occu": 1 }],
        "abc": [0.54801584, 0.77938808, 0.99802391],
        "properties": { "magmom": -0.0 },
        "label": "Tl",
        "xyz": [2.8589530579375495, 6.110862577880772, 13.065997799556074]
      },
      {
        "species": [{ "element": "S", "occu": 1 }],
        "abc": [0.07111317, 0.93069192, 0.8513422700000001],
        "properties": { "magmom": -0.0 },
        "label": "S",
        "xyz": [-1.2192390136838438, 7.266812703281945, 11.145661055844919]
      },
      {
        "species": [{ "element": "S", "occu": 1 }],
        "abc": [0.92888683, 0.56930808, 0.35134227],
        "properties": { "magmom": -0.0 },
        "label": "S",
        "xyz": [6.287015513683844, 4.491225221718053, 4.599726800844918]
      },
      {
        "species": [{ "element": "S", "occu": 1 }],
        "abc": [0.92888683, 0.06930808000000001, 0.14865773000000002],
        "properties": { "magmom": -0.0 },
        "label": "S",
        "xyz": [7.245499843683844, 0.5892298467180531, 1.9462074541550825]
      },
      {
        "species": [{ "element": "S", "occu": 1 }],
        "abc": [0.07111317, 0.43069192, 0.64865773],
        "properties": { "magmom": -0.0 },
        "label": "S",
        "xyz": [-0.2607546836838439, 3.3648173282819456, 8.492141709155083]
      },
      {
        "species": [{ "element": "S", "occu": 1 }],
        "abc": [0.52909862, 0.75564056, 0.74378478],
        "properties": { "magmom": 0.0 },
        "label": "S",
        "xyz": [2.7542124897574545, 5.924552476113336, 9.737532539499277]
      },
      {
        "species": [{ "element": "S", "occu": 1 }],
        "abc": [0.47090138000000004, 0.74435944, 0.24378478],
        "properties": { "magmom": 0.0 },
        "label": "S",
        "xyz": [2.3135640102425463, 5.8334854488866625, 3.191598284499278]
      },
      {
        "species": [{ "element": "S", "occu": 1 }],
        "abc": [0.47090138000000004, 0.24435944, 0.25621522],
        "properties": { "magmom": 0.0 },
        "label": "S",
        "xyz": [3.2720483402425464, 1.9314900738866636, 3.3543359705007223]
      },
      {
        "species": [{ "element": "S", "occu": 1 }],
        "abc": [0.52909862, 0.25564056, 0.75621522],
        "properties": { "magmom": 0.0 },
        "label": "S",
        "xyz": [3.712696819757454, 2.0225571011133354, 9.900270225500721]
      },
      {
        "species": [{ "element": "S", "occu": 1 }],
        "abc": [0.23577704, 0.46340853, 0.95861543],
        "properties": { "magmom": 0.0 },
        "label": "S",
        "xyz": [0.9844915084062399, 3.628708500921769, 12.55006716121711]
      },
      {
        "species": [{ "element": "S", "occu": 1 }],
        "abc": [0.76422296, 0.03659147, 0.45861543],
        "properties": { "magmom": 0.0 },
        "label": "S",
        "xyz": [6.000253651593761, 0.32533867407822975, 6.004132906217109]
      },
      {
        "species": [{ "element": "S", "occu": 1 }],
        "abc": [0.76422296, 0.53659147, 0.04138457],
        "properties": { "magmom": 0.0 },
        "label": "S",
        "xyz": [5.041769321593761, 4.2273340490782285, 0.5418013487828907]
      },
      {
        "species": [{ "element": "S", "occu": 1 }],
        "abc": [0.23577704, 0.96340853, 0.5413845700000001],
        "properties": { "magmom": 0.0 },
        "label": "S",
        "xyz": [0.026007178406239673, 7.530703875921769, 7.087735603782892]
      }
    ]
  },
  "task_ids": null,
  "uncorrected_energy_per_atom": null,
  "energy_per_atom": -3.622632872857139,
  "formation_energy_per_atom": -0.49392327726190405,
  "energy_above_hull": 0.009123074126986,
  "is_stable": false,
  "equilibrium_reaction_energy_per_atom": null,
  "decomposes_to": null,
  "xas": null,
  "grain_boundaries": null,
  "band_gap": 0.8601000000000001,
  "cbm": null,
  "vbm": null,
  "efermi": 3.35953179,
  "is_gap_direct": null,
  "is_metal": null,
  "es_source_calc_id": null,
  "bandstructure": null,
  "dos": null,
  "dos_energy_up": null,
  "dos_energy_down": null,
  "is_magnetic": null,
  "ordering": null,
  "total_magnetization": 0.0,
  "total_magnetization_normalized_vol": null,
  "total_magnetization_normalized_formula_units": null,
  "num_magnetic_sites": null,
  "num_unique_magnetic_sites": null,
  "types_of_magnetic_species": null,
  "bulk_modulus": null,
  "shear_modulus": null,
  "universal_anisotropy": null,
  "homogeneous_poisson": null,
  "e_total": null,
  "e_ionic": null,
  "e_electronic": null,
  "n": null,
  "e_ij_max": null,
  "weighted_surface_energy_EV_PER_ANG2": null,
  "weighted_surface_energy": null,
  "weighted_work_function": null,
  "surface_anisotropy": null,
  "shape_factor": null,
  "has_reconstructed": null,
  "possible_species": null,
  "has_props": null,
  "theoretical": null,
  "database_IDs": null,
  "fields_not_requested": [
    "builder_meta",
    "nsites",
    "elements",
    "nelements",
    "composition",
    "composition_reduced",
    "chemsys",
    "symmetry",
    "property_name",
    "deprecated",
    "deprecation_reasons",
    "last_updated",
    "origins",
    "warnings",
    "task_ids",
    "uncorrected_energy_per_atom",
    "equilibrium_reaction_energy_per_atom",
    "decomposes_to",
    "xas",
    "grain_boundaries",
    "cbm",
    "vbm",
    "is_gap_direct",
    "is_metal",
    "es_source_calc_id",
    "bandstructure",
    "dos",
    "dos_energy_up",
    "dos_energy_down",
    "is_magnetic",
    "ordering",
    "total_magnetization_normalized_vol",
    "total_magnetization_normalized_formula_units",
    "num_magnetic_sites",
    "num_unique_magnetic_sites",
    "types_of_magnetic_species",
    "bulk_modulus",
    "shear_modulus",
    "universal_anisotropy",
    "homogeneous_poisson",
    "e_total",
    "e_ionic",
    "e_electronic",
    "n",
    "e_ij_max",
    "weighted_surface_energy_EV_PER_ANG2",
    "weighted_surface_energy",
    "weighted_work_function",
    "surface_anisotropy",
    "shape_factor",
    "has_reconstructed",
    "possible_species",
    "has_props",
    "theoretical",
    "database_IDs"
  ]
}
