{"builder_meta": null, "nsites": null, "elements": null, "nelements": null, "composition": null, "composition_reduced": null, "formula_pretty": "Tl5Te3", "formula_anonymous": "A3B5", "chemsys": null, "volume": 526.6794125232639, "density": 8.857709529873018, "density_atomic": 32.91746328270399, "symmetry": null, "property_name": null, "material_id": "mp-174", "deprecated": null, "deprecation_reasons": null, "last_updated": null, "origins": null, "warnings": null, "structure": {"@module": "pymatgen.core.structure", "@class": "Structure", "charge": 0, "lattice": {"matrix": [[7.83910278, 1e-08, -4.52532076], [-2.61235516, 7.39101715, -4.52532077], [0.01092515, 0.015448690000000001, 9.07133112]], "pbc": [true, true, true], "a": 9.051522544649087, "b": 9.051522637930379, "c": 9.07135085362735, "alpha": 119.92772921788657, "beta": 119.92772770283419, "gamma": 89.99999475299796, "volume": 526.6794125232639}, "properties": {}, "sites": [{"species": [{"element": "Tl", "occu": 1}], "abc": [0.19439521, 0.9906091100000001, 0.68500433], "properties": {"magmom": 0.0}, "label": "Tl", "xyz": [-1.056455013865924, 7.332191342443016, 0.8513764361719751]}, {"species": [{"element": "Tl", "occu": 1}], "abc": [0.8056047900000001, 0.00939089, 0.31499567], "properties": {"magmom": 0.0}, "label": "Tl", "xyz": [6.294127783865925, 0.07427450755698371, -0.8306868461719756]}, {"species": [{"element": "Tl", "occu": 1}], "abc": [0.0, -0.0, -0.0], "properties": {"magmom": 0.0}, "label": "Tl", "xyz": [0.0, 0.0, 0.0]}, {"species": [{"element": "Tl", "occu": 1}], "abc": [0.5, 0.5, -0.0], "properties": {"magmom": 0.0}, "label": "Tl", "xyz": [2.61337381, 3.69550858, -4.525320765]}, {"species": [{"element": "Tl", "occu": 1}], "abc": [0.49060911, 0.69439521, 0.68500433], "properties": {"magmom": 0.0}, "label": "Tl", "xyz": [2.0394121032274417, 5.1428693304367705, 0.8513764391341141]}, {"species": [{"element": "Tl", "occu": 1}], "abc": [0.9906091100000001, 0.49060911, 0.68500433], "properties": {"magmom": 0.0}, "label": "Tl", "xyz": [6.491325163098718, 3.6366827754051556, -0.48908646989858884]}, {"species": [{"element": "Tl", "occu": 1}], "abc": [0.69439521, 0.19439521, 0.68500433], "properties": {"magmom": 0.0}, "label": "Tl", "xyz": [4.9430898662628, 1.4473607574746312, 2.191839355204679]}, {"species": [{"element": "Tl", "occu": 1}], "abc": [0.30560479, 0.8056047900000001, 0.31499567], "properties": {"magmom": 0.0}, "label": "Tl", "xyz": [0.2945829037372006, 5.959105092525369, -2.171149765204679]}, {"species": [{"element": "Tl", "occu": 1}], "abc": [0.00939089, 0.50939089, 0.31499567], "properties": {"magmom": 0.0}, "label": "Tl", "xyz": [-1.2536523930987178, 3.769783074594845, 0.5097760598985883]}, {"species": [{"element": "Tl", "occu": 1}], "abc": [0.50939089, 0.30560479, 0.31499567], "properties": {"magmom": 0.0}, "label": "Tl", "xyz": [3.198260666772559, 2.26359651956323, -0.8306868491341146]}, {"species": [{"element": "Te", "occu": 1}], "abc": [0.15897112, 0.34102888000000003, 0.0], "properties": {"magmom": -0.0}, "label": "Te", "xyz": [0.3553023943546927, 2.5205503023150033, -2.2626603834102887]}, {"species": [{"element": "Te", "occu": 1}], "abc": [0.65897112, 0.15897112, -0.0], "properties": {"magmom": -0.0}, "label": "Te", "xyz": [4.750453313108735, 1.1749582808644192, -3.7014510007426136]}, {"species": [{"element": "Te", "occu": 1}], "abc": [0.34102888000000003, 0.84102888, 0.0], "properties": {"magmom": -0.0}, "label": "Te", "xyz": [0.47629430689126595, 6.216058879135581, -5.3491905292573865]}, {"species": [{"element": "Te", "occu": 1}], "abc": [0.84102888, 0.65897112, -0.0], "properties": {"magmom": -0.0}, "label": "Te", "xyz": [4.8714452256453065, 4.870466857684996, -6.787981146589711]}, {"species": [{"element": "Te", "occu": 1}], "abc": [0.75, 0.75, 0.5], "properties": {"magmom": -0.0}, "label": "Te", "xyz": [3.92552329, 5.550987214999999, -2.2523155875]}, {"species": [{"element": "Te", "occu": 1}], "abc": [0.25, 0.25, 0.5], "properties": {"magmom": -0.0}, "label": "Te", "xyz": [1.31214948, 1.8554786349999999, 2.2730051775]}]}, "task_ids": null, "uncorrected_energy_per_atom": null, "energy_per_atom": -3.093675690624998, "formation_energy_per_atom": -0.432765907708335, "energy_above_hull": 0.010876002705969001, "is_stable": false, "equilibrium_reaction_energy_per_atom": null, "decomposes_to": null, "xas": null, "grain_boundaries": null, "band_gap": 0.0, "cbm": null, "vbm": null, "efermi": 4.92074092, "is_gap_direct": null, "is_metal": null, "es_source_calc_id": null, "bandstructure": null, "dos": null, "dos_energy_up": null, "dos_energy_down": null, "is_magnetic": null, "ordering": null, "total_magnetization": 0.0, "total_magnetization_normalized_vol": null, "total_magnetization_normalized_formula_units": null, "num_magnetic_sites": null, "num_unique_magnetic_sites": null, "types_of_magnetic_species": null, "bulk_modulus": null, "shear_modulus": null, "universal_anisotropy": null, "homogeneous_poisson": null, "e_total": null, "e_ionic": null, "e_electronic": null, "n": null, "e_ij_max": null, "weighted_surface_energy_EV_PER_ANG2": null, "weighted_surface_energy": null, "weighted_work_function": null, "surface_anisotropy": null, "shape_factor": null, "has_reconstructed": null, "possible_species": null, "has_props": null, "theoretical": null, "database_IDs": null, "fields_not_requested": ["builder_meta", "nsites", "elements", "nelements", "composition", "composition_reduced", "chemsys", "symmetry", "property_name", "deprecated", "deprecation_reasons", "last_updated", "origins", "warnings", "task_ids", "uncorrected_energy_per_atom", "equilibrium_reaction_energy_per_atom", "decomposes_to", "xas", "grain_boundaries", "cbm", "vbm", "is_gap_direct", "is_metal", "es_source_calc_id", "bandstructure", "dos", "dos_energy_up", "dos_energy_down", "is_magnetic", "ordering", "total_magnetization_normalized_vol", "total_magnetization_normalized_formula_units", "num_magnetic_sites", "num_unique_magnetic_sites", "types_of_magnetic_species", "bulk_modulus", "shear_modulus", "universal_anisotropy", "homogeneous_poisson", "e_total", "e_ionic", "e_electronic", "n", "e_ij_max", "weighted_surface_energy_EV_PER_ANG2", "weighted_surface_energy", "weighted_work_function", "surface_anisotropy", "shape_factor", "has_reconstructed", "possible_species", "has_props", "theoretical", "database_IDs"]}