{
  "builder_meta": null,
  "nsites": null,
  "elements": null,
  "nelements": null,
  "composition": null,
  "composition_reduced": null,
  "formula_pretty": "Tl6S",
  "formula_anonymous": "AB6",
  "chemsys": null,
  "volume": 224.7538236749251,
  "density": 9.297122853209194,
  "density_atomic": 32.10768909641787,
  "symmetry": null,
  "property_name": null,
  "material_id": "mp-755169",
  "deprecated": null,
  "deprecation_reasons": null,
  "last_updated": null,
  "origins": null,
  "warnings": null,
  "structure": {
    "@module": "pymatgen.core.structure",
    "@class": "Structure",
    "charge": 0,
    "lattice": {
      "matrix": [
        [3.285753, -5.691091, 0.0],
        [3.285753, 5.691091, 0.0],
        [0.0, 0.0, 6.009615]
      ],
      "pbc": [true, true, true],
      "a": 6.571505881248986,
      "b": 6.571505881248986,
      "c": 6.009615,
      "alpha": 90.0,
      "beta": 90.0,
      "gamma": 119.99999880445911,
      "volume": 224.7538236749251
    },
    "properties": {},
    "sites": [
      {
        "species": [{ "element": "Tl", "occu": 1 }],
        "abc": [0.350122, 0.350122, 0.992219],
        "properties": { "magmom": -0.0 },
        "label": "Tl",
        "xyz": [2.300828823732, 0.0, 5.962854185685]
      },
      {
        "species": [{ "element": "Tl", "occu": 1 }],
        "abc": [0.615008, 0.615008, 0.476412],
        "properties": { "magmom": -0.0 },
        "label": "Tl",
        "xyz": [4.041528762048, 0.0, 2.86305270138]
      },
      {
        "species": [{ "element": "Tl", "occu": 1 }],
        "abc": [0.384992, 0.0, 0.476412],
        "properties": { "magmom": -0.0 },
        "label": "Tl",
        "xyz": [1.264988618976, -2.191024506272, 2.86305270138]
      },
      {
        "species": [{ "element": "Tl", "occu": 1 }],
        "abc": [0.0, 0.649878, 0.992219],
        "properties": { "magmom": -0.0 },
        "label": "Tl",
        "xyz": [2.135338588134, 3.6985148368979996, 5.962854185685]
      },
      {
        "species": [{ "element": "Tl", "occu": 1 }],
        "abc": [0.0, 0.384992, 0.476412],
        "properties": { "magmom": -0.0 },
        "label": "Tl",
        "xyz": [1.264988618976, 2.191024506272, 2.86305270138]
      },
      {
        "species": [{ "element": "Tl", "occu": 1 }],
        "abc": [0.649878, 0.0, 0.992219],
        "properties": { "magmom": -0.0 },
        "label": "Tl",
        "xyz": [2.135338588134, -3.6985148368979996, 5.962854185685]
      },
      {
        "species": [{ "element": "S", "occu": 1 }],
        "abc": [0.0, 0.0, 0.696838],
        "properties": { "magmom": -0.0 },
        "label": "S",
        "xyz": [0.0, 0.0, 4.18772809737]
      }
    ]
  },
  "task_ids": null,
  "uncorrected_energy_per_atom": null,
  "energy_per_atom": -2.74642013,
  "formation_energy_per_atom": -0.12253552035714901,
  "energy_above_hull": 0.09380551698412201,
  "is_stable": false,
  "equilibrium_reaction_energy_per_atom": null,
  "decomposes_to": null,
  "xas": null,
  "grain_boundaries": null,
  "band_gap": 0.0,
  "cbm": null,
  "vbm": null,
  "efermi": 5.03589411,
  "is_gap_direct": null,
  "is_metal": null,
  "es_source_calc_id": null,
  "bandstructure": null,
  "dos": null,
  "dos_energy_up": null,
  "dos_energy_down": null,
  "is_magnetic": null,
  "ordering": null,
  "total_magnetization": 0.0114798,
  "total_magnetization_normalized_vol": null,
  "total_magnetization_normalized_formula_units": null,
  "num_magnetic_sites": null,
  "num_unique_magnetic_sites": null,
  "types_of_magnetic_species": null,
  "bulk_modulus": null,
  "shear_modulus": null,
  "universal_anisotropy": null,
  "homogeneous_poisson": null,
  "e_total": null,
  "e_ionic": null,
  "e_electronic": null,
  "n": null,
  "e_ij_max": null,
  "weighted_surface_energy_EV_PER_ANG2": null,
  "weighted_surface_energy": null,
  "weighted_work_function": null,
  "surface_anisotropy": null,
  "shape_factor": null,
  "has_reconstructed": null,
  "possible_species": null,
  "has_props": null,
  "theoretical": null,
  "database_IDs": null,
  "fields_not_requested": [
    "builder_meta",
    "nsites",
    "elements",
    "nelements",
    "composition",
    "composition_reduced",
    "chemsys",
    "symmetry",
    "property_name",
    "deprecated",
    "deprecation_reasons",
    "last_updated",
    "origins",
    "warnings",
    "task_ids",
    "uncorrected_energy_per_atom",
    "equilibrium_reaction_energy_per_atom",
    "decomposes_to",
    "xas",
    "grain_boundaries",
    "cbm",
    "vbm",
    "is_gap_direct",
    "is_metal",
    "es_source_calc_id",
    "bandstructure",
    "dos",
    "dos_energy_up",
    "dos_energy_down",
    "is_magnetic",
    "ordering",
    "total_magnetization_normalized_vol",
    "total_magnetization_normalized_formula_units",
    "num_magnetic_sites",
    "num_unique_magnetic_sites",
    "types_of_magnetic_species",
    "bulk_modulus",
    "shear_modulus",
    "universal_anisotropy",
    "homogeneous_poisson",
    "e_total",
    "e_ionic",
    "e_electronic",
    "n",
    "e_ij_max",
    "weighted_surface_energy_EV_PER_ANG2",
    "weighted_surface_energy",
    "weighted_work_function",
    "surface_anisotropy",
    "shape_factor",
    "has_reconstructed",
    "possible_species",
    "has_props",
    "theoretical",
    "database_IDs"
  ]
}
