{"builder_meta": null, "nsites": null, "elements": null, "nelements": null, "composition": null, "composition_reduced": null, "formula_pretty": "Tl7Sb2", "formula_anonymous": "A2B7", "chemsys": null, "volume": 837.3467609787098, "density": 9.960316738038395, "density_atomic": 31.012842999211472, "symmetry": null, "property_name": null, "material_id": "mp-621624", "deprecated": null, "deprecation_reasons": null, "last_updated": null, "origins": null, "warnings": null, "structure": {"@module": "pymatgen.core.structure", "@class": "Structure", "charge": 0, "lattice": {"matrix": [[9.69615334, -2e-08, -3.42810804], [-4.84807772, 8.39711613, -3.42810804], [-1e-08, -2e-08, 10.28432308]], "pbc": [true, true, true], "a": 10.284323717518124, "b": 10.28432504415235, "c": 10.28432308, "alpha": 109.47121888282017, "beta": 109.47122148297434, "gamma": 109.47122317486672, "volume": 837.3467609787098}, "properties": {}, "sites": [{"species": [{"element": "Tl", "occu": 1}], "abc": [-0.0, 0.35314986, 0.64685014], "properties": {"magmom": 0.0}, "label": "Tl", "xyz": [-1.7120979745556204, 2.9654403727762393, 5.441779949712356]}, {"species": [{"element": "Tl", "occu": 1}], "abc": [0.70629772, 0.35314986, 0.35314986], "properties": {"magmom": 0.0}, "label": "Tl", "xyz": [5.136273025193768, 2.9654403645242904, 6.488940225590767e-06]}, {"species": [{"element": "Tl", "occu": 1}], "abc": [0.660519, 0.660519, 0.660519], "properties": {"magmom": 0.0}, "label": "Tl", "xyz": [3.20224605384159, 5.54645472265071, 2.2643298075330005]}, {"species": [{"element": "Tl", "occu": 1}], "abc": [0.0, 0.64685014, 0.35314986], "properties": {"magmom": 0.0}, "label": "Tl", "xyz": [-3.1359797554443793, 5.4316757372237605, 1.4144350902876432]}, {"species": [{"element": "Tl", "occu": 1}], "abc": [0.0, 0.0, 0.660519], "properties": {"magmom": 0.0}, "label": "Tl", "xyz": [-6.60519e-09, -1.321038e-08, 6.79299079647852]}, {"species": [{"element": "Tl", "occu": 1}], "abc": [0.35314986, 0.35314986, 0.70629772], "properties": {"magmom": 0.0}, "label": "Tl", "xyz": [1.7120972194094364, 2.9654403645242904, 4.842522194365629]}, {"species": [{"element": "Tl", "occu": 1}], "abc": [0.339481, -0.0, -0.0], "properties": {"magmom": 0.0}, "label": "Tl", "xyz": [3.2916598320165398, -6.7896199999999996e-09, -1.1637775455272399]}, {"species": [{"element": "Tl", "occu": 1}], "abc": [0.64685014, -0.0, 0.35314986], "properties": {"magmom": 0.0}, "label": "Tl", "xyz": [6.271958141908969, -2e-08, 1.4144350902876432]}, {"species": [{"element": "Tl", "occu": 1}], "abc": [0.660519, 0.0, 0.0], "properties": {"magmom": 0.0}, "label": "Tl", "xyz": [6.40449350798346, -1.321038e-08, -2.26433049447276]}, {"species": [{"element": "Tl", "occu": 1}], "abc": [0.35314986, 0.0, 0.64685014], "properties": {"magmom": 0.0}, "label": "Tl", "xyz": [3.4241951880910313, -2e-08, 5.441779949712356]}, {"species": [{"element": "Tl", "occu": 1}], "abc": [-0.0, -0.0, 0.339481], "properties": {"magmom": 0.0}, "label": "Tl", "xyz": [-3.3948099999999998e-09, -6.7896199999999996e-09, 3.49133228352148]}, {"species": [{"element": "Tl", "occu": 1}], "abc": [0.64685014, 0.64685014, 0.29370228], "properties": {"magmom": 0.0}, "label": "Tl", "xyz": [3.135978390590564, 5.43167572547571, -1.4144151943656285]}, {"species": [{"element": "Tl", "occu": 1}], "abc": [0.35314986, 0.64685014, 0.0], "properties": {"magmom": 0.0}, "label": "Tl", "xyz": [0.2882154426466519, 5.4316757372237605, -3.4281080399999997]}, {"species": [{"element": "Tl", "occu": 1}], "abc": [0.0, 0.339481, 0.0], "properties": {"magmom": 0.0}, "label": "Tl", "xyz": [-1.6458302724633198, 2.85066138092853, -1.1637775455272399]}, {"species": [{"element": "Tl", "occu": 1}], "abc": [-0.0, 0.660519, -0.0], "properties": {"magmom": 0.0}, "label": "Tl", "xyz": [-3.20224744753668, 5.54645474907147, -2.26433049447276]}, {"species": [{"element": "Tl", "occu": 1}], "abc": [0.0, 0.0, 0.0], "properties": {"magmom": -0.0}, "label": "Tl", "xyz": [0.0, 0.0, 0.0]}, {"species": [{"element": "Tl", "occu": 1}], "abc": [0.64685014, 0.35314986, -0.0], "properties": {"magmom": 0.0}, "label": "Tl", "xyz": [4.5598601773533485, 2.9654403727762393, -3.4281080399999997]}, {"species": [{"element": "Tl", "occu": 1}], "abc": [0.29370228, 0.64685014, 0.64685014], "properties": {"magmom": 0.0}, "label": "Tl", "xyz": [-0.28819741519376685, 5.43167572547571, 3.4281005110597738]}, {"species": [{"element": "Tl", "occu": 1}], "abc": [0.64685014, 0.29370228, 0.64685014], "properties": {"magmom": 0.0}, "label": "Tl", "xyz": [4.848066658990764, 2.466252126931771, 3.4281005110597738]}, {"species": [{"element": "Tl", "occu": 1}], "abc": [0.35314986, 0.70629772, 0.35314986], "properties": {"magmom": 0.0}, "label": "Tl", "xyz": [8.951009235640623e-06, 5.930863963068229, 6.488940225590767e-06]}, {"species": [{"element": "Tl", "occu": 1}], "abc": [0.339481, 0.339481, 0.339481], "properties": {"magmom": 0.0}, "label": "Tl", "xyz": [1.64582955615841, 2.85066136734929, 1.1637771924670002]}, {"species": [{"element": "Sb", "occu": 1}], "abc": [-0.0, 0.69726457, 0.69726457], "properties": {"magmom": 0.0}, "label": "Sb", "xyz": [-3.380392833735026, 5.8550115536792235, 4.780595831693132]}, {"species": [{"element": "Sb", "occu": 1}], "abc": [0.0, 0.30273543, 0.30273543], "properties": {"magmom": 0.0}, "label": "Sb", "xyz": [-1.467684896264974, 2.5421045563207776, 2.0756192083068674]}, {"species": [{"element": "Sb", "occu": 1}], "abc": [0.30273543, 0.0, 0.30273543], "properties": {"magmom": 0.0}, "label": "Sb", "xyz": [2.935369147703482, -1.2109417200000002e-08, 2.0756192083068674]}, {"species": [{"element": "Sb", "occu": 1}], "abc": [0.30273543, 0.30273543, -0.0], "properties": {"magmom": 0.0}, "label": "Sb", "xyz": [1.4676842574932167, 2.5421045563207776, -2.0756195231517145]}, {"species": [{"element": "Sb", "occu": 1}], "abc": [0.69726457, -0.0, 0.69726457], "properties": {"magmom": 0.0}, "label": "Sb", "xyz": [6.7607841822965185, -2.78905828e-08, 4.780595831693132]}, {"species": [{"element": "Sb", "occu": 1}], "abc": [0.69726457, 0.69726457, 0.0], "properties": {"magmom": 0.0}, "label": "Sb", "xyz": [3.3803913625067836, 5.8550115536792235, -4.780596556848286]}]}, "task_ids": null, "uncorrected_energy_per_atom": null, "energy_per_atom": -47.096921808148146, "formation_energy_per_atom": -0.022725861481485, "energy_above_hull": 0.0, "is_stable": true, "equilibrium_reaction_energy_per_atom": null, "decomposes_to": null, "xas": null, "grain_boundaries": null, "band_gap": 0.0, "cbm": null, "vbm": null, "efermi": 5.77431422, "is_gap_direct": null, "is_metal": null, "es_source_calc_id": null, "bandstructure": null, "dos": null, "dos_energy_up": null, "dos_energy_down": null, "is_magnetic": null, "ordering": null, "total_magnetization": 2.499999999999999e-06, "total_magnetization_normalized_vol": null, "total_magnetization_normalized_formula_units": null, "num_magnetic_sites": null, "num_unique_magnetic_sites": null, "types_of_magnetic_species": null, "bulk_modulus": null, "shear_modulus": null, "universal_anisotropy": null, "homogeneous_poisson": null, "e_total": null, "e_ionic": null, "e_electronic": null, "n": null, "e_ij_max": null, "weighted_surface_energy_EV_PER_ANG2": null, "weighted_surface_energy": null, "weighted_work_function": null, "surface_anisotropy": null, "shape_factor": null, "has_reconstructed": null, "possible_species": null, "has_props": null, "theoretical": null, "database_IDs": null, "fields_not_requested": ["builder_meta", "nsites", "elements", "nelements", "composition", "composition_reduced", "chemsys", "symmetry", "property_name", "deprecated", "deprecation_reasons", "last_updated", "origins", "warnings", "task_ids", "uncorrected_energy_per_atom", "equilibrium_reaction_energy_per_atom", "decomposes_to", "xas", "grain_boundaries", "cbm", "vbm", "is_gap_direct", "is_metal", "es_source_calc_id", "bandstructure", "dos", "dos_energy_up", "dos_energy_down", "is_magnetic", "ordering", "total_magnetization_normalized_vol", "total_magnetization_normalized_formula_units", "num_magnetic_sites", "num_unique_magnetic_sites", "types_of_magnetic_species", "bulk_modulus", "shear_modulus", "universal_anisotropy", "homogeneous_poisson", "e_total", "e_ionic", "e_electronic", "n", "e_ij_max", "weighted_surface_energy_EV_PER_ANG2", "weighted_surface_energy", "weighted_work_function", "surface_anisotropy", "shape_factor", "has_reconstructed", "possible_species", "has_props", "theoretical", "database_IDs"]}