{
  "builder_meta": null,
  "nsites": null,
  "elements": null,
  "nelements": null,
  "composition": null,
  "composition_reduced": null,
  "formula_pretty": "TlBr2",
  "formula_anonymous": "AB2",
  "chemsys": null,
  "volume": 892.5647983672633,
  "density": 5.42036954602821,
  "density_atomic": 37.1901999319693,
  "symmetry": null,
  "property_name": null,
  "material_id": "mp-27398",
  "deprecated": null,
  "deprecation_reasons": null,
  "last_updated": null,
  "origins": null,
  "warnings": null,
  "structure": {
    "@module": "pymatgen.core.structure",
    "@class": "Structure",
    "charge": 0,
    "lattice": {
      "matrix": [
        [8.08444429, 0.0, 0.0],
        [0.0, 10.41233567, 0.0],
        [0.0, 0.0, 10.6033091]
      ],
      "pbc": [true, true, true],
      "a": 8.08444429,
      "b": 10.41233567,
      "c": 10.6033091,
      "alpha": 90.0,
      "beta": 90.0,
      "gamma": 90.0,
      "volume": 892.5647983672633
    },
    "properties": {},
    "sites": [
      {
        "species": [{ "element": "Tl", "occu": 1 }],
        "abc": [0.6782875700000001, 0.25, 0.25],
        "properties": { "magmom": -0.0 },
        "label": "Tl",
        "xyz": [5.483578072264476, 2.6030839175, 2.650827275]
      },
      {
        "species": [{ "element": "Tl", "occu": 1 }],
        "abc": [0.82171243, 0.75, 0.25],
        "properties": { "magmom": -0.0 },
        "label": "Tl",
        "xyz": [6.643088362735526, 7.8092517525, 2.650827275]
      },
      {
        "species": [{ "element": "Tl", "occu": 1 }],
        "abc": [0.32171243, 0.75, 0.75],
        "properties": { "magmom": -0.0 },
        "label": "Tl",
        "xyz": [2.6008662177355246, 7.8092517525, 7.9524818250000004]
      },
      {
        "species": [{ "element": "Tl", "occu": 1 }],
        "abc": [0.17828757, 0.25, 0.75],
        "properties": { "magmom": -0.0 },
        "label": "Tl",
        "xyz": [1.4413559272644754, 2.6030839175, 7.9524818250000004]
      },
      {
        "species": [{ "element": "Tl", "occu": 1 }],
        "abc": [0.25, 0.0, 0.17725168],
        "properties": { "magmom": -0.0 },
        "label": "Tl",
        "xyz": [2.0211110725, 0.0, 1.879454351534288]
      },
      {
        "species": [{ "element": "Tl", "occu": 1 }],
        "abc": [0.25, 0.5, 0.32274832000000003],
        "properties": { "magmom": -0.0 },
        "label": "Tl",
        "xyz": [2.0211110725, 5.206167835, 3.4222001984657124]
      },
      {
        "species": [{ "element": "Tl", "occu": 1 }],
        "abc": [0.75, 0.0, 0.82274832],
        "properties": { "magmom": -0.0 },
        "label": "Tl",
        "xyz": [6.0633332175, 0.0, 8.723854748465712]
      },
      {
        "species": [{ "element": "Tl", "occu": 1 }],
        "abc": [0.75, 0.5, 0.67725168],
        "properties": { "magmom": -0.0 },
        "label": "Tl",
        "xyz": [6.0633332175, 5.206167835, 7.181108901534289]
      },
      {
        "species": [{ "element": "Br", "occu": 1 }],
        "abc": [0.35258409, 0.193446199999999, 0.04342093],
        "properties": { "magmom": 0.0 },
        "label": "Br",
        "xyz": [2.8504464331453465, 2.0142267684859436, 0.46040554219946306]
      },
      {
        "species": [{ "element": "Br", "occu": 1 }],
        "abc": [0.35258409, 0.3065538, 0.45657907000000003],
        "properties": { "magmom": 0.0 },
        "label": "Br",
        "xyz": [2.8504464331453465, 3.1919410665140457, 4.8412490078005375]
      },
      {
        "species": [{ "element": "Br", "occu": 1 }],
        "abc": [0.14741591, 0.6934462, 0.45657907000000003],
        "properties": { "magmom": 0.0 },
        "label": "Br",
        "xyz": [1.1917757118546541, 7.220394603485953, 4.8412490078005375]
      },
      {
        "species": [{ "element": "Br", "occu": 1 }],
        "abc": [0.14741591, 0.8065538, 0.04342093],
        "properties": { "magmom": 0.0 },
        "label": "Br",
        "xyz": [1.1917757118546541, 8.398108901514044, 0.46040554219946306]
      },
      {
        "species": [{ "element": "Br", "occu": 1 }],
        "abc": [0.64741591, 0.8065538, 0.95657907],
        "properties": { "magmom": 0.0 },
        "label": "Br",
        "xyz": [5.233997856854654, 8.398108901514044, 10.142903557800537]
      },
      {
        "species": [{ "element": "Br", "occu": 1 }],
        "abc": [0.64741591, 0.6934462, 0.54342093],
        "properties": { "magmom": 0.0 },
        "label": "Br",
        "xyz": [5.233997856854654, 7.220394603485953, 5.762060092199464]
      },
      {
        "species": [{ "element": "Br", "occu": 1 }],
        "abc": [0.85258409, 0.3065538, 0.54342093],
        "properties": { "magmom": 0.0 },
        "label": "Br",
        "xyz": [6.892668578145346, 3.1919410665140457, 5.762060092199464]
      },
      {
        "species": [{ "element": "Br", "occu": 1 }],
        "abc": [0.85258409, 0.193446199999999, 0.95657907],
        "properties": { "magmom": 0.0 },
        "label": "Br",
        "xyz": [6.892668578145346, 2.0142267684859436, 10.142903557800537]
      },
      {
        "species": [{ "element": "Br", "occu": 1 }],
        "abc": [0.99477574, 0.04627722, 0.32102005],
        "properties": { "magmom": -0.0 },
        "label": "Br",
        "xyz": [8.042209051073526, 0.48185394851443736, 3.403874817447455]
      },
      {
        "species": [{ "element": "Br", "occu": 1 }],
        "abc": [0.99477574, 0.45372278, 0.17897995],
        "properties": { "magmom": -0.0 },
        "label": "Br",
        "xyz": [8.042209051073526, 4.724313886485562, 1.8977797325525452]
      },
      {
        "species": [{ "element": "Br", "occu": 1 }],
        "abc": [0.50522426, 0.54627722, 0.17897995],
        "properties": { "magmom": -0.0 },
        "label": "Br",
        "xyz": [4.084457383926475, 5.688021783514437, 1.8977797325525452]
      },
      {
        "species": [{ "element": "Br", "occu": 1 }],
        "abc": [0.50522426, 0.95372278, 0.32102005],
        "properties": { "magmom": -0.0 },
        "label": "Br",
        "xyz": [4.084457383926475, 9.930481721485561, 3.403874817447455]
      },
      {
        "species": [{ "element": "Br", "occu": 1 }],
        "abc": [0.0052242600000000005, 0.95372278, 0.67897995],
        "properties": { "magmom": -0.0 },
        "label": "Br",
        "xyz": [0.042235238926475405, 9.930481721485561, 7.199434282552545]
      },
      {
        "species": [{ "element": "Br", "occu": 1 }],
        "abc": [0.0052242600000000005, 0.54627722, 0.82102005],
        "properties": { "magmom": -0.0 },
        "label": "Br",
        "xyz": [0.042235238926475405, 5.688021783514437, 8.705529367447456]
      },
      {
        "species": [{ "element": "Br", "occu": 1 }],
        "abc": [0.49477574, 0.45372278, 0.82102005],
        "properties": { "magmom": -0.0 },
        "label": "Br",
        "xyz": [3.999986906073525, 4.724313886485562, 8.705529367447456]
      },
      {
        "species": [{ "element": "Br", "occu": 1 }],
        "abc": [0.49477574, 0.04627722, 0.67897995],
        "properties": { "magmom": -0.0 },
        "label": "Br",
        "xyz": [3.999986906073525, 0.48185394851443736, 7.199434282552545]
      }
    ]
  },
  "task_ids": null,
  "uncorrected_energy_per_atom": null,
  "energy_per_atom": -2.890965789583333,
  "formation_energy_per_atom": -1.00917739402778,
  "energy_above_hull": 0.0,
  "is_stable": true,
  "equilibrium_reaction_energy_per_atom": null,
  "decomposes_to": null,
  "xas": null,
  "grain_boundaries": null,
  "band_gap": 1.7922,
  "cbm": null,
  "vbm": null,
  "efermi": -0.68421595,
  "is_gap_direct": null,
  "is_metal": null,
  "es_source_calc_id": null,
  "bandstructure": null,
  "dos": null,
  "dos_energy_up": null,
  "dos_energy_down": null,
  "is_magnetic": null,
  "ordering": null,
  "total_magnetization": 0.0,
  "total_magnetization_normalized_vol": null,
  "total_magnetization_normalized_formula_units": null,
  "num_magnetic_sites": null,
  "num_unique_magnetic_sites": null,
  "types_of_magnetic_species": null,
  "bulk_modulus": null,
  "shear_modulus": null,
  "universal_anisotropy": null,
  "homogeneous_poisson": null,
  "e_total": null,
  "e_ionic": null,
  "e_electronic": null,
  "n": null,
  "e_ij_max": null,
  "weighted_surface_energy_EV_PER_ANG2": null,
  "weighted_surface_energy": null,
  "weighted_work_function": null,
  "surface_anisotropy": null,
  "shape_factor": null,
  "has_reconstructed": null,
  "possible_species": null,
  "has_props": null,
  "theoretical": null,
  "database_IDs": null,
  "fields_not_requested": [
    "builder_meta",
    "nsites",
    "elements",
    "nelements",
    "composition",
    "composition_reduced",
    "chemsys",
    "symmetry",
    "property_name",
    "deprecated",
    "deprecation_reasons",
    "last_updated",
    "origins",
    "warnings",
    "task_ids",
    "uncorrected_energy_per_atom",
    "equilibrium_reaction_energy_per_atom",
    "decomposes_to",
    "xas",
    "grain_boundaries",
    "cbm",
    "vbm",
    "is_gap_direct",
    "is_metal",
    "es_source_calc_id",
    "bandstructure",
    "dos",
    "dos_energy_up",
    "dos_energy_down",
    "is_magnetic",
    "ordering",
    "total_magnetization_normalized_vol",
    "total_magnetization_normalized_formula_units",
    "num_magnetic_sites",
    "num_unique_magnetic_sites",
    "types_of_magnetic_species",
    "bulk_modulus",
    "shear_modulus",
    "universal_anisotropy",
    "homogeneous_poisson",
    "e_total",
    "e_ionic",
    "e_electronic",
    "n",
    "e_ij_max",
    "weighted_surface_energy_EV_PER_ANG2",
    "weighted_surface_energy",
    "weighted_work_function",
    "surface_anisotropy",
    "shape_factor",
    "has_reconstructed",
    "possible_species",
    "has_props",
    "theoretical",
    "database_IDs"
  ]
}
