{
  "builder_meta": null,
  "nsites": null,
  "elements": null,
  "nelements": null,
  "composition": null,
  "composition_reduced": null,
  "formula_pretty": "TlBr3",
  "formula_anonymous": "AB3",
  "chemsys": null,
  "volume": 955.4859158053408,
  "density": 3.087173061350214,
  "density_atomic": 59.7178697378338,
  "symmetry": null,
  "property_name": null,
  "material_id": "mp-731800",
  "deprecated": null,
  "deprecation_reasons": null,
  "last_updated": null,
  "origins": null,
  "warnings": null,
  "structure": {
    "@module": "pymatgen.core.structure",
    "@class": "Structure",
    "charge": 0,
    "lattice": {
      "matrix": [
        [6.71459163, 0.0, 0.0],
        [-0.0, 10.56730612, 0.0],
        [0.0, 0.0, 13.46605539]
      ],
      "pbc": [true, true, true],
      "a": 6.71459163,
      "b": 10.56730612,
      "c": 13.46605539,
      "alpha": 90.0,
      "beta": 90.0,
      "gamma": 90.0,
      "volume": 955.4859158053408
    },
    "properties": {},
    "sites": [
      {
        "species": [{ "element": "Tl", "occu": 1 }],
        "abc": [0.66433675, 0.25, 0.75271558],
        "properties": { "magmom": 0.0 },
        "label": "Tl",
        "xyz": [4.460749981051403, 2.64182653, 10.136109693195976]
      },
      {
        "species": [{ "element": "Tl", "occu": 1 }],
        "abc": [0.83566325, 0.25, 0.25271558],
        "properties": { "magmom": 0.0 },
        "label": "Tl",
        "xyz": [5.611137463948597, 2.64182653, 3.403081998195976]
      },
      {
        "species": [{ "element": "Tl", "occu": 1 }],
        "abc": [0.33566325, 0.75, 0.24728442],
        "properties": { "magmom": 0.0 },
        "label": "Tl",
        "xyz": [2.2538416489485975, 7.92547959, 3.3299456968040237]
      },
      {
        "species": [{ "element": "Tl", "occu": 1 }],
        "abc": [0.16433675, 0.75, 0.7472844200000001],
        "properties": { "magmom": 0.0 },
        "label": "Tl",
        "xyz": [1.1034541660514026, 7.92547959, 10.062973391804023]
      },
      {
        "species": [{ "element": "Br", "occu": 1 }],
        "abc": [0.82817734, 0.25, 0.58425189],
        "properties": { "magmom": -0.0 },
        "label": "Br",
        "xyz": [5.560872635319664, 2.64182653, 7.867568312452186]
      },
      {
        "species": [{ "element": "Br", "occu": 1 }],
        "abc": [0.67182266, 0.25, 0.08425189],
        "properties": { "magmom": -0.0 },
        "label": "Br",
        "xyz": [4.511014809680336, 2.64182653, 1.134540617452187]
      },
      {
        "species": [{ "element": "Br", "occu": 1 }],
        "abc": [0.17182266000000002, 0.75, 0.41574811],
        "properties": { "magmom": -0.0 },
        "label": "Br",
        "xyz": [1.153718994680336, 7.92547959, 5.598487077547813]
      },
      {
        "species": [{ "element": "Br", "occu": 1 }],
        "abc": [0.32817734, 0.75, 0.91574811],
        "properties": { "magmom": -0.0 },
        "label": "Br",
        "xyz": [2.203576820319664, 7.92547959, 12.331514772547813]
      },
      {
        "species": [{ "element": "Br", "occu": 1 }],
        "abc": [0.57305955, 0.45428432, 0.8374827300000001],
        "properties": { "magmom": 0.0 },
        "label": "Br",
        "xyz": [3.8478608579215665, 4.800561474956038, 11.277588830348416]
      },
      {
        "species": [{ "element": "Br", "occu": 1 }],
        "abc": [0.92694045, 0.04571568, 0.33748273],
        "properties": { "magmom": 0.0 },
        "label": "Br",
        "xyz": [6.224026587078434, 0.4830915850439616, 4.544561135348415]
      },
      {
        "species": [{ "element": "Br", "occu": 1 }],
        "abc": [0.42694045, 0.9542843200000001, 0.16251727],
        "properties": { "magmom": 0.0 },
        "label": "Br",
        "xyz": [2.8667307720784336, 10.084214534956038, 2.188466559651585]
      },
      {
        "species": [{ "element": "Br", "occu": 1 }],
        "abc": [0.07305955, 0.54571568, 0.66251727],
        "properties": { "magmom": 0.0 },
        "label": "Br",
        "xyz": [0.4905650429215665, 5.7667446450439614, 8.921494254651586]
      },
      {
        "species": [{ "element": "Br", "occu": 1 }],
        "abc": [0.42694045, 0.54571568, 0.16251727],
        "properties": { "magmom": 0.0 },
        "label": "Br",
        "xyz": [2.8667307720784336, 5.7667446450439614, 2.188466559651585]
      },
      {
        "species": [{ "element": "Br", "occu": 1 }],
        "abc": [0.07305955, 0.9542843200000001, 0.66251727],
        "properties": { "magmom": 0.0 },
        "label": "Br",
        "xyz": [0.4905650429215665, 10.084214534956038, 8.921494254651586]
      },
      {
        "species": [{ "element": "Br", "occu": 1 }],
        "abc": [0.57305955, 0.04571568, 0.8374827300000001],
        "properties": { "magmom": 0.0 },
        "label": "Br",
        "xyz": [3.8478608579215665, 0.4830915850439616, 11.277588830348416]
      },
      {
        "species": [{ "element": "Br", "occu": 1 }],
        "abc": [0.92694045, 0.45428432, 0.33748273],
        "properties": { "magmom": 0.0 },
        "label": "Br",
        "xyz": [6.224026587078434, 4.800561474956038, 4.544561135348415]
      }
    ]
  },
  "task_ids": null,
  "uncorrected_energy_per_atom": null,
  "energy_per_atom": -2.611778654375001,
  "formation_energy_per_atom": -0.7912007239583361,
  "energy_above_hull": 0.0,
  "is_stable": true,
  "equilibrium_reaction_energy_per_atom": null,
  "decomposes_to": null,
  "xas": null,
  "grain_boundaries": null,
  "band_gap": 2.035,
  "cbm": null,
  "vbm": null,
  "efermi": -3.28121006,
  "is_gap_direct": null,
  "is_metal": null,
  "es_source_calc_id": null,
  "bandstructure": null,
  "dos": null,
  "dos_energy_up": null,
  "dos_energy_down": null,
  "is_magnetic": null,
  "ordering": null,
  "total_magnetization": 0.0,
  "total_magnetization_normalized_vol": null,
  "total_magnetization_normalized_formula_units": null,
  "num_magnetic_sites": null,
  "num_unique_magnetic_sites": null,
  "types_of_magnetic_species": null,
  "bulk_modulus": null,
  "shear_modulus": null,
  "universal_anisotropy": null,
  "homogeneous_poisson": null,
  "e_total": null,
  "e_ionic": null,
  "e_electronic": null,
  "n": null,
  "e_ij_max": null,
  "weighted_surface_energy_EV_PER_ANG2": null,
  "weighted_surface_energy": null,
  "weighted_work_function": null,
  "surface_anisotropy": null,
  "shape_factor": null,
  "has_reconstructed": null,
  "possible_species": null,
  "has_props": null,
  "theoretical": null,
  "database_IDs": null,
  "fields_not_requested": [
    "builder_meta",
    "nsites",
    "elements",
    "nelements",
    "composition",
    "composition_reduced",
    "chemsys",
    "symmetry",
    "property_name",
    "deprecated",
    "deprecation_reasons",
    "last_updated",
    "origins",
    "warnings",
    "task_ids",
    "uncorrected_energy_per_atom",
    "equilibrium_reaction_energy_per_atom",
    "decomposes_to",
    "xas",
    "grain_boundaries",
    "cbm",
    "vbm",
    "is_gap_direct",
    "is_metal",
    "es_source_calc_id",
    "bandstructure",
    "dos",
    "dos_energy_up",
    "dos_energy_down",
    "is_magnetic",
    "ordering",
    "total_magnetization_normalized_vol",
    "total_magnetization_normalized_formula_units",
    "num_magnetic_sites",
    "num_unique_magnetic_sites",
    "types_of_magnetic_species",
    "bulk_modulus",
    "shear_modulus",
    "universal_anisotropy",
    "homogeneous_poisson",
    "e_total",
    "e_ionic",
    "e_electronic",
    "n",
    "e_ij_max",
    "weighted_surface_energy_EV_PER_ANG2",
    "weighted_surface_energy",
    "weighted_work_function",
    "surface_anisotropy",
    "shape_factor",
    "has_reconstructed",
    "possible_species",
    "has_props",
    "theoretical",
    "database_IDs"
  ]
}
