{"builder_meta": null, "nsites": null, "elements": null, "nelements": null, "composition": null, "composition_reduced": null, "formula_pretty": "TlBr", "formula_anonymous": "AB", "chemsys": null, "volume": 136.72022626995474, "density": 6.905637602678177, "density_atomic": 34.180056567488684, "symmetry": null, "property_name": null, "material_id": "mp-568949", "deprecated": null, "deprecation_reasons": null, "last_updated": null, "origins": null, "warnings": null, "structure": {"@module": "pymatgen.core.structure", "@class": "Structure", "charge": 0, "lattice": {"matrix": [[4.16982661, 0.0, -1.46444227], [0.0, 4.97175822, 0.0], [-0.02310908, -0.0, 6.60296362]], "pbc": [true, true, true], "a": 4.419507339017195, "b": 4.97175822, "c": 6.603004058504125, "alpha": 90.0, "beta": 109.55178787292569, "gamma": 90.0, "volume": 136.72022626995476}, "properties": {}, "sites": [{"species": [{"element": "Tl", "occu": 1}], "abc": [0.61106664, 0.25, 0.22213229], "properties": {"magmom": 0.0}, "label": "Tl", "xyz": [2.542908663095097, 1.242939555, 0.571859612294417]}, {"species": [{"element": "Tl", "occu": 1}], "abc": [0.38893336, 0.75, 0.77786771], "properties": {"magmom": 0.0}, "label": "Tl", "xyz": [1.6038088669049029, 3.728818665, 4.566661737705583]}, {"species": [{"element": "Br", "occu": 1}], "abc": [0.13674449, 0.75, 0.27348699], "properties": {"magmom": 0.0}, "label": "Br", "xyz": [0.5638807804420097, 3.728818665, 1.6055702341677112]}, {"species": [{"element": "Br", "occu": 1}], "abc": [0.86325551, 0.25, 0.72651301], "properties": {"magmom": 0.0}, "label": "Br", "xyz": [3.5828367495579903, 1.242939555, 3.5329511158322884]}]}, "task_ids": null, "uncorrected_energy_per_atom": null, "energy_per_atom": -3.155231177499999, "formation_energy_per_atom": -1.151021851666669, "energy_above_hull": 0.0, "is_stable": true, "equilibrium_reaction_energy_per_atom": null, "decomposes_to": null, "xas": null, "grain_boundaries": null, "band_gap": 2.1678, "cbm": null, "vbm": null, "efermi": 1.4462058, "is_gap_direct": null, "is_metal": null, "es_source_calc_id": null, "bandstructure": null, "dos": null, "dos_energy_up": null, "dos_energy_down": null, "is_magnetic": null, "ordering": null, "total_magnetization": 0.0, "total_magnetization_normalized_vol": null, "total_magnetization_normalized_formula_units": null, "num_magnetic_sites": null, "num_unique_magnetic_sites": null, "types_of_magnetic_species": null, "bulk_modulus": null, "shear_modulus": null, "universal_anisotropy": null, "homogeneous_poisson": null, "e_total": null, "e_ionic": null, "e_electronic": null, "n": null, "e_ij_max": null, "weighted_surface_energy_EV_PER_ANG2": null, "weighted_surface_energy": null, "weighted_work_function": null, "surface_anisotropy": null, "shape_factor": null, "has_reconstructed": null, "possible_species": null, "has_props": null, "theoretical": null, "database_IDs": null, "fields_not_requested": ["builder_meta", "nsites", "elements", "nelements", "composition", "composition_reduced", "chemsys", "symmetry", "property_name", "deprecated", "deprecation_reasons", "last_updated", "origins", "warnings", "task_ids", "uncorrected_energy_per_atom", "equilibrium_reaction_energy_per_atom", "decomposes_to", "xas", "grain_boundaries", "cbm", "vbm", "is_gap_direct", "is_metal", "es_source_calc_id", "bandstructure", "dos", "dos_energy_up", "dos_energy_down", "is_magnetic", "ordering", "total_magnetization_normalized_vol", "total_magnetization_normalized_formula_units", "num_magnetic_sites", "num_unique_magnetic_sites", "types_of_magnetic_species", "bulk_modulus", "shear_modulus", "universal_anisotropy", "homogeneous_poisson", "e_total", "e_ionic", "e_electronic", "n", "e_ij_max", "weighted_surface_energy_EV_PER_ANG2", "weighted_surface_energy", "weighted_work_function", "surface_anisotropy", "shape_factor", "has_reconstructed", "possible_species", "has_props", "theoretical", "database_IDs"]}