{"builder_meta": null, "nsites": null, "elements": null, "nelements": null, "composition": null, "composition_reduced": null, "formula_pretty": "TlC", "formula_anonymous": "AB", "chemsys": null, "volume": 76.03859339241949, "density": 9.45127138066347, "density_atomic": 19.00964834810487, "symmetry": null, "property_name": null, "material_id": "mp-1187517", "deprecated": null, "deprecation_reasons": null, "last_updated": null, "origins": null, "warnings": null, "structure": {"@module": "pymatgen.core.structure", "@class": "Structure", "charge": 0, "lattice": {"matrix": [[1.86617, -3.232008, 0.0], [1.86617, 3.232008, 0.0], [0.0, 0.0, 6.303481]], "pbc": [true, true, true], "a": 3.7320860361149233, "b": 3.7320860361149233, "c": 6.303481, "alpha": 90.0, "beta": 90.0, "gamma": 119.9954978781853, "volume": 76.03859339241949}, "properties": {}, "sites": [{"species": [{"element": "Tl", "occu": 1}], "abc": [1e-06, 0.999999, 0.368183999999999], "properties": {"magmom": 0.0}, "label": "Tl", "xyz": [1.86617, 3.232001535984, 2.3208408485039937]}, {"species": [{"element": "Tl", "occu": 1}], "abc": [0.333333999999999, 0.666666, 0.868184], "properties": {"magmom": 0.0}, "label": "Tl", "xyz": [1.866169999999998, 1.0773316906560029, 5.472581348504]}, {"species": [{"element": "C", "occu": 1}], "abc": [0.999999, 1e-06, 0.006816], "properties": {"magmom": 0.0}, "label": "C", "xyz": [1.86617, -3.232001535984, 0.042964526496]}, {"species": [{"element": "C", "occu": 1}], "abc": [0.333335999999999, 0.666663999999999, 0.506815999999999], "properties": {"magmom": 0.0}, "label": "C", "xyz": [1.8661699999999963, 1.077318762624, 3.1947050264959937]}]}, "task_ids": null, "uncorrected_energy_per_atom": null, "energy_per_atom": -3.8144193250000002, "formation_energy_per_atom": 1.985649479583329, "energy_above_hull": 1.985649479583329, "is_stable": false, "equilibrium_reaction_energy_per_atom": null, "decomposes_to": null, "xas": null, "grain_boundaries": null, "band_gap": 0.0, "cbm": null, "vbm": null, "efermi": 4.79763444, "is_gap_direct": null, "is_metal": null, "es_source_calc_id": null, "bandstructure": null, "dos": null, "dos_energy_up": null, "dos_energy_down": null, "is_magnetic": null, "ordering": null, "total_magnetization": 0.0010753, "total_magnetization_normalized_vol": null, "total_magnetization_normalized_formula_units": null, "num_magnetic_sites": null, "num_unique_magnetic_sites": null, "types_of_magnetic_species": null, "bulk_modulus": null, "shear_modulus": null, "universal_anisotropy": null, "homogeneous_poisson": null, "e_total": null, "e_ionic": null, "e_electronic": null, "n": null, "e_ij_max": null, "weighted_surface_energy_EV_PER_ANG2": null, "weighted_surface_energy": null, "weighted_work_function": null, "surface_anisotropy": null, "shape_factor": null, "has_reconstructed": null, "possible_species": null, "has_props": null, "theoretical": null, "database_IDs": null, "fields_not_requested": ["builder_meta", "nsites", "elements", "nelements", "composition", "composition_reduced", "chemsys", "symmetry", "property_name", "deprecated", "deprecation_reasons", "last_updated", "origins", "warnings", "task_ids", "uncorrected_energy_per_atom", "equilibrium_reaction_energy_per_atom", "decomposes_to", "xas", "grain_boundaries", "cbm", "vbm", "is_gap_direct", "is_metal", "es_source_calc_id", "bandstructure", "dos", "dos_energy_up", "dos_energy_down", "is_magnetic", "ordering", "total_magnetization_normalized_vol", "total_magnetization_normalized_formula_units", "num_magnetic_sites", "num_unique_magnetic_sites", "types_of_magnetic_species", "bulk_modulus", "shear_modulus", "universal_anisotropy", "homogeneous_poisson", "e_total", "e_ionic", "e_electronic", "n", "e_ij_max", "weighted_surface_energy_EV_PER_ANG2", "weighted_surface_energy", "weighted_work_function", "surface_anisotropy", "shape_factor", "has_reconstructed", "possible_species", "has_props", "theoretical", "database_IDs"]}