{"builder_meta": null, "nsites": null, "elements": null, "nelements": null, "composition": null, "composition_reduced": null, "formula_pretty": "TlCl3", "formula_anonymous": "AB3", "chemsys": null, "volume": 234.21051777623543, "density": 4.406289979582581, "density_atomic": 29.27631472202943, "symmetry": null, "property_name": null, "material_id": "mp-1206058", "deprecated": null, "deprecation_reasons": null, "last_updated": null, "origins": null, "warnings": null, "structure": {"@module": "pymatgen.core.structure", "@class": "Structure", "charge": 0, "lattice": {"matrix": [[0.061011340000000004, 0.0, 6.49349489], [-6.24857882, -0.0, 2.26299048], [-3.12428991, -5.75269488, 1.13149474]], "pbc": [true, true, true], "a": 6.493781507724503, "b": 6.645740228320937, "c": 6.643415249008124, "alpha": 59.98841950688791, "beta": 80.45092984860962, "gamma": 70.62991901510162, "volume": 234.21051777623543}, "properties": {}, "sites": [{"species": [{"element": "Tl", "occu": 1}], "abc": [-0.0, 0.16645222, 0.66709556], "properties": {"magmom": -0.0}, "label": "Tl", "xyz": [-3.12428974354778, -3.837597212482733, 1.13149490645222]}, {"species": [{"element": "Tl", "occu": 1}], "abc": [0.0, 0.8335477800000001, 0.33290444], "properties": {"magmom": -0.0}, "label": "Tl", "xyz": [-6.24857898645222, -1.9150976675172673, 2.26299031354778]}, {"species": [{"element": "Cl", "occu": 1}], "abc": [0.24209901, 0.06938378, 0.35225089], "properties": {"magmom": -0.0}, "label": "Cl", "xyz": [-1.519313134562286, -2.026391891378443, 2.127653547110792]}, {"species": [{"element": "Cl", "occu": 1}], "abc": [0.75790099, 0.93061622, 0.64774911], "properties": {"magmom": -0.0}, "label": "Cl", "xyz": [-7.792544255437713, -3.726302988621557, 7.760326562889208]}, {"species": [{"element": "Cl", "occu": 1}], "abc": [0.75790099, 0.57836432, 0.35225089], "properties": {"magmom": -0.0}, "label": "Cl", "xyz": [-4.668248386623996, -2.026391891378443, 6.628829185017933]}, {"species": [{"element": "Cl", "occu": 1}], "abc": [0.24209901, 0.42163568, 0.64774911], "properties": {"magmom": -0.0}, "label": "Cl", "xyz": [-4.643609003376004, -3.726302988621557, 3.259150924982067]}, {"species": [{"element": "Cl", "occu": 1}], "abc": [0.24461257, 0.77518246, -0.0], "properties": {"magmom": -0.0}, "label": "Cl", "xyz": [-4.828864560514953, 0.0, 3.342621000567748]}, {"species": [{"element": "Cl", "occu": 1}], "abc": [0.75538743, 0.22481754, 0.0], "properties": {"magmom": -0.0}, "label": "Cl", "xyz": [-1.3587029194850466, 0.0, 5.413864369432252]}]}, "task_ids": null, "uncorrected_energy_per_atom": null, "energy_per_atom": -3.10374676, "formation_energy_per_atom": -1.1244716308333351, "energy_above_hull": 0.0, "is_stable": true, "equilibrium_reaction_energy_per_atom": null, "decomposes_to": null, "xas": null, "grain_boundaries": null, "band_gap": 2.199799999999999, "cbm": null, "vbm": null, "efermi": -1.03095733, "is_gap_direct": null, "is_metal": null, "es_source_calc_id": null, "bandstructure": null, "dos": null, "dos_energy_up": null, "dos_energy_down": null, "is_magnetic": null, "ordering": null, "total_magnetization": 0.0, "total_magnetization_normalized_vol": null, "total_magnetization_normalized_formula_units": null, "num_magnetic_sites": null, "num_unique_magnetic_sites": null, "types_of_magnetic_species": null, "bulk_modulus": null, "shear_modulus": null, "universal_anisotropy": null, "homogeneous_poisson": null, "e_total": null, "e_ionic": null, "e_electronic": null, "n": null, "e_ij_max": null, "weighted_surface_energy_EV_PER_ANG2": null, "weighted_surface_energy": null, "weighted_work_function": null, "surface_anisotropy": null, "shape_factor": null, "has_reconstructed": null, "possible_species": null, "has_props": null, "theoretical": null, "database_IDs": null, "fields_not_requested": ["builder_meta", "nsites", "elements", "nelements", "composition", "composition_reduced", "chemsys", "symmetry", "property_name", "deprecated", "deprecation_reasons", "last_updated", "origins", "warnings", "task_ids", "uncorrected_energy_per_atom", "equilibrium_reaction_energy_per_atom", "decomposes_to", "xas", "grain_boundaries", "cbm", "vbm", "is_gap_direct", "is_metal", "es_source_calc_id", "bandstructure", "dos", "dos_energy_up", "dos_energy_down", "is_magnetic", "ordering", "total_magnetization_normalized_vol", "total_magnetization_normalized_formula_units", "num_magnetic_sites", "num_unique_magnetic_sites", "types_of_magnetic_species", "bulk_modulus", "shear_modulus", "universal_anisotropy", "homogeneous_poisson", "e_total", "e_ionic", "e_electronic", "n", "e_ij_max", "weighted_surface_energy_EV_PER_ANG2", "weighted_surface_energy", "weighted_work_function", "surface_anisotropy", "shape_factor", "has_reconstructed", "possible_species", "has_props", "theoretical", "database_IDs"]}