{
  "builder_meta": null,
  "nsites": null,
  "elements": null,
  "nelements": null,
  "composition": null,
  "composition_reduced": null,
  "formula_pretty": "TlCl2",
  "formula_anonymous": "AB2",
  "chemsys": null,
  "volume": 381.6275060535992,
  "density": 4.7913594278790175,
  "density_atomic": 31.802292171133264,
  "symmetry": null,
  "property_name": null,
  "material_id": "mp-27205",
  "deprecated": null,
  "deprecation_reasons": null,
  "last_updated": null,
  "origins": null,
  "warnings": null,
  "structure": {
    "@module": "pymatgen.core.structure",
    "@class": "Structure",
    "charge": 0,
    "lattice": {
      "matrix": [
        [6.51873384, 3.5430000000000005e-5, -2.66771537],
        [-1.09175455, 6.42667332, -2.66768702],
        [-0.05513065, -0.06532661000000001, 9.16362024]
      ],
      "pbc": [true, true, true],
      "a": 7.043478982246676,
      "b": 7.043480105467893,
      "c": 9.164018924984887,
      "alpha": 112.60034970808103,
      "beta": 112.60035398583477,
      "gamma": 89.99999996237274,
      "volume": 381.6275060535992
    },
    "properties": {},
    "sites": [
      {
        "species": [{ "element": "Tl", "occu": 1 }],
        "abc": [0.625, 0.875, 0.25],
        "properties": { "magmom": 0.0 },
        "label": "Tl",
        "xyz": [3.10514075625, 5.60702964625, -1.7106431887499998]
      },
      {
        "species": [{ "element": "Tl", "occu": 1 }],
        "abc": [0.375, 0.125, 0.75],
        "properties": { "magmom": 0.0 },
        "label": "Tl",
        "xyz": [2.26670788375, 0.7543524937499999, 5.53886103875]
      },
      {
        "species": [{ "element": "Tl", "occu": 1 }],
        "abc": [0.125, 0.375, 0.25],
        "properties": { "magmom": 0.0 },
        "label": "Tl",
        "xyz": [0.39165111125, 2.3936752712500002, 0.95705800625]
      },
      {
        "species": [{ "element": "Tl", "occu": 1 }],
        "abc": [0.875, 0.625, 0.75],
        "properties": { "magmom": 0.0 },
        "label": "Tl",
        "xyz": [4.98019752875, 3.96770686875, 2.87115984375]
      },
      {
        "species": [{ "element": "Cl", "occu": 1 }],
        "abc": [0.27979275, 0.45322899, 0.07542466],
        "properties": { "magmom": -0.0 },
        "label": "Cl",
        "xyz": [1.3249214450554265, 2.9078373335924765, -1.2643175723291586]
      },
      {
        "species": [{ "element": "Cl", "occu": 1 }],
        "abc": [0.6221966600000001, 0.77979275, 0.57542466],
        "properties": { "magmom": -0.0 },
        "label": "Cl",
        "xyz": [3.1728686042756333, 4.973904763633891, 1.5328864704613503]
      },
      {
        "species": [{ "element": "Cl", "occu": 1 }],
        "abc": [0.95322899, 0.29563391, 0.57542466],
        "properties": { "magmom": -0.0 },
        "label": "Cl",
        "xyz": [5.859362872473403, 1.8623857924391942, 1.9413706888396947]
      },
      {
        "species": [{ "element": "Cl", "occu": 1 }],
        "abc": [0.79563391, 0.12219666, 0.07542466],
        "properties": { "magmom": -0.0 },
        "label": "Cl",
        "xyz": [5.0489587232868836, 0.7804189665763399, -1.7573443133984312]
      },
      {
        "species": [{ "element": "Cl", "occu": 1 }],
        "abc": [0.20436609, 0.87780334, 0.92457534],
        "properties": { "magmom": -0.0 },
        "label": "Cl",
        "xyz": [0.3228899167131175, 5.58096317342366, 5.585562163398432]
      },
      {
        "species": [{ "element": "Cl", "occu": 1 }],
        "abc": [0.04677101, 0.7043660900000001, 0.42457534],
        "properties": { "magmom": -0.0 },
        "label": "Cl",
        "xyz": [-0.48751423247340225, 4.498996347560807, 1.8868471611603064]
      },
      {
        "species": [{ "element": "Cl", "occu": 1 }],
        "abc": [0.37780334, 0.22020725, 0.42457534],
        "properties": { "magmom": -0.0 },
        "label": "Cl",
        "xyz": [2.1989800357243667, 1.3874773763661086, 2.295331379538651]
      },
      {
        "species": [{ "element": "Cl", "occu": 1 }],
        "abc": [0.72020725, 0.5467710100000001, 0.92457534],
        "properties": { "magmom": -0.0 },
        "label": "Cl",
        "xyz": [4.0469271949445735, 3.453544806407524, 5.09253542232916]
      }
    ]
  },
  "task_ids": null,
  "uncorrected_energy_per_atom": null,
  "energy_per_atom": -3.248495468333336,
  "formation_energy_per_atom": -1.225642896111116,
  "energy_above_hull": 0.0,
  "is_stable": true,
  "equilibrium_reaction_energy_per_atom": null,
  "decomposes_to": null,
  "xas": null,
  "grain_boundaries": null,
  "band_gap": 2.2468,
  "cbm": null,
  "vbm": null,
  "efermi": -0.37579818,
  "is_gap_direct": null,
  "is_metal": null,
  "es_source_calc_id": null,
  "bandstructure": null,
  "dos": null,
  "dos_energy_up": null,
  "dos_energy_down": null,
  "is_magnetic": null,
  "ordering": null,
  "total_magnetization": 0.0,
  "total_magnetization_normalized_vol": null,
  "total_magnetization_normalized_formula_units": null,
  "num_magnetic_sites": null,
  "num_unique_magnetic_sites": null,
  "types_of_magnetic_species": null,
  "bulk_modulus": null,
  "shear_modulus": null,
  "universal_anisotropy": null,
  "homogeneous_poisson": null,
  "e_total": null,
  "e_ionic": null,
  "e_electronic": null,
  "n": null,
  "e_ij_max": null,
  "weighted_surface_energy_EV_PER_ANG2": null,
  "weighted_surface_energy": null,
  "weighted_work_function": null,
  "surface_anisotropy": null,
  "shape_factor": null,
  "has_reconstructed": null,
  "possible_species": null,
  "has_props": null,
  "theoretical": null,
  "database_IDs": null,
  "fields_not_requested": [
    "builder_meta",
    "nsites",
    "elements",
    "nelements",
    "composition",
    "composition_reduced",
    "chemsys",
    "symmetry",
    "property_name",
    "deprecated",
    "deprecation_reasons",
    "last_updated",
    "origins",
    "warnings",
    "task_ids",
    "uncorrected_energy_per_atom",
    "equilibrium_reaction_energy_per_atom",
    "decomposes_to",
    "xas",
    "grain_boundaries",
    "cbm",
    "vbm",
    "is_gap_direct",
    "is_metal",
    "es_source_calc_id",
    "bandstructure",
    "dos",
    "dos_energy_up",
    "dos_energy_down",
    "is_magnetic",
    "ordering",
    "total_magnetization_normalized_vol",
    "total_magnetization_normalized_formula_units",
    "num_magnetic_sites",
    "num_unique_magnetic_sites",
    "types_of_magnetic_species",
    "bulk_modulus",
    "shear_modulus",
    "universal_anisotropy",
    "homogeneous_poisson",
    "e_total",
    "e_ionic",
    "e_electronic",
    "n",
    "e_ij_max",
    "weighted_surface_energy_EV_PER_ANG2",
    "weighted_surface_energy",
    "weighted_work_function",
    "surface_anisotropy",
    "shape_factor",
    "has_reconstructed",
    "possible_species",
    "has_props",
    "theoretical",
    "database_IDs"
  ]
}
