{"builder_meta": null, "nsites": null, "elements": null, "nelements": null, "composition": null, "composition_reduced": null, "formula_pretty": "TlCl", "formula_anonymous": "AB", "chemsys": null, "volume": 123.12706747101339, "density": 6.469049477403585, "density_atomic": 30.781766867753348, "symmetry": null, "property_name": null, "material_id": "mp-571079", "deprecated": null, "deprecation_reasons": null, "last_updated": null, "origins": null, "warnings": null, "structure": {"@module": "pymatgen.core.structure", "@class": "Structure", "charge": 0, "lattice": {"matrix": [[4.03863191, 0.0, -1.3907220200000001], [0.0, 4.71706889, 0.0], [-0.02962225, -0.0, 6.47339237]], "pbc": [true, true, true], "a": 4.2713762935830335, "b": 4.71706889, "c": 6.473460145368108, "alpha": 90.0, "beta": 109.26357293694329, "gamma": 90.0, "volume": 123.12706747101339}, "properties": {}, "sites": [{"species": [{"element": "Tl", "occu": 1}], "abc": [0.61314602, 0.25, 0.22629104], "properties": {"magmom": -0.0}, "label": "Tl", "xyz": [2.469567832101858, 1.1792672225, 0.6121550202460044]}, {"species": [{"element": "Tl", "occu": 1}], "abc": [0.38685398, 0.75, 0.77370896], "properties": {"magmom": -0.0}, "label": "Tl", "xyz": [1.5394418278981419, 3.5378016675, 4.4705153297539955]}, {"species": [{"element": "Cl", "occu": 1}], "abc": [0.14349511, 0.75, 0.28699222], "properties": {"magmom": -0.0}, "label": "Cl", "xyz": [0.5710225748860652, 3.5378016675, 1.6582514379580393]}, {"species": [{"element": "Cl", "occu": 1}], "abc": [0.85650489, 0.25, 0.71300778], "properties": {"magmom": -0.0}, "label": "Cl", "xyz": [3.437987085113935, 1.1792672225, 3.424418912041961]}]}, "task_ids": null, "uncorrected_energy_per_atom": null, "energy_per_atom": -3.435825702499997, "formation_energy_per_atom": -1.325818244166667, "energy_above_hull": 0.0, "is_stable": true, "equilibrium_reaction_energy_per_atom": null, "decomposes_to": null, "xas": null, "grain_boundaries": null, "band_gap": 2.5181, "cbm": null, "vbm": null, "efermi": 1.5148811, "is_gap_direct": null, "is_metal": null, "es_source_calc_id": null, "bandstructure": null, "dos": null, "dos_energy_up": null, "dos_energy_down": null, "is_magnetic": null, "ordering": null, "total_magnetization": 0.0, "total_magnetization_normalized_vol": null, "total_magnetization_normalized_formula_units": null, "num_magnetic_sites": null, "num_unique_magnetic_sites": null, "types_of_magnetic_species": null, "bulk_modulus": null, "shear_modulus": null, "universal_anisotropy": null, "homogeneous_poisson": null, "e_total": null, "e_ionic": null, "e_electronic": null, "n": null, "e_ij_max": null, "weighted_surface_energy_EV_PER_ANG2": null, "weighted_surface_energy": null, "weighted_work_function": null, "surface_anisotropy": null, "shape_factor": null, "has_reconstructed": null, "possible_species": null, "has_props": null, "theoretical": null, "database_IDs": null, "fields_not_requested": ["builder_meta", "nsites", "elements", "nelements", "composition", "composition_reduced", "chemsys", "symmetry", "property_name", "deprecated", "deprecation_reasons", "last_updated", "origins", "warnings", "task_ids", "uncorrected_energy_per_atom", "equilibrium_reaction_energy_per_atom", "decomposes_to", "xas", "grain_boundaries", "cbm", "vbm", "is_gap_direct", "is_metal", "es_source_calc_id", "bandstructure", "dos", "dos_energy_up", "dos_energy_down", "is_magnetic", "ordering", "total_magnetization_normalized_vol", "total_magnetization_normalized_formula_units", "num_magnetic_sites", "num_unique_magnetic_sites", "types_of_magnetic_species", "bulk_modulus", "shear_modulus", "universal_anisotropy", "homogeneous_poisson", "e_total", "e_ionic", "e_electronic", "n", "e_ij_max", "weighted_surface_energy_EV_PER_ANG2", "weighted_surface_energy", "weighted_work_function", "surface_anisotropy", "shape_factor", "has_reconstructed", "possible_species", "has_props", "theoretical", "database_IDs"]}