{"builder_meta": null, "nsites": null, "elements": null, "nelements": null, "composition": null, "composition_reduced": null, "formula_pretty": "TlF", "formula_anonymous": "AB", "chemsys": null, "volume": 172.12074263317166, "density": 8.620321740484021, "density_atomic": 21.515092829146457, "symmetry": null, "property_name": null, "material_id": "mp-720", "deprecated": null, "deprecation_reasons": null, "last_updated": null, "origins": null, "warnings": null, "structure": {"@module": "pymatgen.core.structure", "@class": "Structure", "charge": 0, "lattice": {"matrix": [[5.04398845, 0.0, 0.0], [-0.0, 5.56128201, 0.0], [0.0, 0.0, 6.1359838700000005]], "pbc": [true, true, true], "a": 5.04398845, "b": 5.56128201, "c": 6.1359838700000005, "alpha": 90.0, "beta": 90.0, "gamma": 90.0, "volume": 172.1207426331717}, "properties": {}, "sites": [{"species": [{"element": "Tl", "occu": 1}], "abc": [0.25, 0.51100819, 0.74393232], "properties": {"magmom": -0.0}, "label": "Tl", "xyz": [1.2609971125, 2.841860654009662, 4.564756715891678]}, {"species": [{"element": "Tl", "occu": 1}], "abc": [0.75, 0.48899181, 0.25606768], "properties": {"magmom": -0.0}, "label": "Tl", "xyz": [3.7829913374999995, 2.719421355990338, 1.5712271541083218]}, {"species": [{"element": "Tl", "occu": 1}], "abc": [0.25, 0.011008190000000001, 0.25606768], "properties": {"magmom": -0.0}, "label": "Tl", "xyz": [1.2609971125, 0.06121964900966191, 1.5712271541083218]}, {"species": [{"element": "Tl", "occu": 1}], "abc": [0.75, 0.98899181, 0.74393232], "properties": {"magmom": -0.0}, "label": "Tl", "xyz": [3.7829913374999995, 5.500062360990339, 4.564756715891678]}, {"species": [{"element": "F", "occu": 1}], "abc": [0.25, 0.57919857, 0.13712164], "properties": {"magmom": 0.0}, "label": "F", "xyz": [1.2609971125, 3.221086587558726, 0.8413761712679468]}, {"species": [{"element": "F", "occu": 1}], "abc": [0.75, 0.42080143000000003, 0.8628783600000001], "properties": {"magmom": 0.0}, "label": "F", "xyz": [3.7829913374999995, 2.3401954224412744, 5.294607698732054]}, {"species": [{"element": "F", "occu": 1}], "abc": [0.25, 0.07919857, 0.8628783600000001], "properties": {"magmom": 0.0}, "label": "F", "xyz": [1.2609971125, 0.4404455825587257, 5.294607698732054]}, {"species": [{"element": "F", "occu": 1}], "abc": [0.75, 0.92080143, 0.13712164], "properties": {"magmom": 0.0}, "label": "F", "xyz": [3.7829913374999995, 5.120836427441275, 0.8413761712679468]}]}, "task_ids": null, "uncorrected_energy_per_atom": null, "energy_per_atom": -30.02422722625, "formation_energy_per_atom": -1.871560961250001, "energy_above_hull": 0.0, "is_stable": true, "equilibrium_reaction_energy_per_atom": null, "decomposes_to": null, "xas": null, "grain_boundaries": null, "band_gap": 3.205, "cbm": null, "vbm": null, "efermi": 0.9635727900000001, "is_gap_direct": null, "is_metal": null, "es_source_calc_id": null, "bandstructure": null, "dos": null, "dos_energy_up": null, "dos_energy_down": null, "is_magnetic": null, "ordering": null, "total_magnetization": 0.0, "total_magnetization_normalized_vol": null, "total_magnetization_normalized_formula_units": null, "num_magnetic_sites": null, "num_unique_magnetic_sites": null, "types_of_magnetic_species": null, "bulk_modulus": null, "shear_modulus": null, "universal_anisotropy": null, "homogeneous_poisson": null, "e_total": null, "e_ionic": null, "e_electronic": null, "n": null, "e_ij_max": null, "weighted_surface_energy_EV_PER_ANG2": null, "weighted_surface_energy": null, "weighted_work_function": null, "surface_anisotropy": null, "shape_factor": null, "has_reconstructed": null, "possible_species": null, "has_props": null, "theoretical": null, "database_IDs": null, "fields_not_requested": ["builder_meta", "nsites", "elements", "nelements", "composition", "composition_reduced", "chemsys", "symmetry", "property_name", "deprecated", "deprecation_reasons", "last_updated", "origins", "warnings", "task_ids", "uncorrected_energy_per_atom", "equilibrium_reaction_energy_per_atom", "decomposes_to", "xas", "grain_boundaries", "cbm", "vbm", "is_gap_direct", "is_metal", "es_source_calc_id", "bandstructure", "dos", "dos_energy_up", "dos_energy_down", "is_magnetic", "ordering", "total_magnetization_normalized_vol", "total_magnetization_normalized_formula_units", "num_magnetic_sites", "num_unique_magnetic_sites", "types_of_magnetic_species", "bulk_modulus", "shear_modulus", "universal_anisotropy", "homogeneous_poisson", "e_total", "e_ionic", "e_electronic", "n", "e_ij_max", "weighted_surface_energy_EV_PER_ANG2", "weighted_surface_energy", "weighted_work_function", "surface_anisotropy", "shape_factor", "has_reconstructed", "possible_species", "has_props", "theoretical", "database_IDs"]}