{"builder_meta": null, "nsites": null, "elements": null, "nelements": null, "composition": null, "composition_reduced": null, "formula_pretty": "TlF3", "formula_anonymous": "AB3", "chemsys": null, "volume": 199.542881513323, "density": 8.700470256194109, "density_atomic": 12.471430094582688, "symmetry": null, "property_name": null, "material_id": "mp-2632", "deprecated": null, "deprecation_reasons": null, "last_updated": null, "origins": null, "warnings": null, "structure": {"@module": "pymatgen.core.structure", "@class": "Structure", "charge": 0, "lattice": {"matrix": [[4.80009224, 0.0, 0.0], [0.0, 5.93318984, 0.0], [0.0, 0.0, 7.00645621]], "pbc": [true, true, true], "a": 4.80009224, "b": 5.93318984, "c": 7.00645621, "alpha": 90.0, "beta": 90.0, "gamma": 90.0, "volume": 199.542881513323}, "properties": {}, "sites": [{"species": [{"element": "Tl", "occu": 1}], "abc": [0.95978001, 0.62979863, 0.75], "properties": {"magmom": -0.0}, "label": "Tl", "xyz": [4.6070325781081225, 3.736714832761919, 5.2548421575]}, {"species": [{"element": "Tl", "occu": 1}], "abc": [0.45978001, 0.87020137, 0.25], "properties": {"magmom": -0.0}, "label": "Tl", "xyz": [2.206986458108122, 5.16306992723808, 1.7516140525]}, {"species": [{"element": "Tl", "occu": 1}], "abc": [0.54021999, 0.12979863, 0.75], "properties": {"magmom": -0.0}, "label": "Tl", "xyz": [2.5931057818918775, 0.7701199127619192, 5.2548421575]}, {"species": [{"element": "Tl", "occu": 1}], "abc": [0.040219990000000004, 0.37020137000000003, 0.25], "properties": {"magmom": -0.0}, "label": "Tl", "xyz": [0.1930596618918776, 2.1964750072380808, 1.7516140525]}, {"species": [{"element": "F", "occu": 1}], "abc": [0.34243532, 0.16358579, 0.433253599999999], "properties": {"magmom": -0.0}, "label": "F", "xyz": [1.6437211222339165, 0.9705855471963736, 3.0355723762248488]}, {"species": [{"element": "F", "occu": 1}], "abc": [0.84243532, 0.33641421, 0.5667464], "properties": {"magmom": -0.0}, "label": "F", "xyz": [4.043767242233916, 1.9960093728036263, 3.9708838337751438]}, {"species": [{"element": "F", "occu": 1}], "abc": [0.15756468, 0.6635857900000001, 0.0667464], "properties": {"magmom": -0.0}, "label": "F", "xyz": [0.7563249977660832, 3.9371804671963737, 0.46765572877514394]}, {"species": [{"element": "F", "occu": 1}], "abc": [0.65756468, 0.83641421, 0.933253599999999], "properties": {"magmom": -0.0}, "label": "F", "xyz": [3.156371117766083, 4.9626042928036265, 6.538800481224849]}, {"species": [{"element": "F", "occu": 1}], "abc": [0.62788619, 0.53374192, 0.25], "properties": {"magmom": 0.0}, "label": "F", "xyz": [3.0139116282221656, 3.1667921369260927, 1.7516140525]}, {"species": [{"element": "F", "occu": 1}], "abc": [0.12788619, 0.96625808, 0.75], "properties": {"magmom": 0.0}, "label": "F", "xyz": [0.6138655082221656, 5.7329926230739074, 5.2548421575]}, {"species": [{"element": "F", "occu": 1}], "abc": [0.87211381, 0.03374192, 0.25], "properties": {"magmom": 0.0}, "label": "F", "xyz": [4.186226731777834, 0.2001972169260928, 1.7516140525]}, {"species": [{"element": "F", "occu": 1}], "abc": [0.37211381, 0.46625808, 0.75], "properties": {"magmom": 0.0}, "label": "F", "xyz": [1.7861806117778343, 2.766397703073907, 5.2548421575]}, {"species": [{"element": "F", "occu": 1}], "abc": [0.34243532, 0.16358579, 0.0667464], "properties": {"magmom": -0.0}, "label": "F", "xyz": [1.6437211222339165, 0.9705855471963736, 0.46765572877514394]}, {"species": [{"element": "F", "occu": 1}], "abc": [0.84243532, 0.33641421, 0.933253599999999], "properties": {"magmom": -0.0}, "label": "F", "xyz": [4.043767242233916, 1.9960093728036263, 6.538800481224849]}, {"species": [{"element": "F", "occu": 1}], "abc": [0.15756468, 0.6635857900000001, 0.433253599999999], "properties": {"magmom": -0.0}, "label": "F", "xyz": [0.7563249977660832, 3.9371804671963737, 3.0355723762248488]}, {"species": [{"element": "F", "occu": 1}], "abc": [0.65756468, 0.83641421, 0.5667464], "properties": {"magmom": -0.0}, "label": "F", "xyz": [3.156371117766083, 4.9626042928036265, 3.9708838337751438]}]}, "task_ids": null, "uncorrected_energy_per_atom": null, "energy_per_atom": -17.61357310875, "formation_energy_per_atom": -1.974226001249999, "energy_above_hull": 0.0, "is_stable": true, "equilibrium_reaction_energy_per_atom": null, "decomposes_to": null, "xas": null, "grain_boundaries": null, "band_gap": 1.2702, "cbm": null, "vbm": null, "efermi": 0.24903702, "is_gap_direct": null, "is_metal": null, "es_source_calc_id": null, "bandstructure": null, "dos": null, "dos_energy_up": null, "dos_energy_down": null, "is_magnetic": null, "ordering": null, "total_magnetization": 0.0, "total_magnetization_normalized_vol": null, "total_magnetization_normalized_formula_units": null, "num_magnetic_sites": null, "num_unique_magnetic_sites": null, "types_of_magnetic_species": null, "bulk_modulus": null, "shear_modulus": null, "universal_anisotropy": null, "homogeneous_poisson": null, "e_total": null, "e_ionic": null, "e_electronic": null, "n": null, "e_ij_max": null, "weighted_surface_energy_EV_PER_ANG2": null, "weighted_surface_energy": null, "weighted_work_function": null, "surface_anisotropy": null, "shape_factor": null, "has_reconstructed": null, "possible_species": null, "has_props": null, "theoretical": null, "database_IDs": null, "fields_not_requested": ["builder_meta", "nsites", "elements", "nelements", "composition", "composition_reduced", "chemsys", "symmetry", "property_name", "deprecated", "deprecation_reasons", "last_updated", "origins", "warnings", "task_ids", "uncorrected_energy_per_atom", "equilibrium_reaction_energy_per_atom", "decomposes_to", "xas", "grain_boundaries", "cbm", "vbm", "is_gap_direct", "is_metal", "es_source_calc_id", "bandstructure", "dos", "dos_energy_up", "dos_energy_down", "is_magnetic", "ordering", "total_magnetization_normalized_vol", "total_magnetization_normalized_formula_units", "num_magnetic_sites", "num_unique_magnetic_sites", "types_of_magnetic_species", "bulk_modulus", "shear_modulus", "universal_anisotropy", "homogeneous_poisson", "e_total", "e_ionic", "e_electronic", "n", "e_ij_max", "weighted_surface_energy_EV_PER_ANG2", "weighted_surface_energy", "weighted_work_function", "surface_anisotropy", "shape_factor", "has_reconstructed", "possible_species", "has_props", "theoretical", "database_IDs"]}