{"builder_meta": null, "nsites": null, "elements": null, "nelements": null, "composition": null, "composition_reduced": null, "formula_pretty": "TlI3", "formula_anonymous": "AB3", "chemsys": null, "volume": 666.7122717656202, "density": 5.8290569160885894, "density_atomic": 41.669516985351265, "symmetry": null, "property_name": null, "material_id": "mp-28329", "deprecated": null, "deprecation_reasons": null, "last_updated": null, "origins": null, "warnings": null, "structure": {"@module": "pymatgen.core.structure", "@class": "Structure", "charge": 0, "lattice": {"matrix": [[6.4747426, -0.0, 0.0], [-0.0, 9.76610364, 0.0], [0.0, 0.0, 10.54373816]], "pbc": [true, true, true], "a": 6.4747426, "b": 9.76610364, "c": 10.54373816, "alpha": 90.0, "beta": 90.0, "gamma": 90.0, "volume": 666.7122717656202}, "properties": {}, "sites": [{"species": [{"element": "Tl", "occu": 1}], "abc": [0.25, 0.02453205, 0.324700999999999], "properties": {"magmom": -0.0}, "label": "Tl", "xyz": [1.61868565, 0.23958254280166202, 3.42356232429015]}, {"species": [{"element": "Tl", "occu": 1}], "abc": [0.75, 0.97546795, 0.675299], "properties": {"magmom": -0.0}, "label": "Tl", "xyz": [4.85605695, 9.526521097198339, 7.12017583570984]}, {"species": [{"element": "Tl", "occu": 1}], "abc": [0.75, 0.52453205, 0.175298999999999], "properties": {"magmom": -0.0}, "label": "Tl", "xyz": [4.85605695, 5.122634362801663, 1.8483067557098296]}, {"species": [{"element": "Tl", "occu": 1}], "abc": [0.25, 0.47546795000000003, 0.824701], "properties": {"magmom": -0.0}, "label": "Tl", "xyz": [1.61868565, 4.643469277198339, 8.69543140429016]}, {"species": [{"element": "I", "occu": 1}], "abc": [0.25, 0.3494962, 0.15026086], "properties": {"magmom": -0.0}, "label": "I", "xyz": [1.61868565, 3.413216110986168, 1.5843111635364175]}, {"species": [{"element": "I", "occu": 1}], "abc": [0.75, 0.6505048, 0.8497391400000001], "properties": {"magmom": -0.0}, "label": "I", "xyz": [4.85605695, 6.352897295117472, 8.959426996463582]}, {"species": [{"element": "I", "occu": 1}], "abc": [0.75, 0.8494952, 0.34973914], "properties": {"magmom": -0.0}, "label": "I", "xyz": [4.85605695, 8.296258164882529, 3.6875579164635823]}, {"species": [{"element": "I", "occu": 1}], "abc": [0.25, 0.1505038, 0.65026086], "properties": {"magmom": -0.0}, "label": "I", "xyz": [1.61868565, 1.469835709013832, 6.856180243536418]}, {"species": [{"element": "I", "occu": 1}], "abc": [0.25, 0.54347661, 0.37366768], "properties": {"magmom": -0.0}, "label": "I", "xyz": [1.61868565, 5.307648899175861, 3.939854176774669]}, {"species": [{"element": "I", "occu": 1}], "abc": [0.75, 0.45652339000000003, 0.62633232], "properties": {"magmom": -0.0}, "label": "I", "xyz": [4.85605695, 4.45845474082414, 6.603883983225332]}, {"species": [{"element": "I", "occu": 1}], "abc": [0.75, 0.04347661, 0.12633232], "properties": {"magmom": -0.0}, "label": "I", "xyz": [4.85605695, 0.4245970791758604, 1.3320149032253312]}, {"species": [{"element": "I", "occu": 1}], "abc": [0.25, 0.95652339, 0.8736676800000001], "properties": {"magmom": -0.0}, "label": "I", "xyz": [1.61868565, 9.34150656082414, 9.21172325677467]}, {"species": [{"element": "I", "occu": 1}], "abc": [0.25, 0.73296524, 0.58182571], "properties": {"magmom": 0.0}, "label": "I", "xyz": [1.61868565, 7.158214498357474, 6.134617940996094]}, {"species": [{"element": "I", "occu": 1}], "abc": [0.75, 0.26703476, 0.41817429], "properties": {"magmom": 0.0}, "label": "I", "xyz": [4.85605695, 2.6078891416425263, 4.409120219003906]}, {"species": [{"element": "I", "occu": 1}], "abc": [0.75, 0.23296524000000002, 0.9181742900000001], "properties": {"magmom": 0.0}, "label": "I", "xyz": [4.85605695, 2.275162678357474, 9.680989299003906]}, {"species": [{"element": "I", "occu": 1}], "abc": [0.25, 0.76703476, 0.08182571], "properties": {"magmom": 0.0}, "label": "I", "xyz": [1.61868565, 7.4909409616425275, 0.8627488609960936]}]}, "task_ids": null, "uncorrected_energy_per_atom": null, "energy_per_atom": -2.360580917500002, "formation_energy_per_atom": -0.624703427083337, "energy_above_hull": 0.0, "is_stable": true, "equilibrium_reaction_energy_per_atom": null, "decomposes_to": null, "xas": null, "grain_boundaries": null, "band_gap": 1.6963, "cbm": null, "vbm": null, "efermi": 2.03299982, "is_gap_direct": null, "is_metal": null, "es_source_calc_id": null, "bandstructure": null, "dos": null, "dos_energy_up": null, "dos_energy_down": null, "is_magnetic": null, "ordering": null, "total_magnetization": 0.0, "total_magnetization_normalized_vol": null, "total_magnetization_normalized_formula_units": null, "num_magnetic_sites": null, "num_unique_magnetic_sites": null, "types_of_magnetic_species": null, "bulk_modulus": null, "shear_modulus": null, "universal_anisotropy": null, "homogeneous_poisson": null, "e_total": null, "e_ionic": null, "e_electronic": null, "n": null, "e_ij_max": null, "weighted_surface_energy_EV_PER_ANG2": null, "weighted_surface_energy": null, "weighted_work_function": null, "surface_anisotropy": null, "shape_factor": null, "has_reconstructed": null, "possible_species": null, "has_props": null, "theoretical": null, "database_IDs": null, "fields_not_requested": ["builder_meta", "nsites", "elements", "nelements", "composition", "composition_reduced", "chemsys", "symmetry", "property_name", "deprecated", "deprecation_reasons", "last_updated", "origins", "warnings", "task_ids", "uncorrected_energy_per_atom", "equilibrium_reaction_energy_per_atom", "decomposes_to", "xas", "grain_boundaries", "cbm", "vbm", "is_gap_direct", "is_metal", "es_source_calc_id", "bandstructure", "dos", "dos_energy_up", "dos_energy_down", "is_magnetic", "ordering", "total_magnetization_normalized_vol", "total_magnetization_normalized_formula_units", "num_magnetic_sites", "num_unique_magnetic_sites", "types_of_magnetic_species", "bulk_modulus", "shear_modulus", "universal_anisotropy", "homogeneous_poisson", "e_total", "e_ionic", "e_electronic", "n", "e_ij_max", "weighted_surface_energy_EV_PER_ANG2", "weighted_surface_energy", "weighted_work_function", "surface_anisotropy", "shape_factor", "has_reconstructed", "possible_species", "has_props", "theoretical", "database_IDs"]}