{"builder_meta": null, "nsites": null, "elements": null, "nelements": null, "composition": null, "composition_reduced": null, "formula_pretty": "TlN", "formula_anonymous": "AB", "chemsys": null, "volume": 73.30572532325563, "density": 9.894046478787867, "density_atomic": 18.326431330813907, "symmetry": null, "property_name": null, "material_id": "mp-1017982", "deprecated": null, "deprecation_reasons": null, "last_updated": null, "origins": null, "warnings": null, "structure": {"@module": "pymatgen.core.structure", "@class": "Structure", "charge": 0, "lattice": {"matrix": [[-1.864723999999999, -3.229796, 0.0], [-1.864723999999999, 3.229796, 0.0], [0.0, 0.0, -6.085808]], "pbc": [true, true, true], "a": 3.729447385041381, "b": 3.729447385041381, "c": 6.085808, "alpha": 90.0, "beta": 90.0, "gamma": 119.99998909078704, "volume": 73.30572532325559}, "properties": {}, "sites": [{"species": [{"element": "Tl", "occu": 1}], "abc": [0.666667, 0.333333, 0.500324], "properties": {"magmom": 0.0}, "label": "Tl", "xyz": [-1.864723999999999, -1.0766008198640002, -3.044875801792]}, {"species": [{"element": "Tl", "occu": 1}], "abc": [0.333333, 0.666667, 0.000323999999999], "properties": {"magmom": 0.0}, "label": "Tl", "xyz": [-1.864723999999999, 1.0766008198640002, -0.001971801791993914]}, {"species": [{"element": "N", "occu": 1}], "abc": [0.666667, 0.333333, 0.124676], "properties": {"magmom": -0.0}, "label": "N", "xyz": [-1.864723999999999, -1.0766008198640002, -0.7587541982079999]}, {"species": [{"element": "N", "occu": 1}], "abc": [0.333333, 0.666667, 0.624676], "properties": {"magmom": -0.0}, "label": "N", "xyz": [-1.864723999999999, 1.0766008198640002, -3.801658198208]}]}, "task_ids": null, "uncorrected_energy_per_atom": null, "energy_per_atom": -30.420582272291664, "formation_energy_per_atom": 0.733445353333333, "energy_above_hull": 0.733445353333333, "is_stable": false, "equilibrium_reaction_energy_per_atom": null, "decomposes_to": null, "xas": null, "grain_boundaries": null, "band_gap": 0.0, "cbm": null, "vbm": null, "efermi": 5.03819127, "is_gap_direct": null, "is_metal": null, "es_source_calc_id": null, "bandstructure": null, "dos": null, "dos_energy_up": null, "dos_energy_down": null, "is_magnetic": null, "ordering": null, "total_magnetization": 0.0, "total_magnetization_normalized_vol": null, "total_magnetization_normalized_formula_units": null, "num_magnetic_sites": null, "num_unique_magnetic_sites": null, "types_of_magnetic_species": null, "bulk_modulus": null, "shear_modulus": null, "universal_anisotropy": null, "homogeneous_poisson": null, "e_total": null, "e_ionic": null, "e_electronic": null, "n": null, "e_ij_max": null, "weighted_surface_energy_EV_PER_ANG2": null, "weighted_surface_energy": null, "weighted_work_function": null, "surface_anisotropy": null, "shape_factor": null, "has_reconstructed": null, "possible_species": null, "has_props": null, "theoretical": null, "database_IDs": null, "fields_not_requested": ["builder_meta", "nsites", "elements", "nelements", "composition", "composition_reduced", "chemsys", "symmetry", "property_name", "deprecated", "deprecation_reasons", "last_updated", "origins", "warnings", "task_ids", "uncorrected_energy_per_atom", "equilibrium_reaction_energy_per_atom", "decomposes_to", "xas", "grain_boundaries", "cbm", "vbm", "is_gap_direct", "is_metal", "es_source_calc_id", "bandstructure", "dos", "dos_energy_up", "dos_energy_down", "is_magnetic", "ordering", "total_magnetization_normalized_vol", "total_magnetization_normalized_formula_units", "num_magnetic_sites", "num_unique_magnetic_sites", "types_of_magnetic_species", "bulk_modulus", "shear_modulus", "universal_anisotropy", "homogeneous_poisson", "e_total", "e_ionic", "e_electronic", "n", "e_ij_max", "weighted_surface_energy_EV_PER_ANG2", "weighted_surface_energy", "weighted_work_function", "surface_anisotropy", "shape_factor", "has_reconstructed", "possible_species", "has_props", "theoretical", "database_IDs"]}