{"builder_meta": null, "nsites": null, "elements": null, "nelements": null, "composition": null, "composition_reduced": null, "formula_pretty": "TlN3", "formula_anonymous": "AB3", "chemsys": null, "volume": 140.53352166702985, "density": 5.822987526243125, "density_atomic": 17.56669020837873, "symmetry": null, "property_name": null, "material_id": "mp-870", "deprecated": null, "deprecation_reasons": null, "last_updated": null, "origins": null, "warnings": null, "structure": {"@module": "pymatgen.core.structure", "@class": "Structure", "charge": 0, "lattice": {"matrix": [[5.20836139, 0.0558397, -2.31563048], [-3.02448183, 4.71200446, -1.06855356], [0.03584191, -0.0558397, 5.69981351]], "pbc": [true, true, true], "a": 5.700200957935067, "b": 5.700200266801923, "c": 5.70019971258789, "alpha": 101.4714928319617, "beta": 113.61317821254555, "gamma": 113.61317564955786, "volume": 140.53352166702985}, "properties": {}, "sites": [{"species": [{"element": "Tl", "occu": 1}], "abc": [0.0, 0.75, 0.75], "properties": {"magmom": 0.0}, "label": "Tl", "xyz": [-2.24147994, 3.4921235700000004, 3.4734449625000003]}, {"species": [{"element": "Tl", "occu": 1}], "abc": [0.0, 0.25, 0.25], "properties": {"magmom": 0.0}, "label": "Tl", "xyz": [-0.7471599800000001, 1.16404119, 1.1578149875000001]}, {"species": [{"element": "N", "occu": 1}], "abc": [0.5, 0.86596191, 0.63403809], "properties": {"magmom": -0.0}, "label": "N", "xyz": [0.007819768891256771, 4.072931735375946, 1.5307569494816966]}, {"species": [{"element": "N", "occu": 1}], "abc": [0.76807719, 0.63403809, 0.13403809], "properties": {"magmom": -0.0}, "label": "N", "xyz": [2.087591079361141, 3.0229948610221515, -1.6920944941652554]}, {"species": [{"element": "N", "occu": 1}], "abc": [0.5, -0.0, 0.5], "properties": {"magmom": 0.0}, "label": "N", "xyz": [2.6221016500000003, 0.0, 1.6920915150000002]}, {"species": [{"element": "N", "occu": 1}], "abc": [0.5, 0.5, 0.0], "properties": {"magmom": 0.0}, "label": "N", "xyz": [1.0919397800000001, 2.38392208, -1.69209202]}, {"species": [{"element": "N", "occu": 1}], "abc": [0.5, 0.13403809, 0.36596191], "properties": {"magmom": -0.0}, "label": "N", "xyz": [2.2119017011087436, 0.6390727246240544, 0.7848725205183038]}, {"species": [{"element": "N", "occu": 1}], "abc": [0.23192281, 0.36596191, 0.86596191], "properties": {"magmom": -0.0}, "label": "N", "xyz": [0.13213039063885887, 1.6890095989778486, 4.007723964165256]}]}, "task_ids": null, "uncorrected_energy_per_atom": null, "energy_per_atom": -19.83083430375, "formation_energy_per_atom": 0.310554844687501, "energy_above_hull": 0.310554844687501, "is_stable": false, "equilibrium_reaction_energy_per_atom": null, "decomposes_to": null, "xas": null, "grain_boundaries": null, "band_gap": 1.7584, "cbm": null, "vbm": null, "efermi": 2.23962284, "is_gap_direct": null, "is_metal": null, "es_source_calc_id": null, "bandstructure": null, "dos": null, "dos_energy_up": null, "dos_energy_down": null, "is_magnetic": null, "ordering": null, "total_magnetization": 0.0, "total_magnetization_normalized_vol": null, "total_magnetization_normalized_formula_units": null, "num_magnetic_sites": null, "num_unique_magnetic_sites": null, "types_of_magnetic_species": null, "bulk_modulus": null, "shear_modulus": null, "universal_anisotropy": null, "homogeneous_poisson": null, "e_total": null, "e_ionic": null, "e_electronic": null, "n": null, "e_ij_max": null, "weighted_surface_energy_EV_PER_ANG2": null, "weighted_surface_energy": null, "weighted_work_function": null, "surface_anisotropy": null, "shape_factor": null, "has_reconstructed": null, "possible_species": null, "has_props": null, "theoretical": null, "database_IDs": null, "fields_not_requested": ["builder_meta", "nsites", "elements", "nelements", "composition", "composition_reduced", "chemsys", "symmetry", "property_name", "deprecated", "deprecation_reasons", "last_updated", "origins", "warnings", "task_ids", "uncorrected_energy_per_atom", "equilibrium_reaction_energy_per_atom", "decomposes_to", "xas", "grain_boundaries", "cbm", "vbm", "is_gap_direct", "is_metal", "es_source_calc_id", "bandstructure", "dos", "dos_energy_up", "dos_energy_down", "is_magnetic", "ordering", "total_magnetization_normalized_vol", "total_magnetization_normalized_formula_units", "num_magnetic_sites", "num_unique_magnetic_sites", "types_of_magnetic_species", "bulk_modulus", "shear_modulus", "universal_anisotropy", "homogeneous_poisson", "e_total", "e_ionic", "e_electronic", "n", "e_ij_max", "weighted_surface_energy_EV_PER_ANG2", "weighted_surface_energy", "weighted_work_function", "surface_anisotropy", "shape_factor", "has_reconstructed", "possible_species", "has_props", "theoretical", "database_IDs"]}