{"builder_meta": null, "nsites": null, "elements": null, "nelements": null, "composition": null, "composition_reduced": null, "formula_pretty": "TlO", "formula_anonymous": "AB", "chemsys": null, "volume": 279.829211526612, "density": 10.462212460416705, "density_atomic": 17.48932572041325, "symmetry": null, "property_name": null, "material_id": "mp-1179154", "deprecated": null, "deprecation_reasons": null, "last_updated": null, "origins": null, "warnings": null, "structure": {"@module": "pymatgen.core.structure", "@class": "Structure", "charge": 0, "lattice": {"matrix": [[2.420599, 2.631846, -0.317982999999999], [-2.420599, 2.631846, 0.317982999999999], [-1.94569, 0.0, 22.217993]], "pbc": [true, true, true], "a": 3.589850425129994, "b": 3.589850425129994, "c": 22.303024963536874, "alpha": 81.54313000360793, "beta": 98.45686999639209, "gamma": 85.70023250041415, "volume": 279.829211526612}, "properties": {}, "sites": [{"species": [{"element": "Tl", "occu": 1}], "abc": [0.053097, 0.673061, 0.939337], "properties": {"magmom": -0.0}, "label": "Tl", "xyz": [-3.328342845966, 1.911136027668, 21.067320903253]}, {"species": [{"element": "Tl", "occu": 1}], "abc": [0.673061, 0.053097, 0.060662999999999], "properties": {"magmom": -0.0}, "label": "Tl", "xyz": [1.3826528459660021, 1.911136027668, 1.1506720967469783]}, {"species": [{"element": "Tl", "occu": 1}], "abc": [0.33916, 0.722178, 0.560744], "properties": {"magmom": 0.0}, "label": "Tl", "xyz": [-2.018166981142, 2.793278169948, 12.580399479486]}, {"species": [{"element": "Tl", "occu": 1}], "abc": [0.722178, 0.33916, 0.439256], "properties": {"magmom": 0.0}, "label": "Tl", "xyz": [0.07247698114199996, 2.793278169948, 9.637593520514]}, {"species": [{"element": "Tl", "occu": 1}], "abc": [0.027975999999999, 0.908686999999999, 0.811568], "properties": {"magmom": -0.0}, "label": "Tl", "xyz": [-3.710907907809, 2.465152769897995, 18.311463268936997]}, {"species": [{"element": "Tl", "occu": 1}], "abc": [0.908686999999999, 0.027975999999999, 0.188432], "properties": {"magmom": -0.0}, "label": "Tl", "xyz": [1.7652179078090002, 2.465152769897995, 3.9065297310630007]}, {"species": [{"element": "Tl", "occu": 1}], "abc": [0.41205, 0.5268700000000001, 0.690338], "properties": {"magmom": -0.0}, "label": "Tl", "xyz": [-1.6211169204000002, 2.4710928463200004, 15.374435659693999]}, {"species": [{"element": "Tl", "occu": 1}], "abc": [0.5268700000000001, 0.41205, 0.309662], "properties": {"magmom": -0.0}, "label": "Tl", "xyz": [-0.3245730795999997, 2.4710928463200004, 6.843557340306]}, {"species": [{"element": "O", "occu": 1}], "abc": [0.877111, 0.952267, 0.710526], "properties": {"magmom": -0.0}, "label": "O", "xyz": [-1.5643858713840002, 4.814641171788, 15.810360024666]}, {"species": [{"element": "O", "occu": 1}], "abc": [0.952267, 0.877111, 0.289474], "properties": {"magmom": -0.0}, "label": "O", "xyz": [-0.3813041286159998, 4.814641171788, 6.407632975334001]}, {"species": [{"element": "O", "occu": 1}], "abc": [0.44755000000000006, 0.363102, 0.791349], "properties": {"magmom": 0.0}, "label": "O", "xyz": [-1.3353050914579998, 2.133511223592, 17.555333514173]}, {"species": [{"element": "O", "occu": 1}], "abc": [0.363102, 0.44755000000000006, 0.208651], "properties": {"magmom": 0.0}, "label": "O", "xyz": [-0.6103849085420002, 2.133511223592, 4.6626594858270005]}, {"species": [{"element": "O", "occu": 1}], "abc": [0.758547, 0.179851999999999, 0.540648999999999], "properties": {"magmom": -0.0}, "label": "O", "xyz": [0.3488531854950043, 2.4697216545539975, 11.828120525271979]}, {"species": [{"element": "O", "occu": 1}], "abc": [0.179851999999999, 0.758547, 0.459350999999999], "properties": {"magmom": -0.0}, "label": "O", "xyz": [-2.2945431854950007, 2.4697216545539975, 10.389872474727976]}, {"species": [{"element": "O", "occu": 1}], "abc": [0.640056, 0.219036999999999, 0.959480999999999], "properties": {"magmom": 0.0}, "label": "O", "xyz": [-0.8477344165089957, 2.261000475677997, 21.18386525695598]}, {"species": [{"element": "O", "occu": 1}], "abc": [0.219036999999999, 0.640056, 0.040519], "properties": {"magmom": 0.0}, "label": "O", "xyz": [-1.0979555834910024, 2.261000475677997, 1.034127743044]}]}, "task_ids": null, "uncorrected_energy_per_atom": null, "energy_per_atom": -4.568301405, "formation_energy_per_atom": -0.9085848441666701, "energy_above_hull": 0.09392196583333101, "is_stable": false, "equilibrium_reaction_energy_per_atom": null, "decomposes_to": null, "xas": null, "grain_boundaries": null, "band_gap": 0.0, "cbm": null, "vbm": null, "efermi": 4.7844083, "is_gap_direct": null, "is_metal": null, "es_source_calc_id": null, "bandstructure": null, "dos": null, "dos_energy_up": null, "dos_energy_down": null, "is_magnetic": null, "ordering": null, "total_magnetization": 4.0400000000000006e-05, "total_magnetization_normalized_vol": null, "total_magnetization_normalized_formula_units": null, "num_magnetic_sites": null, "num_unique_magnetic_sites": null, "types_of_magnetic_species": null, "bulk_modulus": null, "shear_modulus": null, "universal_anisotropy": null, "homogeneous_poisson": null, "e_total": null, "e_ionic": null, "e_electronic": null, "n": null, "e_ij_max": null, "weighted_surface_energy_EV_PER_ANG2": null, "weighted_surface_energy": null, "weighted_work_function": null, "surface_anisotropy": null, "shape_factor": null, "has_reconstructed": null, "possible_species": null, "has_props": null, "theoretical": null, "database_IDs": null, "fields_not_requested": ["builder_meta", "nsites", "elements", "nelements", "composition", "composition_reduced", "chemsys", "symmetry", "property_name", "deprecated", "deprecation_reasons", "last_updated", "origins", "warnings", "task_ids", "uncorrected_energy_per_atom", "equilibrium_reaction_energy_per_atom", "decomposes_to", "xas", "grain_boundaries", "cbm", "vbm", "is_gap_direct", "is_metal", "es_source_calc_id", "bandstructure", "dos", "dos_energy_up", "dos_energy_down", "is_magnetic", "ordering", "total_magnetization_normalized_vol", "total_magnetization_normalized_formula_units", "num_magnetic_sites", "num_unique_magnetic_sites", "types_of_magnetic_species", "bulk_modulus", "shear_modulus", "universal_anisotropy", "homogeneous_poisson", "e_total", "e_ionic", "e_electronic", "n", "e_ij_max", "weighted_surface_energy_EV_PER_ANG2", "weighted_surface_energy", "weighted_work_function", "surface_anisotropy", "shape_factor", "has_reconstructed", "possible_species", "has_props", "theoretical", "database_IDs"]}