{"builder_meta": null, "nsites": null, "elements": null, "nelements": null, "composition": null, "composition_reduced": null, "formula_pretty": "TlO2", "formula_anonymous": "AB2", "chemsys": null, "volume": 295.35143482205785, "density": 7.9739929876710995, "density_atomic": 16.40841304566988, "symmetry": null, "property_name": null, "material_id": "mp-1188665", "deprecated": null, "deprecation_reasons": null, "last_updated": null, "origins": null, "warnings": null, "structure": {"@module": "pymatgen.core.structure", "@class": "Structure", "charge": 0, "lattice": {"matrix": [[0.0, 0.0, 3.487469], [4.841922, 0.0, 0.0], [0.0, 17.490851, 0.0]], "pbc": [true, true, true], "a": 3.487469, "b": 4.841922, "c": 17.490851, "alpha": 90.0, "beta": 90.0, "gamma": 90.0, "volume": 295.35143482205785}, "properties": {}, "sites": [{"species": [{"element": "Tl", "occu": 1}], "abc": [0.5, 0.5, 0.5], "properties": {"magmom": 0.009000000000000001}, "label": "Tl", "xyz": [2.420961, 8.7454255, 1.7437345]}, {"species": [{"element": "Tl", "occu": 1}], "abc": [0.0, 0.0, 0.0], "properties": {"magmom": 0.009000000000000001}, "label": "Tl", "xyz": [0.0, 0.0, 0.0]}, {"species": [{"element": "Tl", "occu": 1}], "abc": [0.5, 0.057531, 0.174276], "properties": {"magmom": 0.016}, "label": "Tl", "xyz": [0.278560614582, 3.048235548876, 1.7437345]}, {"species": [{"element": "Tl", "occu": 1}], "abc": [0.5, 0.942469, 0.825724], "properties": {"magmom": 0.016}, "label": "Tl", "xyz": [4.563361385418, 14.442615451124, 1.7437345]}, {"species": [{"element": "Tl", "occu": 1}], "abc": [0.0, 0.557531, 0.325723999999999], "properties": {"magmom": 0.016}, "label": "Tl", "xyz": [2.6995216145820002, 5.697189951123982, 0.0]}, {"species": [{"element": "Tl", "occu": 1}], "abc": [0.0, 0.442469, 0.674276], "properties": {"magmom": 0.016}, "label": "Tl", "xyz": [2.142400385418, 11.793661048875999, 0.0]}, {"species": [{"element": "O", "occu": 1}], "abc": [0.5, 0.6546700000000001, 0.725314999999999], "properties": {"magmom": 0.354}, "label": "O", "xyz": [3.1698610757400005, 12.686376593064983, 1.7437345]}, {"species": [{"element": "O", "occu": 1}], "abc": [0.5, 0.34533, 0.274685], "properties": {"magmom": 0.354}, "label": "O", "xyz": [1.6720609242600002, 4.804474406935, 1.7437345]}, {"species": [{"element": "O", "occu": 1}], "abc": [0.0, 0.15467, 0.774685], "properties": {"magmom": 0.354}, "label": "O", "xyz": [0.7489000757400001, 13.549899906934998, 0.0]}, {"species": [{"element": "O", "occu": 1}], "abc": [0.0, 0.84533, 0.225315], "properties": {"magmom": 0.354}, "label": "O", "xyz": [4.09302192426, 3.940951093065, 0.0]}, {"species": [{"element": "O", "occu": 1}], "abc": [0.5, 0.752087, 0.387273], "properties": {"magmom": 0.438}, "label": "O", "xyz": [3.641546591214, 6.773734339322999, 1.7437345]}, {"species": [{"element": "O", "occu": 1}], "abc": [0.5, 0.247913, 0.612727], "properties": {"magmom": 0.438}, "label": "O", "xyz": [1.2003754087860001, 10.717116660677, 1.7437345]}, {"species": [{"element": "O", "occu": 1}], "abc": [0.0, 0.252087, 0.112727], "properties": {"magmom": 0.438}, "label": "O", "xyz": [1.220585591214, 1.9716911606769998, 0.0]}, {"species": [{"element": "O", "occu": 1}], "abc": [0.0, 0.747912999999999, 0.887273], "properties": {"magmom": 0.438}, "label": "O", "xyz": [3.6213364087859956, 15.519159839322999, 0.0]}, {"species": [{"element": "O", "occu": 1}], "abc": [0.5, 0.804735, 0.059017999999999], "properties": {"magmom": 0.463}, "label": "O", "xyz": [3.8964641006700003, 1.0322750443179824, 1.7437345]}, {"species": [{"element": "O", "occu": 1}], "abc": [0.5, 0.195265, 0.940982], "properties": {"magmom": 0.463}, "label": "O", "xyz": [0.94545789933, 16.458575955681997, 1.7437345]}, {"species": [{"element": "O", "occu": 1}], "abc": [0.0, 0.304735, 0.440982], "properties": {"magmom": 0.463}, "label": "O", "xyz": [1.47550310067, 7.713150455681999, 0.0]}, {"species": [{"element": "O", "occu": 1}], "abc": [0.0, 0.695265, 0.559018], "properties": {"magmom": 0.463}, "label": "O", "xyz": [3.36641889933, 9.777700544318, 0.0]}]}, "task_ids": null, "uncorrected_energy_per_atom": null, "energy_per_atom": -4.657210818888888, "formation_energy_per_atom": -0.568079443333335, "energy_above_hull": 0.34895164611111, "is_stable": false, "equilibrium_reaction_energy_per_atom": null, "decomposes_to": null, "xas": null, "grain_boundaries": null, "band_gap": 0.0, "cbm": null, "vbm": null, "efermi": 2.01962756, "is_gap_direct": null, "is_metal": null, "es_source_calc_id": null, "bandstructure": null, "dos": null, "dos_energy_up": null, "dos_energy_down": null, "is_magnetic": null, "ordering": null, "total_magnetization": 6.0030333, "total_magnetization_normalized_vol": null, "total_magnetization_normalized_formula_units": null, "num_magnetic_sites": null, "num_unique_magnetic_sites": null, "types_of_magnetic_species": null, "bulk_modulus": null, "shear_modulus": null, "universal_anisotropy": null, "homogeneous_poisson": null, "e_total": null, "e_ionic": null, "e_electronic": null, "n": null, "e_ij_max": null, "weighted_surface_energy_EV_PER_ANG2": null, "weighted_surface_energy": null, "weighted_work_function": null, "surface_anisotropy": null, "shape_factor": null, "has_reconstructed": null, "possible_species": null, "has_props": null, "theoretical": null, "database_IDs": null, "fields_not_requested": ["builder_meta", "nsites", "elements", "nelements", "composition", "composition_reduced", "chemsys", "symmetry", "property_name", "deprecated", "deprecation_reasons", "last_updated", "origins", "warnings", "task_ids", "uncorrected_energy_per_atom", "equilibrium_reaction_energy_per_atom", "decomposes_to", "xas", "grain_boundaries", "cbm", "vbm", "is_gap_direct", "is_metal", "es_source_calc_id", "bandstructure", "dos", "dos_energy_up", "dos_energy_down", "is_magnetic", "ordering", "total_magnetization_normalized_vol", "total_magnetization_normalized_formula_units", "num_magnetic_sites", "num_unique_magnetic_sites", "types_of_magnetic_species", "bulk_modulus", "shear_modulus", "universal_anisotropy", "homogeneous_poisson", "e_total", "e_ionic", "e_electronic", "n", "e_ij_max", "weighted_surface_energy_EV_PER_ANG2", "weighted_surface_energy", "weighted_work_function", "surface_anisotropy", "shape_factor", "has_reconstructed", "possible_species", "has_props", "theoretical", "database_IDs"]}