{
  "builder_meta": null,
  "nsites": null,
  "elements": null,
  "nelements": null,
  "composition": null,
  "composition_reduced": null,
  "formula_pretty": "TlP3",
  "formula_anonymous": "AB3",
  "chemsys": null,
  "volume": 95.56903655073725,
  "density": 5.165751351592242,
  "density_atomic": 23.892259137684313,
  "symmetry": null,
  "property_name": null,
  "material_id": "mp-1216583",
  "deprecated": null,
  "deprecation_reasons": null,
  "last_updated": null,
  "origins": null,
  "warnings": null,
  "structure": {
    "@module": "pymatgen.core.structure",
    "@class": "Structure",
    "charge": 0,
    "lattice": {
      "matrix": [
        [-3.051481, -3.051481, 0.0],
        [0.0, 3.051481, -3.051481],
        [2.404009, -2.404009, -5.455491]
      ],
      "pbc": [true, true, true],
      "a": 4.315445815523814,
      "b": 4.315445815523814,
      "c": 6.4281335234454335,
      "alpha": 70.38678992611605,
      "beta": 90.0,
      "gamma": 120.00000000000001,
      "volume": 95.56903655073725
    },
    "properties": {},
    "sites": [
      {
        "species": [{ "element": "Tl", "occu": 1 }],
        "abc": [0.873142, 0.746284, 0.380573999999999],
        "properties": { "magmom": 0.0 },
        "label": "Tl",
        "xyz": [-1.7494729021360023, -1.3020080978639976, -4.353489478437995]
      },
      {
        "species": [{ "element": "P", "occu": 1 }],
        "abc": [0.365794, 0.731588999999999, 0.902617],
        "properties": { "magmom": -0.001 },
        "label": "P",
        "xyz": [1.053685950639, -1.0536828991580027, -7.156648853255997]
      },
      {
        "species": [{ "element": "P", "occu": 1 }],
        "abc": [0.022233, 0.044466, 0.933302],
        "properties": { "magmom": -0.0 },
        "label": "P",
        "xyz": [2.175822830645, -2.175822830645, -5.227307815428]
      },
      {
        "species": [{ "element": "P", "occu": 1 }],
        "abc": [0.488830999999999, 0.977661999999999, 0.533507],
        "properties": { "magmom": 0.0 },
        "label": "P",
        "xyz": [-0.2091028791479972, 0.20910287914799985, -5.893859654358996]
      }
    ]
  },
  "task_ids": null,
  "uncorrected_energy_per_atom": null,
  "energy_per_atom": -19.77637274683334,
  "formation_energy_per_atom": 0.27001063218451904,
  "energy_above_hull": 0.30990313141666403,
  "is_stable": false,
  "equilibrium_reaction_energy_per_atom": null,
  "decomposes_to": null,
  "xas": null,
  "grain_boundaries": null,
  "band_gap": 0.0,
  "cbm": null,
  "vbm": null,
  "efermi": 5.66929662,
  "is_gap_direct": null,
  "is_metal": null,
  "es_source_calc_id": null,
  "bandstructure": null,
  "dos": null,
  "dos_energy_up": null,
  "dos_energy_down": null,
  "is_magnetic": null,
  "ordering": null,
  "total_magnetization": 0.0024678,
  "total_magnetization_normalized_vol": null,
  "total_magnetization_normalized_formula_units": null,
  "num_magnetic_sites": null,
  "num_unique_magnetic_sites": null,
  "types_of_magnetic_species": null,
  "bulk_modulus": null,
  "shear_modulus": null,
  "universal_anisotropy": null,
  "homogeneous_poisson": null,
  "e_total": null,
  "e_ionic": null,
  "e_electronic": null,
  "n": null,
  "e_ij_max": null,
  "weighted_surface_energy_EV_PER_ANG2": null,
  "weighted_surface_energy": null,
  "weighted_work_function": null,
  "surface_anisotropy": null,
  "shape_factor": null,
  "has_reconstructed": null,
  "possible_species": null,
  "has_props": null,
  "theoretical": null,
  "database_IDs": null,
  "fields_not_requested": [
    "builder_meta",
    "nsites",
    "elements",
    "nelements",
    "composition",
    "composition_reduced",
    "chemsys",
    "symmetry",
    "property_name",
    "deprecated",
    "deprecation_reasons",
    "last_updated",
    "origins",
    "warnings",
    "task_ids",
    "uncorrected_energy_per_atom",
    "equilibrium_reaction_energy_per_atom",
    "decomposes_to",
    "xas",
    "grain_boundaries",
    "cbm",
    "vbm",
    "is_gap_direct",
    "is_metal",
    "es_source_calc_id",
    "bandstructure",
    "dos",
    "dos_energy_up",
    "dos_energy_down",
    "is_magnetic",
    "ordering",
    "total_magnetization_normalized_vol",
    "total_magnetization_normalized_formula_units",
    "num_magnetic_sites",
    "num_unique_magnetic_sites",
    "types_of_magnetic_species",
    "bulk_modulus",
    "shear_modulus",
    "universal_anisotropy",
    "homogeneous_poisson",
    "e_total",
    "e_ionic",
    "e_electronic",
    "n",
    "e_ij_max",
    "weighted_surface_energy_EV_PER_ANG2",
    "weighted_surface_energy",
    "weighted_work_function",
    "surface_anisotropy",
    "shape_factor",
    "has_reconstructed",
    "possible_species",
    "has_props",
    "theoretical",
    "database_IDs"
  ]
}
