{
  "builder_meta": null,
  "nsites": null,
  "elements": null,
  "nelements": null,
  "composition": null,
  "composition_reduced": null,
  "formula_pretty": "TlP5",
  "formula_anonymous": "AB5",
  "chemsys": null,
  "volume": 569.8793408909415,
  "density": 4.187217332573166,
  "density_atomic": 23.744972537122564,
  "symmetry": null,
  "property_name": null,
  "material_id": "mp-27411",
  "deprecated": null,
  "deprecation_reasons": null,
  "last_updated": null,
  "origins": null,
  "warnings": null,
  "structure": {
    "@module": "pymatgen.core.structure",
    "@class": "Structure",
    "charge": 0,
    "lattice": {
      "matrix": [
        [6.49947006, 0.0, 0.0],
        [0.0, 7.1253407, 0.0],
        [0.0, 0.0, 12.30550187]
      ],
      "pbc": [true, true, true],
      "a": 6.49947006,
      "b": 7.1253407,
      "c": 12.30550187,
      "alpha": 90.0,
      "beta": 90.0,
      "gamma": 90.0,
      "volume": 569.8793408909415
    },
    "properties": {},
    "sites": [
      {
        "species": [{ "element": "Tl", "occu": 1 }],
        "abc": [0.5, 0.02663801, 0.3415992],
        "properties": { "magmom": -0.0 },
        "label": "Tl",
        "xyz": [3.24973503, 0.189804896820007, 4.203549594390504]
      },
      {
        "species": [{ "element": "Tl", "occu": 1 }],
        "abc": [0.5, 0.97336199, 0.8415992],
        "properties": { "magmom": -0.0 },
        "label": "Tl",
        "xyz": [3.24973503, 6.9355358031799925, 10.356300529390504]
      },
      {
        "species": [{ "element": "Tl", "occu": 1 }],
        "abc": [0.0, 0.77707763, 0.50081735],
        "properties": { "magmom": 0.0 },
        "label": "Tl",
        "xyz": [0.0, 5.536942864098541, 6.162808836953445]
      },
      {
        "species": [{ "element": "Tl", "occu": 1 }],
        "abc": [0.0, 0.22292237, 0.00081735],
        "properties": { "magmom": 0.0 },
        "label": "Tl",
        "xyz": [0.0, 1.588397835901459, 0.0100579019534445]
      },
      {
        "species": [{ "element": "P", "occu": 1 }],
        "abc": [0.5, 0.3541453, 0.04326262],
        "properties": { "magmom": 0.0 },
        "label": "P",
        "xyz": [3.24973503, 2.52340591980371, 0.5323682513110994]
      },
      {
        "species": [{ "element": "P", "occu": 1 }],
        "abc": [0.5, 0.6458547, 0.54326262],
        "properties": { "magmom": 0.0 },
        "label": "P",
        "xyz": [3.24973503, 4.60193478019629, 6.6851191863111]
      },
      {
        "species": [{ "element": "P", "occu": 1 }],
        "abc": [0.5, 0.38904789, 0.21579957],
        "properties": { "magmom": -0.0 },
        "label": "P",
        "xyz": [3.24973503, 2.772098764866123, 2.655522012180196]
      },
      {
        "species": [{ "element": "P", "occu": 1 }],
        "abc": [0.5, 0.61095211, 0.71579957],
        "properties": { "magmom": -0.0 },
        "label": "P",
        "xyz": [3.24973503, 4.353241935133878, 8.808272947180196]
      },
      {
        "species": [{ "element": "P", "occu": 1 }],
        "abc": [0.25001412, 0.22569294, 0.60994425],
        "properties": { "magmom": 0.0 },
        "label": "P",
        "xyz": [1.6249592875172474, 1.608139091084658, 7.505670108970747]
      },
      {
        "species": [{ "element": "P", "occu": 1 }],
        "abc": [0.74998588, 0.77430706, 0.10994425000000001],
        "properties": { "magmom": 0.0 },
        "label": "P",
        "xyz": [4.874510772482753, 5.517201608915342, 1.3529191739707476]
      },
      {
        "species": [{ "element": "P", "occu": 1 }],
        "abc": [0.74998588, 0.22569294, 0.60994425],
        "properties": { "magmom": 0.0 },
        "label": "P",
        "xyz": [4.874510772482753, 1.608139091084658, 7.505670108970747]
      },
      {
        "species": [{ "element": "P", "occu": 1 }],
        "abc": [0.25001412, 0.77430706, 0.10994425000000001],
        "properties": { "magmom": 0.0 },
        "label": "P",
        "xyz": [1.6249592875172474, 5.517201608915342, 1.3529191739707476]
      },
      {
        "species": [{ "element": "P", "occu": 1 }],
        "abc": [0.25340694, 0.41104272000000003, 0.75930182],
        "properties": { "magmom": 0.0 },
        "label": "P",
        "xyz": [1.6470108195262165, 2.928819422254704, 9.343589965904403]
      },
      {
        "species": [{ "element": "P", "occu": 1 }],
        "abc": [0.74659306, 0.58895728, 0.25930182],
        "properties": { "magmom": 0.0 },
        "label": "P",
        "xyz": [4.852459240473784, 4.196521277745296, 3.190839030904404]
      },
      {
        "species": [{ "element": "P", "occu": 1 }],
        "abc": [0.74659306, 0.41104272000000003, 0.75930182],
        "properties": { "magmom": 0.0 },
        "label": "P",
        "xyz": [4.852459240473784, 2.928819422254704, 9.343589965904403]
      },
      {
        "species": [{ "element": "P", "occu": 1 }],
        "abc": [0.25340694, 0.58895728, 0.25930182],
        "properties": { "magmom": 0.0 },
        "label": "P",
        "xyz": [1.6470108195262165, 4.196521277745296, 3.190839030904404]
      },
      {
        "species": [{ "element": "P", "occu": 1 }],
        "abc": [0.0, 0.61385212, 0.73013925],
        "properties": { "magmom": -0.0 },
        "label": "P",
        "xyz": [0.0, 4.373905494417284, 8.984729906235398]
      },
      {
        "species": [{ "element": "P", "occu": 1 }],
        "abc": [0.0, 0.38614788, 0.23013925000000002],
        "properties": { "magmom": -0.0 },
        "label": "P",
        "xyz": [0.0, 2.751435205582716, 2.8319789712353978]
      },
      {
        "species": [{ "element": "P", "occu": 1 }],
        "abc": [0.0, 0.81722275, 0.86077185],
        "properties": { "magmom": -0.0 },
        "label": "P",
        "xyz": [0.0, 5.822990521540925, 10.59222960981836]
      },
      {
        "species": [{ "element": "P", "occu": 1 }],
        "abc": [0.0, 0.18277725, 0.36077185],
        "properties": { "magmom": -0.0 },
        "label": "P",
        "xyz": [0.0, 1.302350178459075, 4.43947867481836]
      },
      {
        "species": [{ "element": "P", "occu": 1 }],
        "abc": [0.0, 0.64803319, 0.008938999999999],
        "properties": { "magmom": -0.0 },
        "label": "P",
        "xyz": [0.0, 4.617457263657833, 0.1099988812159177]
      },
      {
        "species": [{ "element": "P", "occu": 1 }],
        "abc": [0.0, 0.35196681, 0.508939],
        "properties": { "magmom": -0.0 },
        "label": "P",
        "xyz": [0.0, 2.507883436342167, 6.262749816215931]
      },
      {
        "species": [{ "element": "P", "occu": 1 }],
        "abc": [0.5, 0.34783099, 0.5118810500000001],
        "properties": { "magmom": -0.0 },
        "label": "P",
        "xyz": [3.24973503, 2.478414309768293, 6.2989532179925645]
      },
      {
        "species": [{ "element": "P", "occu": 1 }],
        "abc": [0.5, 0.65216901, 0.01188105],
        "properties": { "magmom": -0.0 },
        "label": "P",
        "xyz": [3.24973503, 4.646926390231707, 0.14620228299256352]
      }
    ]
  },
  "task_ids": null,
  "uncorrected_energy_per_atom": null,
  "energy_per_atom": -16.409272689166666,
  "formation_energy_per_atom": -0.044324999146825,
  "energy_above_hull": 0.0,
  "is_stable": true,
  "equilibrium_reaction_energy_per_atom": null,
  "decomposes_to": null,
  "xas": null,
  "grain_boundaries": null,
  "band_gap": 1.184899999999999,
  "cbm": null,
  "vbm": null,
  "efermi": 4.11295633,
  "is_gap_direct": null,
  "is_metal": null,
  "es_source_calc_id": null,
  "bandstructure": null,
  "dos": null,
  "dos_energy_up": null,
  "dos_energy_down": null,
  "is_magnetic": null,
  "ordering": null,
  "total_magnetization": 0.0,
  "total_magnetization_normalized_vol": null,
  "total_magnetization_normalized_formula_units": null,
  "num_magnetic_sites": null,
  "num_unique_magnetic_sites": null,
  "types_of_magnetic_species": null,
  "bulk_modulus": null,
  "shear_modulus": null,
  "universal_anisotropy": null,
  "homogeneous_poisson": null,
  "e_total": null,
  "e_ionic": null,
  "e_electronic": null,
  "n": null,
  "e_ij_max": null,
  "weighted_surface_energy_EV_PER_ANG2": null,
  "weighted_surface_energy": null,
  "weighted_work_function": null,
  "surface_anisotropy": null,
  "shape_factor": null,
  "has_reconstructed": null,
  "possible_species": null,
  "has_props": null,
  "theoretical": null,
  "database_IDs": null,
  "fields_not_requested": [
    "builder_meta",
    "nsites",
    "elements",
    "nelements",
    "composition",
    "composition_reduced",
    "chemsys",
    "symmetry",
    "property_name",
    "deprecated",
    "deprecation_reasons",
    "last_updated",
    "origins",
    "warnings",
    "task_ids",
    "uncorrected_energy_per_atom",
    "equilibrium_reaction_energy_per_atom",
    "decomposes_to",
    "xas",
    "grain_boundaries",
    "cbm",
    "vbm",
    "is_gap_direct",
    "is_metal",
    "es_source_calc_id",
    "bandstructure",
    "dos",
    "dos_energy_up",
    "dos_energy_down",
    "is_magnetic",
    "ordering",
    "total_magnetization_normalized_vol",
    "total_magnetization_normalized_formula_units",
    "num_magnetic_sites",
    "num_unique_magnetic_sites",
    "types_of_magnetic_species",
    "bulk_modulus",
    "shear_modulus",
    "universal_anisotropy",
    "homogeneous_poisson",
    "e_total",
    "e_ionic",
    "e_electronic",
    "n",
    "e_ij_max",
    "weighted_surface_energy_EV_PER_ANG2",
    "weighted_surface_energy",
    "weighted_work_function",
    "surface_anisotropy",
    "shape_factor",
    "has_reconstructed",
    "possible_species",
    "has_props",
    "theoretical",
    "database_IDs"
  ]
}
