{
  "builder_meta": null,
  "nsites": null,
  "elements": null,
  "nelements": null,
  "composition": null,
  "composition_reduced": null,
  "formula_pretty": "TlPd3",
  "formula_anonymous": "AB3",
  "chemsys": null,
  "volume": 132.8760230813203,
  "density": 13.087841379496885,
  "density_atomic": 16.60950288516504,
  "symmetry": null,
  "property_name": null,
  "material_id": "mp-1079938",
  "deprecated": null,
  "deprecation_reasons": null,
  "last_updated": null,
  "origins": null,
  "warnings": null,
  "structure": {
    "@module": "pymatgen.core.structure",
    "@class": "Structure",
    "charge": 0,
    "lattice": {
      "matrix": [
        [4.14530124, -0.00060884, -0.0002264],
        [-0.00060884, 4.14530122, -0.00022639],
        [-2.07276791, -2.07276788, 7.73298482]
      ],
      "pbc": [true, true, true],
      "a": 4.1453012908941425,
      "b": 4.145301270893597,
      "c": 8.269932751808561,
      "alpha": 104.51617310259337,
      "beta": 104.5161734508252,
      "gamma": 90.01683043324994,
      "volume": 132.8760230813203
    },
    "properties": {},
    "sites": [
      {
        "species": [{ "element": "Tl", "occu": 1 }],
        "abc": [0.87469842, 0.87469842, 0.74935178],
        "properties": { "magmom": 0.0 },
        "label": "Tl",
        "xyz": [2.0721235707806285, 2.072123575767214, 5.794329884882388]
      },
      {
        "species": [{ "element": "Tl", "occu": 1 }],
        "abc": [0.12530158, 0.12530159, 0.25064822000000003],
        "properties": { "magmom": 0.0 },
        "label": "Tl",
        "xyz": [
          -0.00019908078671670992, -0.0001990343142010964, 1.9382021451153486
        ]
      },
      {
        "species": [{ "element": "Pd", "occu": 1 }],
        "abc": [0.5, -0.0, -0.0],
        "properties": { "magmom": -0.0 },
        "label": "Pd",
        "xyz": [2.07265062, -0.00030442, -0.0001132]
      },
      {
        "species": [{ "element": "Pd", "occu": 1 }],
        "abc": [-0.0, 0.5, -0.0],
        "properties": { "magmom": -0.0 },
        "label": "Pd",
        "xyz": [-0.00030442, 2.07265061, -0.000113195]
      },
      {
        "species": [{ "element": "Pd", "occu": 1 }],
        "abc": [0.24999506000000002, 0.7500049400000001, 0.5],
        "properties": { "magmom": -0.0 },
        "label": "Pd",
        "xyz": [-0.0005357557957950121, 2.072460245795697, 3.86626601750005]
      },
      {
        "species": [{ "element": "Pd", "occu": 1 }],
        "abc": [0.7500049400000001, 0.24999507, 0.5],
        "properties": { "magmom": -0.0 },
        "label": "Pd",
        "xyz": [2.0724602457897072, -0.000535704342683907, 3.866266012497687]
      },
      {
        "species": [{ "element": "Pd", "occu": 1 }],
        "abc": [0.62572826, 0.62572825, 0.25145331],
        "properties": { "magmom": -0.0 },
        "label": "Pd",
        "xyz": [2.0722468118620307, 2.072246765431964, 1.9442013056721725]
      },
      {
        "species": [{ "element": "Pd", "occu": 1 }],
        "abc": [0.37427174, 0.37427174, 0.7485466900000001],
        "properties": { "magmom": -0.0 },
        "label": "Pd",
        "xyz": [
          -0.00032232185594205376, -0.0003223068849758093, 5.788330724330092
        ]
      }
    ]
  },
  "task_ids": null,
  "uncorrected_energy_per_atom": null,
  "energy_per_atom": -30.75225766125,
  "formation_energy_per_atom": -0.237091308749995,
  "energy_above_hull": 0.0,
  "is_stable": true,
  "equilibrium_reaction_energy_per_atom": null,
  "decomposes_to": null,
  "xas": null,
  "grain_boundaries": null,
  "band_gap": 0.0,
  "cbm": null,
  "vbm": null,
  "efermi": 5.56072192,
  "is_gap_direct": null,
  "is_metal": null,
  "es_source_calc_id": null,
  "bandstructure": null,
  "dos": null,
  "dos_energy_up": null,
  "dos_energy_down": null,
  "is_magnetic": null,
  "ordering": null,
  "total_magnetization": 1e-7,
  "total_magnetization_normalized_vol": null,
  "total_magnetization_normalized_formula_units": null,
  "num_magnetic_sites": null,
  "num_unique_magnetic_sites": null,
  "types_of_magnetic_species": null,
  "bulk_modulus": null,
  "shear_modulus": null,
  "universal_anisotropy": null,
  "homogeneous_poisson": null,
  "e_total": null,
  "e_ionic": null,
  "e_electronic": null,
  "n": null,
  "e_ij_max": null,
  "weighted_surface_energy_EV_PER_ANG2": null,
  "weighted_surface_energy": null,
  "weighted_work_function": null,
  "surface_anisotropy": null,
  "shape_factor": null,
  "has_reconstructed": null,
  "possible_species": null,
  "has_props": null,
  "theoretical": null,
  "database_IDs": null,
  "fields_not_requested": [
    "builder_meta",
    "nsites",
    "elements",
    "nelements",
    "composition",
    "composition_reduced",
    "chemsys",
    "symmetry",
    "property_name",
    "deprecated",
    "deprecation_reasons",
    "last_updated",
    "origins",
    "warnings",
    "task_ids",
    "uncorrected_energy_per_atom",
    "equilibrium_reaction_energy_per_atom",
    "decomposes_to",
    "xas",
    "grain_boundaries",
    "cbm",
    "vbm",
    "is_gap_direct",
    "is_metal",
    "es_source_calc_id",
    "bandstructure",
    "dos",
    "dos_energy_up",
    "dos_energy_down",
    "is_magnetic",
    "ordering",
    "total_magnetization_normalized_vol",
    "total_magnetization_normalized_formula_units",
    "num_magnetic_sites",
    "num_unique_magnetic_sites",
    "types_of_magnetic_species",
    "bulk_modulus",
    "shear_modulus",
    "universal_anisotropy",
    "homogeneous_poisson",
    "e_total",
    "e_ionic",
    "e_electronic",
    "n",
    "e_ij_max",
    "weighted_surface_energy_EV_PER_ANG2",
    "weighted_surface_energy",
    "weighted_work_function",
    "surface_anisotropy",
    "shape_factor",
    "has_reconstructed",
    "possible_species",
    "has_props",
    "theoretical",
    "database_IDs"
  ]
}
