{"builder_meta": null, "nsites": null, "elements": null, "nelements": null, "composition": null, "composition_reduced": null, "formula_pretty": "TlPd2", "formula_anonymous": "AB2", "chemsys": null, "volume": 214.8090284676247, "density": 12.901051582199964, "density_atomic": 17.90075237230206, "symmetry": null, "property_name": null, "material_id": "mp-1101944", "deprecated": null, "deprecation_reasons": null, "last_updated": null, "origins": null, "warnings": null, "structure": {"@module": "pymatgen.core.structure", "@class": "Structure", "charge": 0, "lattice": {"matrix": [[0.0, -4.26706, 0.0], [-5.8535900000000005, 0.0, 0.0], [0.0, 0.0, -8.60006]], "pbc": [true, true, true], "a": 4.26706, "b": 5.8535900000000005, "c": 8.60006, "alpha": 90.0, "beta": 90.0, "gamma": 90.0, "volume": 214.80902846762473}, "properties": {}, "sites": [{"species": [{"element": "Tl", "occu": 1}], "abc": [0.75, 0.67847, 0.897874], "properties": {"magmom": -0.0}, "label": "Tl", "xyz": [-3.9714852073000007, -3.2002949999999997, -7.721770272439999]}, {"species": [{"element": "Tl", "occu": 1}], "abc": [0.75, 0.17847000000000002, 0.602125999999999], "properties": {"magmom": 0.0}, "label": "Tl", "xyz": [-1.0446902073000002, -3.2002949999999997, -5.178319727559991]}, {"species": [{"element": "Tl", "occu": 1}], "abc": [0.25, 0.32153000000000004, 0.102126], "properties": {"magmom": 0.0}, "label": "Tl", "xyz": [-1.8821047927000003, -1.066765, -0.8782897275599999]}, {"species": [{"element": "Tl", "occu": 1}], "abc": [0.25, 0.8215300000000001, 0.397874], "properties": {"magmom": -0.0}, "label": "Tl", "xyz": [-4.808899792700001, -1.066765, -3.4217402724399997]}, {"species": [{"element": "Pd", "occu": 1}], "abc": [0.75, 0.656982, 0.572036], "properties": {"magmom": -0.0}, "label": "Pd", "xyz": [-3.84570326538, -3.2002949999999997, -4.919543922159999]}, {"species": [{"element": "Pd", "occu": 1}], "abc": [0.75, 0.156981999999999, 0.927964], "properties": {"magmom": 0.0}, "label": "Pd", "xyz": [-0.9189082653799943, -3.2002949999999997, -7.98054607784]}, {"species": [{"element": "Pd", "occu": 1}], "abc": [0.25, 0.343018, 0.427963999999999], "properties": {"magmom": 0.0}, "label": "Pd", "xyz": [-2.00788673462, -1.066765, -3.6805160778399912]}, {"species": [{"element": "Pd", "occu": 1}], "abc": [0.25, 0.843017999999999, 0.072036], "properties": {"magmom": -0.0}, "label": "Pd", "xyz": [-4.9346817346199945, -1.066765, -0.61951392216]}, {"species": [{"element": "Pd", "occu": 1}], "abc": [0.75, 0.569479, 0.234223], "properties": {"magmom": 0.0}, "label": "Pd", "xyz": [-3.3334965796100002, -3.2002949999999997, -2.01433185338]}, {"species": [{"element": "Pd", "occu": 1}], "abc": [0.75, 0.069479, 0.265777], "properties": {"magmom": -0.0}, "label": "Pd", "xyz": [-0.40670157961000003, -3.2002949999999997, -2.2856981466199997]}, {"species": [{"element": "Pd", "occu": 1}], "abc": [0.25, 0.430521, 0.765776999999999], "properties": {"magmom": 0.0}, "label": "Pd", "xyz": [-2.5200934203900003, -1.066765, -6.585728146619991]}, {"species": [{"element": "Pd", "occu": 1}], "abc": [0.25, 0.930520999999999, 0.734223], "properties": {"magmom": -0.0}, "label": "Pd", "xyz": [-5.446888420389995, -1.066765, -6.3143618533799994]}]}, "task_ids": null, "uncorrected_energy_per_atom": null, "energy_per_atom": -33.262617992380946, "formation_energy_per_atom": -0.22921405904760603, "energy_above_hull": 0.0071796882142860004, "is_stable": false, "equilibrium_reaction_energy_per_atom": null, "decomposes_to": null, "xas": null, "grain_boundaries": null, "band_gap": 0.0, "cbm": null, "vbm": null, "efermi": 6.37899812, "is_gap_direct": null, "is_metal": null, "es_source_calc_id": null, "bandstructure": null, "dos": null, "dos_energy_up": null, "dos_energy_down": null, "is_magnetic": null, "ordering": null, "total_magnetization": 4e-06, "total_magnetization_normalized_vol": null, "total_magnetization_normalized_formula_units": null, "num_magnetic_sites": null, "num_unique_magnetic_sites": null, "types_of_magnetic_species": null, "bulk_modulus": null, "shear_modulus": null, "universal_anisotropy": null, "homogeneous_poisson": null, "e_total": null, "e_ionic": null, "e_electronic": null, "n": null, "e_ij_max": null, "weighted_surface_energy_EV_PER_ANG2": null, "weighted_surface_energy": null, "weighted_work_function": null, "surface_anisotropy": null, "shape_factor": null, "has_reconstructed": null, "possible_species": null, "has_props": null, "theoretical": null, "database_IDs": null, "fields_not_requested": ["builder_meta", "nsites", "elements", "nelements", "composition", "composition_reduced", "chemsys", "symmetry", "property_name", "deprecated", "deprecation_reasons", "last_updated", "origins", "warnings", "task_ids", "uncorrected_energy_per_atom", "equilibrium_reaction_energy_per_atom", "decomposes_to", "xas", "grain_boundaries", "cbm", "vbm", "is_gap_direct", "is_metal", "es_source_calc_id", "bandstructure", "dos", "dos_energy_up", "dos_energy_down", "is_magnetic", "ordering", "total_magnetization_normalized_vol", "total_magnetization_normalized_formula_units", "num_magnetic_sites", "num_unique_magnetic_sites", "types_of_magnetic_species", "bulk_modulus", "shear_modulus", "universal_anisotropy", "homogeneous_poisson", "e_total", "e_ionic", "e_electronic", "n", "e_ij_max", "weighted_surface_energy_EV_PER_ANG2", "weighted_surface_energy", "weighted_work_function", "surface_anisotropy", "shape_factor", "has_reconstructed", "possible_species", "has_props", "theoretical", "database_IDs"]}