{
  "builder_meta": null,
  "nsites": null,
  "elements": null,
  "nelements": null,
  "composition": null,
  "composition_reduced": null,
  "formula_pretty": "TlRh3",
  "formula_anonymous": "AB3",
  "chemsys": null,
  "volume": 129.16399516257502,
  "density": 13.192875644520448,
  "density_atomic": 16.145499395321878,
  "symmetry": null,
  "property_name": null,
  "material_id": "mp-1187540",
  "deprecated": null,
  "deprecation_reasons": null,
  "last_updated": null,
  "origins": null,
  "warnings": null,
  "structure": {
    "@module": "pymatgen.core.structure",
    "@class": "Structure",
    "charge": 0,
    "lattice": {
      "matrix": [
        [2.855985999999999, -4.946712, 0.0],
        [2.855985999999999, 4.946712, 0.0],
        [0.0, 0.0, 4.57129]
      ],
      "pbc": [true, true, true],
      "a": 5.711971257205343,
      "b": 5.711971257205343,
      "c": 4.57129,
      "alpha": 90.0,
      "beta": 90.0,
      "gamma": 119.99999139650788,
      "volume": 129.16399516257496
    },
    "properties": {},
    "sites": [
      {
        "species": [{ "element": "Tl", "occu": 1 }],
        "abc": [0.333333, 0.666667, 0.75],
        "properties": { "magmom": 0.0 },
        "label": "Tl",
        "xyz": [2.855985999999999, 1.648907297808, 3.4284675]
      },
      {
        "species": [{ "element": "Tl", "occu": 1 }],
        "abc": [0.666667, 0.333333, 0.25],
        "properties": { "magmom": -0.0 },
        "label": "Tl",
        "xyz": [2.855985999999999, -1.648907297808, 1.1428225]
      },
      {
        "species": [{ "element": "Rh", "occu": 1 }],
        "abc": [0.160467, 0.320934999999999, 0.25],
        "properties": { "magmom": 0.0 },
        "label": "Rh",
        "xyz": [1.3748773723719967, 0.7937889812159953, 1.1428225]
      },
      {
        "species": [{ "element": "Rh", "occu": 1 }],
        "abc": [0.679064999999999, 0.839533, 0.25],
        "properties": { "magmom": -0.0 },
        "label": "Rh",
        "xyz": [4.337094627627995, 0.7937889812160046, 1.1428225]
      },
      {
        "species": [{ "element": "Rh", "occu": 1 }],
        "abc": [0.160467, 0.839533, 0.25],
        "properties": { "magmom": 0.0 },
        "label": "Rh",
        "xyz": [2.855985999999999, 3.3591439309919995, 1.1428225]
      },
      {
        "species": [{ "element": "Rh", "occu": 1 }],
        "abc": [0.839533, 0.679064999999999, 0.75],
        "properties": { "magmom": 0.0 },
        "label": "Rh",
        "xyz": [4.337094627627995, -0.7937889812160046, 3.4284675]
      },
      {
        "species": [{ "element": "Rh", "occu": 1 }],
        "abc": [0.320934999999999, 0.160467, 0.75],
        "properties": { "magmom": -0.0 },
        "label": "Rh",
        "xyz": [1.3748773723719967, -0.7937889812159953, 3.4284675]
      },
      {
        "species": [{ "element": "Rh", "occu": 1 }],
        "abc": [0.839533, 0.160467, 0.75],
        "properties": { "magmom": 0.0 },
        "label": "Rh",
        "xyz": [2.855985999999999, -3.3591439309919995, 3.4284675]
      }
    ]
  },
  "task_ids": null,
  "uncorrected_energy_per_atom": null,
  "energy_per_atom": -31.25129800958333,
  "formation_energy_per_atom": 0.145699607916668,
  "energy_above_hull": 0.145699607916668,
  "is_stable": false,
  "equilibrium_reaction_energy_per_atom": null,
  "decomposes_to": null,
  "xas": null,
  "grain_boundaries": null,
  "band_gap": 0.0,
  "cbm": null,
  "vbm": null,
  "efermi": 7.38533044,
  "is_gap_direct": null,
  "is_metal": null,
  "es_source_calc_id": null,
  "bandstructure": null,
  "dos": null,
  "dos_energy_up": null,
  "dos_energy_down": null,
  "is_magnetic": null,
  "ordering": null,
  "total_magnetization": 0.0013185,
  "total_magnetization_normalized_vol": null,
  "total_magnetization_normalized_formula_units": null,
  "num_magnetic_sites": null,
  "num_unique_magnetic_sites": null,
  "types_of_magnetic_species": null,
  "bulk_modulus": null,
  "shear_modulus": null,
  "universal_anisotropy": null,
  "homogeneous_poisson": null,
  "e_total": null,
  "e_ionic": null,
  "e_electronic": null,
  "n": null,
  "e_ij_max": null,
  "weighted_surface_energy_EV_PER_ANG2": null,
  "weighted_surface_energy": null,
  "weighted_work_function": null,
  "surface_anisotropy": null,
  "shape_factor": null,
  "has_reconstructed": null,
  "possible_species": null,
  "has_props": null,
  "theoretical": null,
  "database_IDs": null,
  "fields_not_requested": [
    "builder_meta",
    "nsites",
    "elements",
    "nelements",
    "composition",
    "composition_reduced",
    "chemsys",
    "symmetry",
    "property_name",
    "deprecated",
    "deprecation_reasons",
    "last_updated",
    "origins",
    "warnings",
    "task_ids",
    "uncorrected_energy_per_atom",
    "equilibrium_reaction_energy_per_atom",
    "decomposes_to",
    "xas",
    "grain_boundaries",
    "cbm",
    "vbm",
    "is_gap_direct",
    "is_metal",
    "es_source_calc_id",
    "bandstructure",
    "dos",
    "dos_energy_up",
    "dos_energy_down",
    "is_magnetic",
    "ordering",
    "total_magnetization_normalized_vol",
    "total_magnetization_normalized_formula_units",
    "num_magnetic_sites",
    "num_unique_magnetic_sites",
    "types_of_magnetic_species",
    "bulk_modulus",
    "shear_modulus",
    "universal_anisotropy",
    "homogeneous_poisson",
    "e_total",
    "e_ionic",
    "e_electronic",
    "n",
    "e_ij_max",
    "weighted_surface_energy_EV_PER_ANG2",
    "weighted_surface_energy",
    "weighted_work_function",
    "surface_anisotropy",
    "shape_factor",
    "has_reconstructed",
    "possible_species",
    "has_props",
    "theoretical",
    "database_IDs"
  ]
}
