{
  "builder_meta": null,
  "nsites": null,
  "elements": null,
  "nelements": null,
  "composition": null,
  "composition_reduced": null,
  "formula_pretty": "TlS",
  "formula_anonymous": "AB",
  "chemsys": null,
  "volume": 1932.5754526955386,
  "density": 6.50127913126112,
  "density_atomic": 30.19649144836779,
  "symmetry": null,
  "property_name": null,
  "material_id": "mp-561066",
  "deprecated": null,
  "deprecation_reasons": null,
  "last_updated": null,
  "origins": null,
  "warnings": null,
  "structure": {
    "@module": "pymatgen.core.structure",
    "@class": "Structure",
    "charge": 0,
    "lattice": {
      "matrix": [
        [8.027244, 0.0, 0.0],
        [0.0, 8.027244, 0.0],
        [0.0, 0.0, 29.991869]
      ],
      "pbc": [true, true, true],
      "a": 8.027244,
      "b": 8.027244,
      "c": 29.991869,
      "alpha": 90.0,
      "beta": 90.0,
      "gamma": 90.0,
      "volume": 1932.5754526955386
    },
    "properties": {},
    "sites": [
      {
        "species": [{ "element": "Tl", "occu": 1 }],
        "abc": [0.418819, 0.628092, 0.817442999999999],
        "properties": { "magmom": -0.0 },
        "label": "Tl",
        "xyz": [3.3619623048359997, 5.041847738447999, 24.51664337096697]
      },
      {
        "species": [{ "element": "Tl", "occu": 1 }],
        "abc": [0.878154999999999, 0.870745, 0.202798999999999],
        "properties": { "magmom": -0.0 },
        "label": "Tl",
        "xyz": [7.049164454819992, 6.98968257678, 6.08232104133097]
      },
      {
        "species": [{ "element": "Tl", "occu": 1 }],
        "abc": [0.129254999999999, 0.121845, 0.297201],
        "properties": { "magmom": -0.0 },
        "label": "Tl",
        "xyz": [1.037561423219992, 0.97807954518, 8.913613458669]
      },
      {
        "species": [{ "element": "Tl", "occu": 1 }],
        "abc": [0.910173, 0.373946, 0.936245],
        "properties": { "magmom": -0.0 },
        "label": "Tl",
        "xyz": [7.306180753212, 3.0017557848239997, 28.079737391905002]
      },
      {
        "species": [{ "element": "Tl", "occu": 1 }],
        "abc": [0.626745, 0.125439, 0.697403],
        "properties": { "magmom": -0.0 },
        "label": "Tl",
        "xyz": [5.03103504078, 1.006929460116, 20.916419416207]
      },
      {
        "species": [{ "element": "Tl", "occu": 1 }],
        "abc": [0.126745, 0.374561, 0.052597],
        "properties": { "magmom": -0.0 },
        "label": "Tl",
        "xyz": [1.01741304078, 3.006692539884, 1.577482333793]
      },
      {
        "species": [{ "element": "Tl", "occu": 1 }],
        "abc": [0.629255, 0.378154999999999, 0.452799],
        "properties": { "magmom": -0.0 },
        "label": "Tl",
        "xyz": [5.0511834232199995, 3.035542454819992, 13.580288291331001]
      },
      {
        "species": [{ "element": "Tl", "occu": 1 }],
        "abc": [0.621845, 0.370745, 0.047201],
        "properties": { "magmom": -0.0 },
        "label": "Tl",
        "xyz": [4.99170154518, 2.9760605767799997, 1.415646208669]
      },
      {
        "species": [{ "element": "Tl", "occu": 1 }],
        "abc": [0.410172999999999, 0.126054, 0.813755],
        "properties": { "magmom": -0.0 },
        "label": "Tl",
        "xyz": [3.292558753211992, 1.0118662151759998, 24.406033358095]
      },
      {
        "species": [{ "element": "Tl", "occu": 1 }],
        "abc": [0.378154999999999, 0.629255, 0.547200999999999],
        "properties": { "magmom": -0.0 },
        "label": "Tl",
        "xyz": [3.035542454819992, 5.0511834232199995, 16.41158070866897]
      },
      {
        "species": [{ "element": "Tl", "occu": 1 }],
        "abc": [0.870745, 0.878154999999999, 0.797200999999999],
        "properties": { "magmom": -0.0 },
        "label": "Tl",
        "xyz": [6.98968257678, 7.049164454819992, 23.909547958668973]
      },
      {
        "species": [{ "element": "Tl", "occu": 1 }],
        "abc": [0.125439, 0.626745, 0.302597],
        "properties": { "magmom": -0.0 },
        "label": "Tl",
        "xyz": [1.006929460116, 5.03103504078, 9.075449583793]
      },
      {
        "species": [{ "element": "Tl", "occu": 1 }],
        "abc": [0.626054, 0.089826999999999, 0.563755],
        "properties": { "magmom": -0.0 },
        "label": "Tl",
        "xyz": [5.025488215176, 0.7210632467879919, 16.908066108095]
      },
      {
        "species": [{ "element": "Tl", "occu": 1 }],
        "abc": [0.918818999999999, 0.871907999999999, 0.932557],
        "properties": { "magmom": -0.0 },
        "label": "Tl",
        "xyz": [7.375584304835992, 6.999018261551992, 27.969127379033]
      },
      {
        "species": [{ "element": "Tl", "occu": 1 }],
        "abc": [0.128091999999999, 0.081181, 0.567442999999999],
        "properties": { "magmom": -0.0 },
        "label": "Tl",
        "xyz": [1.028225738447992, 0.651659695164, 17.018676120966973]
      },
      {
        "species": [{ "element": "Tl", "occu": 1 }],
        "abc": [0.089826999999999, 0.626054, 0.436245],
        "properties": { "magmom": -0.0 },
        "label": "Tl",
        "xyz": [0.7210632467879919, 5.025488215176, 13.083802891905]
      },
      {
        "species": [{ "element": "Tl", "occu": 1 }],
        "abc": [0.873946, 0.589827, 0.686245],
        "properties": { "magmom": -0.0 },
        "label": "Tl",
        "xyz": [7.0153777848239995, 4.734685246788, 20.581770141905]
      },
      {
        "species": [{ "element": "Tl", "occu": 1 }],
        "abc": [0.589827, 0.873946, 0.313755],
        "properties": { "magmom": -0.0 },
        "label": "Tl",
        "xyz": [4.734685246788, 7.0153777848239995, 9.410098858095001]
      },
      {
        "species": [{ "element": "Tl", "occu": 1 }],
        "abc": [0.625439, 0.873255, 0.447403],
        "properties": { "magmom": -0.0 },
        "label": "Tl",
        "xyz": [5.020551460116, 7.009830959219999, 13.418452166207]
      },
      {
        "species": [{ "element": "Tl", "occu": 1 }],
        "abc": [0.628092, 0.418819, 0.182557],
        "properties": { "magmom": -0.0 },
        "label": "Tl",
        "xyz": [5.041847738447999, 3.3619623048359997, 5.475225629033]
      },
      {
        "species": [{ "element": "Tl", "occu": 1 }],
        "abc": [0.126054, 0.410172999999999, 0.186245],
        "properties": { "magmom": -0.0 },
        "label": "Tl",
        "xyz": [1.0118662151759998, 3.292558753211992, 5.585835641905]
      },
      {
        "species": [{ "element": "Tl", "occu": 1 }],
        "abc": [0.874560999999999, 0.373255, 0.802597],
        "properties": { "magmom": -0.0 },
        "label": "Tl",
        "xyz": [7.020314539883992, 2.99620895922, 24.071384083793003]
      },
      {
        "species": [{ "element": "Tl", "occu": 1 }],
        "abc": [0.374561, 0.126745, 0.947403],
        "properties": { "magmom": -0.0 },
        "label": "Tl",
        "xyz": [3.006692539884, 1.01741304078, 28.414386666207]
      },
      {
        "species": [{ "element": "Tl", "occu": 1 }],
        "abc": [0.371907999999999, 0.581181, 0.682557],
        "properties": { "magmom": -0.0 },
        "label": "Tl",
        "xyz": [2.985396261551992, 4.6652816951639995, 20.471160129033]
      },
      {
        "species": [{ "element": "Tl", "occu": 1 }],
        "abc": [0.373946, 0.910173, 0.063754999999999],
        "properties": { "magmom": -0.0 },
        "label": "Tl",
        "xyz": [3.0017557848239997, 7.306180753212, 1.9121316080949704]
      },
      {
        "species": [{ "element": "Tl", "occu": 1 }],
        "abc": [0.081181, 0.128091999999999, 0.432556999999999],
        "properties": { "magmom": -0.0 },
        "label": "Tl",
        "xyz": [0.651659695164, 1.028225738447992, 12.973192879032972]
      },
      {
        "species": [{ "element": "Tl", "occu": 1 }],
        "abc": [0.370745, 0.621845, 0.952799],
        "properties": { "magmom": -0.0 },
        "label": "Tl",
        "xyz": [2.9760605767799997, 4.99170154518, 28.576222791331]
      },
      {
        "species": [{ "element": "Tl", "occu": 1 }],
        "abc": [0.373255, 0.874560999999999, 0.197403],
        "properties": { "magmom": -0.0 },
        "label": "Tl",
        "xyz": [2.99620895922, 7.020314539883992, 5.920484916207]
      },
      {
        "species": [{ "element": "Tl", "occu": 1 }],
        "abc": [0.871907999999999, 0.918818999999999, 0.067443],
        "properties": { "magmom": -0.0 },
        "label": "Tl",
        "xyz": [6.999018261551992, 7.375584304835992, 2.0227416209670004]
      },
      {
        "species": [{ "element": "Tl", "occu": 1 }],
        "abc": [0.581181, 0.371907999999999, 0.317443],
        "properties": { "magmom": -0.0 },
        "label": "Tl",
        "xyz": [4.6652816951639995, 2.985396261551992, 9.520708870966999]
      },
      {
        "species": [{ "element": "Tl", "occu": 1 }],
        "abc": [0.121845, 0.129254999999999, 0.702799],
        "properties": { "magmom": -0.0 },
        "label": "Tl",
        "xyz": [0.97807954518, 1.037561423219992, 21.078255541331]
      },
      {
        "species": [{ "element": "Tl", "occu": 1 }],
        "abc": [0.873255, 0.625439, 0.552597],
        "properties": { "magmom": -0.0 },
        "label": "Tl",
        "xyz": [7.009830959219999, 5.020551460116, 16.573416833793]
      },
      {
        "species": [{ "element": "S", "occu": 1 }],
        "abc": [0.884873999999999, 0.884873999999999, 0.5],
        "properties": { "magmom": 0.0 },
        "label": "S",
        "xyz": [7.103099507255992, 7.103099507255992, 14.9959345]
      },
      {
        "species": [{ "element": "S", "occu": 1 }],
        "abc": [0.687068, 0.131836999999999, 0.399640999999999],
        "properties": { "magmom": -0.0 },
        "label": "S",
        "xyz": [5.515262480592, 1.058287767227992, 11.98598051902897]
      },
      {
        "species": [{ "element": "S", "occu": 1 }],
        "abc": [0.616176, 0.857969, 0.742506],
        "properties": { "magmom": -0.0 },
        "label": "S",
        "xyz": [4.946195098943999, 6.887126507435999, 22.269142683714]
      },
      {
        "species": [{ "element": "S", "occu": 1 }],
        "abc": [0.864545, 0.135455, 0.25],
        "properties": { "magmom": -0.0 },
        "label": "S",
        "xyz": [6.93991366398, 1.08733033602, 7.49796725]
      },
      {
        "species": [{ "element": "S", "occu": 1 }],
        "abc": [0.312932, 0.868162999999999, 0.899640999999999],
        "properties": { "magmom": -0.0 },
        "label": "S",
        "xyz": [2.5119815194079997, 6.968956232771991, 26.98191501902897]
      },
      {
        "species": [{ "element": "S", "occu": 1 }],
        "abc": [0.642031, 0.116176, 0.992506],
        "properties": { "magmom": -0.0 },
        "label": "S",
        "xyz": [5.153739492564, 0.932573098944, 29.767109933714]
      },
      {
        "species": [{ "element": "S", "occu": 1 }],
        "abc": [0.131836999999999, 0.687068, 0.600359],
        "properties": { "magmom": -0.0 },
        "label": "S",
        "xyz": [1.058287767227992, 5.515262480592, 18.005888480971]
      },
      {
        "species": [{ "element": "S", "occu": 1 }],
        "abc": [0.619265, 0.68384, 0.601878999999999],
        "properties": { "magmom": -0.0 },
        "label": "S",
        "xyz": [4.9709912556599996, 5.48935053696, 18.05147612185097]
      },
      {
        "species": [{ "element": "S", "occu": 1 }],
        "abc": [0.883823999999999, 0.357969, 0.507494],
        "properties": { "magmom": -0.0 },
        "label": "S",
        "xyz": [7.094670901055992, 2.8735045074359995, 15.220693566286]
      },
      {
        "species": [{ "element": "S", "occu": 1 }],
        "abc": [0.857969, 0.616176, 0.257494],
        "properties": { "magmom": -0.0 },
        "label": "S",
        "xyz": [6.887126507435999, 4.946195098943999, 7.722726316286001]
      },
      {
        "species": [{ "element": "S", "occu": 1 }],
        "abc": [0.383824, 0.142031, 0.242506],
        "properties": { "magmom": -0.0 },
        "label": "S",
        "xyz": [3.081048901056, 1.1401174925639999, 7.273208183714]
      },
      {
        "species": [{ "element": "S", "occu": 1 }],
        "abc": [0.357969, 0.883823999999999, 0.492506],
        "properties": { "magmom": -0.0 },
        "label": "S",
        "xyz": [2.8735045074359995, 7.094670901055992, 14.771175433714001]
      },
      {
        "species": [{ "element": "S", "occu": 1 }],
        "abc": [0.135455, 0.864545, 0.75],
        "properties": { "magmom": -0.0 },
        "label": "S",
        "xyz": [1.08733033602, 6.93991366398, 22.49390175]
      },
      {
        "species": [{ "element": "S", "occu": 1 }],
        "abc": [0.384874, 0.615126, 0.25],
        "properties": { "magmom": 0.0 },
        "label": "S",
        "xyz": [3.089477507256, 4.937766492743999, 7.49796725]
      },
      {
        "species": [{ "element": "S", "occu": 1 }],
        "abc": [0.631837, 0.812932, 0.149641],
        "properties": { "magmom": -0.0 },
        "label": "S",
        "xyz": [5.071909767228, 6.5256035194079995, 4.488013269029]
      },
      {
        "species": [{ "element": "S", "occu": 1 }],
        "abc": [0.615126, 0.384874, 0.75],
        "properties": { "magmom": 0.0 },
        "label": "S",
        "xyz": [4.937766492743999, 3.089477507256, 22.49390175]
      },
      {
        "species": [{ "element": "S", "occu": 1 }],
        "abc": [0.31616000000000005, 0.380735, 0.898121],
        "properties": { "magmom": -0.0 },
        "label": "S",
        "xyz": [2.53789346304, 3.0562527443399996, 26.936327378149]
      },
      {
        "species": [{ "element": "S", "occu": 1 }],
        "abc": [0.115125999999999, 0.115125999999999, 0.0],
        "properties": { "magmom": 0.0 },
        "label": "S",
        "xyz": [0.924144492743992, 0.924144492743992, 0.0]
      },
      {
        "species": [{ "element": "S", "occu": 1 }],
        "abc": [0.812932, 0.631837, 0.850359],
        "properties": { "magmom": -0.0 },
        "label": "S",
        "xyz": [6.5256035194079995, 5.071909767228, 25.503855730971]
      },
      {
        "species": [{ "element": "S", "occu": 1 }],
        "abc": [0.8161600000000001, 0.119265, 0.851878999999999],
        "properties": { "magmom": -0.0 },
        "label": "S",
        "xyz": [6.55151546304, 0.95736925566, 25.549443371850973]
      },
      {
        "species": [{ "element": "S", "occu": 1 }],
        "abc": [0.187067999999999, 0.368162999999999, 0.350359],
        "properties": { "magmom": -0.0 },
        "label": "S",
        "xyz": [1.501640480591992, 2.955334232771992, 10.507921230971]
      },
      {
        "species": [{ "element": "S", "occu": 1 }],
        "abc": [0.368162999999999, 0.187067999999999, 0.649641],
        "properties": { "magmom": -0.0 },
        "label": "S",
        "xyz": [2.955334232771992, 1.501640480591992, 19.483947769029]
      },
      {
        "species": [{ "element": "S", "occu": 1 }],
        "abc": [0.380735, 0.31616000000000005, 0.101879],
        "properties": { "magmom": -0.0 },
        "label": "S",
        "xyz": [3.0562527443399996, 2.53789346304, 3.055541621851]
      },
      {
        "species": [{ "element": "S", "occu": 1 }],
        "abc": [0.364545, 0.364545, 0.5],
        "properties": { "magmom": -0.0 },
        "label": "S",
        "xyz": [2.92629166398, 2.92629166398, 14.9959345]
      },
      {
        "species": [{ "element": "S", "occu": 1 }],
        "abc": [0.635455, 0.635455, 0.0],
        "properties": { "magmom": -0.0 },
        "label": "S",
        "xyz": [5.10095233602, 5.10095233602, 0.0]
      },
      {
        "species": [{ "element": "S", "occu": 1 }],
        "abc": [0.880734999999999, 0.18384, 0.648121],
        "properties": { "magmom": -0.0 },
        "label": "S",
        "xyz": [7.069874744339992, 1.47572853696, 19.438360128149]
      },
      {
        "species": [{ "element": "S", "occu": 1 }],
        "abc": [0.116176, 0.642031, 0.007494],
        "properties": { "magmom": -0.0 },
        "label": "S",
        "xyz": [0.932573098944, 5.153739492564, 0.224759066286]
      },
      {
        "species": [{ "element": "S", "occu": 1 }],
        "abc": [0.18384, 0.880734999999999, 0.351879],
        "properties": { "magmom": -0.0 },
        "label": "S",
        "xyz": [1.47572853696, 7.069874744339992, 10.553508871851001]
      },
      {
        "species": [{ "element": "S", "occu": 1 }],
        "abc": [0.142031, 0.383824, 0.757494],
        "properties": { "magmom": -0.0 },
        "label": "S",
        "xyz": [1.1401174925639999, 3.081048901056, 22.718660816286]
      },
      {
        "species": [{ "element": "S", "occu": 1 }],
        "abc": [0.868162999999999, 0.312932, 0.100358999999999],
        "properties": { "magmom": -0.0 },
        "label": "S",
        "xyz": [6.968956232771991, 2.5119815194079997, 3.00995398097097]
      },
      {
        "species": [{ "element": "S", "occu": 1 }],
        "abc": [0.119265, 0.8161600000000001, 0.148121],
        "properties": { "magmom": -0.0 },
        "label": "S",
        "xyz": [0.95736925566, 6.55151546304, 4.442425628149]
      },
      {
        "species": [{ "element": "S", "occu": 1 }],
        "abc": [0.68384, 0.619265, 0.398121],
        "properties": { "magmom": -0.0 },
        "label": "S",
        "xyz": [5.48935053696, 4.9709912556599996, 11.940392878149]
      }
    ]
  },
  "task_ids": null,
  "uncorrected_energy_per_atom": null,
  "energy_per_atom": -3.72855722421875,
  "formation_energy_per_atom": -0.47364138213541906,
  "energy_above_hull": 0.028092917447914003,
  "is_stable": false,
  "equilibrium_reaction_energy_per_atom": null,
  "decomposes_to": null,
  "xas": null,
  "grain_boundaries": null,
  "band_gap": 1.0387,
  "cbm": null,
  "vbm": null,
  "efermi": 3.37271786,
  "is_gap_direct": null,
  "is_metal": null,
  "es_source_calc_id": null,
  "bandstructure": null,
  "dos": null,
  "dos_energy_up": null,
  "dos_energy_down": null,
  "is_magnetic": null,
  "ordering": null,
  "total_magnetization": 0.004774,
  "total_magnetization_normalized_vol": null,
  "total_magnetization_normalized_formula_units": null,
  "num_magnetic_sites": null,
  "num_unique_magnetic_sites": null,
  "types_of_magnetic_species": null,
  "bulk_modulus": null,
  "shear_modulus": null,
  "universal_anisotropy": null,
  "homogeneous_poisson": null,
  "e_total": null,
  "e_ionic": null,
  "e_electronic": null,
  "n": null,
  "e_ij_max": null,
  "weighted_surface_energy_EV_PER_ANG2": null,
  "weighted_surface_energy": null,
  "weighted_work_function": null,
  "surface_anisotropy": null,
  "shape_factor": null,
  "has_reconstructed": null,
  "possible_species": null,
  "has_props": null,
  "theoretical": null,
  "database_IDs": null,
  "fields_not_requested": [
    "builder_meta",
    "nsites",
    "elements",
    "nelements",
    "composition",
    "composition_reduced",
    "chemsys",
    "symmetry",
    "property_name",
    "deprecated",
    "deprecation_reasons",
    "last_updated",
    "origins",
    "warnings",
    "task_ids",
    "uncorrected_energy_per_atom",
    "equilibrium_reaction_energy_per_atom",
    "decomposes_to",
    "xas",
    "grain_boundaries",
    "cbm",
    "vbm",
    "is_gap_direct",
    "is_metal",
    "es_source_calc_id",
    "bandstructure",
    "dos",
    "dos_energy_up",
    "dos_energy_down",
    "is_magnetic",
    "ordering",
    "total_magnetization_normalized_vol",
    "total_magnetization_normalized_formula_units",
    "num_magnetic_sites",
    "num_unique_magnetic_sites",
    "types_of_magnetic_species",
    "bulk_modulus",
    "shear_modulus",
    "universal_anisotropy",
    "homogeneous_poisson",
    "e_total",
    "e_ionic",
    "e_electronic",
    "n",
    "e_ij_max",
    "weighted_surface_energy_EV_PER_ANG2",
    "weighted_surface_energy",
    "weighted_work_function",
    "surface_anisotropy",
    "shape_factor",
    "has_reconstructed",
    "possible_species",
    "has_props",
    "theoretical",
    "database_IDs"
  ]
}
