{
  "builder_meta": null,
  "nsites": null,
  "elements": null,
  "nelements": null,
  "composition": null,
  "composition_reduced": null,
  "formula_pretty": "TlSe",
  "formula_anonymous": "AB",
  "chemsys": null,
  "volume": 235.33777973502288,
  "density": 7.997060555923034,
  "density_atomic": 29.41722246687786,
  "symmetry": null,
  "property_name": null,
  "material_id": "mp-1836",
  "deprecated": null,
  "deprecation_reasons": null,
  "last_updated": null,
  "origins": null,
  "warnings": null,
  "structure": {
    "@module": "pymatgen.core.structure",
    "@class": "Structure",
    "charge": 0,
    "lattice": {
      "matrix": [
        [6.50515059, -0.01443677, -1.85891508],
        [-3.70417819, 5.34754614, -1.85891508],
        [0.00758216, 0.01443678, 6.76553799]
      ],
      "pbc": [true, true, true],
      "a": 6.7655567319738585,
      "b": 6.765556226752682,
      "c": 6.76555764175432,
      "alpha": 105.8838292577464,
      "beta": 105.88382934603554,
      "gamma": 116.91219823893083,
      "volume": 235.33777973502288
    },
    "properties": {},
    "sites": [
      {
        "species": [{ "element": "Tl", "occu": 1 }],
        "abc": [0.25, 0.25, -0.0],
        "properties": { "magmom": 0.0 },
        "label": "Tl",
        "xyz": [0.7002431000000001, 1.3332773425000002, -0.92945754]
      },
      {
        "species": [{ "element": "Tl", "occu": 1 }],
        "abc": [0.75, 0.75, -0.0],
        "properties": { "magmom": 0.0 },
        "label": "Tl",
        "xyz": [2.1007293000000007, 3.9998320275000006, -2.78837262]
      },
      {
        "species": [{ "element": "Tl", "occu": 1 }],
        "abc": [0.75, 0.25, 0.5],
        "properties": { "magmom": 0.0 },
        "label": "Tl",
        "xyz": [3.9566094750000005, 1.3332773475000002, 1.5238539150000001]
      },
      {
        "species": [{ "element": "Tl", "occu": 1 }],
        "abc": [0.25, 0.75, 0.5],
        "properties": { "magmom": 0.0 },
        "label": "Tl",
        "xyz": [-1.1480549149999997, 4.014268802500001, 1.5238539150000001]
      },
      {
        "species": [{ "element": "Se", "occu": 1 }],
        "abc": [0.67681738, 0.17681738, 0.85363477],
        "properties": { "magmom": -0.0 },
        "label": "Se",
        "xyz": [3.7543082916280155, 0.9480917784316912, 4.188463937843732]
      },
      {
        "species": [{ "element": "Se", "occu": 1 }],
        "abc": [0.17681738, 0.32318262000000003, 0.5],
        "properties": { "magmom": -0.0 },
        "label": "Se",
        "xyz": [-0.04311124856180354, 1.7328996902490246, 2.453311455]
      },
      {
        "species": [{ "element": "Se", "occu": 1 }],
        "abc": [0.82318262, 0.67681738, 0.5],
        "properties": { "magmom": -0.0 },
        "label": "Se",
        "xyz": [2.8516658085618043, 3.614646459750976, 0.5943963750000001]
      },
      {
        "species": [{ "element": "Se", "occu": 1 }],
        "abc": [0.32318262000000003, 0.82318262, 0.14636523],
        "properties": { "magmom": -0.0 },
        "label": "Se",
        "xyz": [-0.9457537316280147, 4.399454371568308, -1.1407561078437316]
      }
    ]
  },
  "task_ids": null,
  "uncorrected_energy_per_atom": null,
  "energy_per_atom": -34.11858552125,
  "formation_energy_per_atom": -0.37315311578124905,
  "energy_above_hull": 0.0,
  "is_stable": true,
  "equilibrium_reaction_energy_per_atom": null,
  "decomposes_to": null,
  "xas": null,
  "grain_boundaries": null,
  "band_gap": 0.197999999999999,
  "cbm": null,
  "vbm": null,
  "efermi": 3.56861459,
  "is_gap_direct": null,
  "is_metal": null,
  "es_source_calc_id": null,
  "bandstructure": null,
  "dos": null,
  "dos_energy_up": null,
  "dos_energy_down": null,
  "is_magnetic": null,
  "ordering": null,
  "total_magnetization": 0.0,
  "total_magnetization_normalized_vol": null,
  "total_magnetization_normalized_formula_units": null,
  "num_magnetic_sites": null,
  "num_unique_magnetic_sites": null,
  "types_of_magnetic_species": null,
  "bulk_modulus": null,
  "shear_modulus": null,
  "universal_anisotropy": null,
  "homogeneous_poisson": null,
  "e_total": null,
  "e_ionic": null,
  "e_electronic": null,
  "n": null,
  "e_ij_max": null,
  "weighted_surface_energy_EV_PER_ANG2": null,
  "weighted_surface_energy": null,
  "weighted_work_function": null,
  "surface_anisotropy": null,
  "shape_factor": null,
  "has_reconstructed": null,
  "possible_species": null,
  "has_props": null,
  "theoretical": null,
  "database_IDs": null,
  "fields_not_requested": [
    "builder_meta",
    "nsites",
    "elements",
    "nelements",
    "composition",
    "composition_reduced",
    "chemsys",
    "symmetry",
    "property_name",
    "deprecated",
    "deprecation_reasons",
    "last_updated",
    "origins",
    "warnings",
    "task_ids",
    "uncorrected_energy_per_atom",
    "equilibrium_reaction_energy_per_atom",
    "decomposes_to",
    "xas",
    "grain_boundaries",
    "cbm",
    "vbm",
    "is_gap_direct",
    "is_metal",
    "es_source_calc_id",
    "bandstructure",
    "dos",
    "dos_energy_up",
    "dos_energy_down",
    "is_magnetic",
    "ordering",
    "total_magnetization_normalized_vol",
    "total_magnetization_normalized_formula_units",
    "num_magnetic_sites",
    "num_unique_magnetic_sites",
    "types_of_magnetic_species",
    "bulk_modulus",
    "shear_modulus",
    "universal_anisotropy",
    "homogeneous_poisson",
    "e_total",
    "e_ionic",
    "e_electronic",
    "n",
    "e_ij_max",
    "weighted_surface_energy_EV_PER_ANG2",
    "weighted_surface_energy",
    "weighted_work_function",
    "surface_anisotropy",
    "shape_factor",
    "has_reconstructed",
    "possible_species",
    "has_props",
    "theoretical",
    "database_IDs"
  ]
}
