{"builder_meta": null, "nsites": null, "elements": null, "nelements": null, "composition": null, "composition_reduced": null, "formula_pretty": "TlSn3", "formula_anonymous": "AB3", "chemsys": null, "volume": 229.69339765931113, "density": 8.10431855232871, "density_atomic": 28.71167470741389, "symmetry": null, "property_name": null, "material_id": "mp-1187690", "deprecated": null, "deprecation_reasons": null, "last_updated": null, "origins": null, "warnings": null, "structure": {"@module": "pymatgen.core.structure", "@class": "Structure", "charge": 0, "lattice": {"matrix": [[3.36754245, -5.83275515, -0.0], [3.36754245, 5.83275515, 0.0], [-0.0, -0.0, 5.84698112]], "pbc": [true, true, true], "a": 6.735085358954519, "b": 6.735085358954519, "c": 5.84698112, "alpha": 90.0, "beta": 90.0, "gamma": 120.00000450835952, "volume": 229.69339765931113}, "properties": {}, "sites": [{"species": [{"element": "Tl", "occu": 1}], "abc": [0.333333, 0.666667, 0.75], "properties": {"magmom": -0.0}, "label": "Tl", "xyz": [3.36754245, 1.9442556051700999, 4.38523584]}, {"species": [{"element": "Tl", "occu": 1}], "abc": [0.666667, 0.333333, 0.25], "properties": {"magmom": -0.0}, "label": "Tl", "xyz": [3.36754245, -1.9442556051700999, 1.46174528]}, {"species": [{"element": "Sn", "occu": 1}], "abc": [0.15616797000000002, 0.31233394000000003, 0.25], "properties": {"magmom": -0.0}, "label": "Sn", "xyz": [1.5777000698310797, 0.9108778657722456, 1.46174528]}, {"species": [{"element": "Sn", "occu": 1}], "abc": [0.68766606, 0.8438320300000001, 0.25], "properties": {"magmom": -0.0}, "label": "Sn", "xyz": [5.157384830168921, 0.910877865772246, 1.46174528]}, {"species": [{"element": "Sn", "occu": 1}], "abc": [0.15616797000000002, 0.8438320300000001, 0.25], "properties": {"magmom": -0.0}, "label": "Sn", "xyz": [3.3675424500000006, 4.0109760874349085, 1.46174528]}, {"species": [{"element": "Sn", "occu": 1}], "abc": [0.8438320300000001, 0.68766606, 0.75], "properties": {"magmom": -0.0}, "label": "Sn", "xyz": [5.157384830168921, -0.910877865772246, 4.38523584]}, {"species": [{"element": "Sn", "occu": 1}], "abc": [0.31233394000000003, 0.15616797000000002, 0.75], "properties": {"magmom": -0.0}, "label": "Sn", "xyz": [1.5777000698310797, -0.9108778657722456, 4.38523584]}, {"species": [{"element": "Sn", "occu": 1}], "abc": [0.8438320300000001, 0.15616797000000002, 0.75], "properties": {"magmom": -0.0}, "label": "Sn", "xyz": [3.3675424500000006, -4.0109760874349085, 4.38523584]}]}, "task_ids": null, "uncorrected_energy_per_atom": null, "energy_per_atom": -31.6471186575, "formation_energy_per_atom": 0.2073453225, "energy_above_hull": 0.2073453225, "is_stable": false, "equilibrium_reaction_energy_per_atom": null, "decomposes_to": null, "xas": null, "grain_boundaries": null, "band_gap": 0.0, "cbm": null, "vbm": null, "efermi": 7.38307415, "is_gap_direct": null, "is_metal": null, "es_source_calc_id": null, "bandstructure": null, "dos": null, "dos_energy_up": null, "dos_energy_down": null, "is_magnetic": null, "ordering": null, "total_magnetization": 4.4e-06, "total_magnetization_normalized_vol": null, "total_magnetization_normalized_formula_units": null, "num_magnetic_sites": null, "num_unique_magnetic_sites": null, "types_of_magnetic_species": null, "bulk_modulus": null, "shear_modulus": null, "universal_anisotropy": null, "homogeneous_poisson": null, "e_total": null, "e_ionic": null, "e_electronic": null, "n": null, "e_ij_max": null, "weighted_surface_energy_EV_PER_ANG2": null, "weighted_surface_energy": null, "weighted_work_function": null, "surface_anisotropy": null, "shape_factor": null, "has_reconstructed": null, "possible_species": null, "has_props": null, "theoretical": null, "database_IDs": null, "fields_not_requested": ["builder_meta", "nsites", "elements", "nelements", "composition", "composition_reduced", "chemsys", "symmetry", "property_name", "deprecated", "deprecation_reasons", "last_updated", "origins", "warnings", "task_ids", "uncorrected_energy_per_atom", "equilibrium_reaction_energy_per_atom", "decomposes_to", "xas", "grain_boundaries", "cbm", "vbm", "is_gap_direct", "is_metal", "es_source_calc_id", "bandstructure", "dos", "dos_energy_up", "dos_energy_down", "is_magnetic", "ordering", "total_magnetization_normalized_vol", "total_magnetization_normalized_formula_units", "num_magnetic_sites", "num_unique_magnetic_sites", "types_of_magnetic_species", "bulk_modulus", "shear_modulus", "universal_anisotropy", "homogeneous_poisson", "e_total", "e_ionic", "e_electronic", "n", "e_ij_max", "weighted_surface_energy_EV_PER_ANG2", "weighted_surface_energy", "weighted_work_function", "surface_anisotropy", "shape_factor", "has_reconstructed", "possible_species", "has_props", "theoretical", "database_IDs"]}