{
  "builder_meta": null,
  "nsites": null,
  "elements": null,
  "nelements": null,
  "composition": null,
  "composition_reduced": null,
  "formula_pretty": "TlTe",
  "formula_anonymous": "AB",
  "chemsys": null,
  "volume": 2176.9764814111313,
  "density": 8.103293628623124,
  "density_atomic": 34.01525752204893,
  "symmetry": null,
  "property_name": null,
  "material_id": "mp-2048",
  "deprecated": null,
  "deprecation_reasons": null,
  "last_updated": null,
  "origins": null,
  "warnings": null,
  "structure": {
    "@module": "pymatgen.core.structure",
    "@class": "Structure",
    "charge": 0,
    "lattice": {
      "matrix": [
        [18.603483, 0.0, 0.0],
        [0.0, 18.603483, 0.0],
        [0.0, 0.0, 6.290211]
      ],
      "pbc": [true, true, true],
      "a": 18.603483,
      "b": 18.603483,
      "c": 6.290211,
      "alpha": 90.0,
      "beta": 90.0,
      "gamma": 90.0,
      "volume": 2176.9764814111313
    },
    "properties": {},
    "sites": [
      {
        "species": [{ "element": "Tl", "occu": 1 }],
        "abc": [0.824156999999999, 0.096491, 0.752792999999999],
        "properties": { "magmom": 0.0 },
        "label": "Tl",
        "xyz": [15.332190738830983, 1.7950686781529999, 4.735226809322994]
      },
      {
        "species": [{ "element": "Tl", "occu": 1 }],
        "abc": [0.096152, 0.675524999999999, 0.753780999999999],
        "properties": { "magmom": 0.0 },
        "label": "Tl",
        "xyz": [1.7887620974160001, 12.567117853574983, 4.741441537790994]
      },
      {
        "species": [{ "element": "Tl", "occu": 1 }],
        "abc": [0.175525, 0.403848, 0.253781],
        "properties": { "magmom": 0.0 },
        "label": "Tl",
        "xyz": [3.265376353575, 7.5129794025839995, 1.5963360377909999]
      },
      {
        "species": [{ "element": "Tl", "occu": 1 }],
        "abc": [0.824475, 0.596152, 0.253781],
        "properties": { "magmom": 0.0 },
        "label": "Tl",
        "xyz": [15.338106646425, 11.090503597416001, 1.5963360377909999]
      },
      {
        "species": [{ "element": "Tl", "occu": 1 }],
        "abc": [0.324474999999999, 0.903848, 0.246219],
        "properties": { "magmom": 0.0 },
        "label": "Tl",
        "xyz": [6.0363651464249815, 16.814720902584, 1.548769462209]
      },
      {
        "species": [{ "element": "Tl", "occu": 1 }],
        "abc": [0.403848, 0.175525, 0.746219],
        "properties": { "magmom": 0.0 },
        "label": "Tl",
        "xyz": [7.5129794025839995, 3.265376353575, 4.693874962209]
      },
      {
        "species": [{ "element": "Tl", "occu": 1 }],
        "abc": [0.596152, 0.824475, 0.746219],
        "properties": { "magmom": 0.0 },
        "label": "Tl",
        "xyz": [11.090503597416001, 15.338106646425, 4.693874962209]
      },
      {
        "species": [{ "element": "Tl", "occu": 1 }],
        "abc": [0.675524999999999, 0.096152, 0.246219],
        "properties": { "magmom": 0.0 },
        "label": "Tl",
        "xyz": [12.567117853574983, 1.7887620974160001, 1.548769462209]
      },
      {
        "species": [{ "element": "Tl", "occu": 1 }],
        "abc": [0.596152, 0.175525, 0.746219],
        "properties": { "magmom": 0.0 },
        "label": "Tl",
        "xyz": [11.090503597416001, 3.265376353575, 4.693874962209]
      },
      {
        "species": [{ "element": "Tl", "occu": 1 }],
        "abc": [0.403848, 0.824475, 0.746219],
        "properties": { "magmom": 0.0 },
        "label": "Tl",
        "xyz": [7.5129794025839995, 15.338106646425, 4.693874962209]
      },
      {
        "species": [{ "element": "Tl", "occu": 1 }],
        "abc": [0.324474999999999, 0.096152, 0.246219],
        "properties": { "magmom": 0.0 },
        "label": "Tl",
        "xyz": [6.0363651464249815, 1.7887620974160001, 1.548769462209]
      },
      {
        "species": [{ "element": "Tl", "occu": 1 }],
        "abc": [0.675524999999999, 0.903848, 0.246219],
        "properties": { "magmom": 0.0 },
        "label": "Tl",
        "xyz": [12.567117853574983, 16.814720902584, 1.548769462209]
      },
      {
        "species": [{ "element": "Tl", "occu": 1 }],
        "abc": [0.175525, 0.596152, 0.253781],
        "properties": { "magmom": 0.0 },
        "label": "Tl",
        "xyz": [3.265376353575, 11.090503597416001, 1.5963360377909999]
      },
      {
        "species": [{ "element": "Tl", "occu": 1 }],
        "abc": [0.096152, 0.324474999999999, 0.753780999999999],
        "properties": { "magmom": 0.0 },
        "label": "Tl",
        "xyz": [1.7887620974160001, 6.0363651464249815, 4.741441537790994]
      },
      {
        "species": [{ "element": "Tl", "occu": 1 }],
        "abc": [0.903848, 0.675524999999999, 0.753780999999999],
        "properties": { "magmom": 0.0 },
        "label": "Tl",
        "xyz": [16.814720902584, 12.567117853574983, 4.741441537790994]
      },
      {
        "species": [{ "element": "Tl", "occu": 1 }],
        "abc": [0.824475, 0.403848, 0.253781],
        "properties": { "magmom": 0.0 },
        "label": "Tl",
        "xyz": [15.338106646425, 7.5129794025839995, 1.5963360377909999]
      },
      {
        "species": [{ "element": "Tl", "occu": 1 }],
        "abc": [0.903848, 0.324474999999999, 0.753780999999999],
        "properties": { "magmom": 0.0 },
        "label": "Tl",
        "xyz": [16.814720902584, 6.0363651464249815, 4.741441537790994]
      },
      {
        "species": [{ "element": "Tl", "occu": 1 }],
        "abc": [0.175843, 0.903509, 0.752792999999999],
        "properties": { "magmom": 0.0 },
        "label": "Tl",
        "xyz": [3.271292261169, 16.808414321847, 4.735226809322994]
      },
      {
        "species": [{ "element": "Tl", "occu": 1 }],
        "abc": [0.403509, 0.324157, 0.252793],
        "properties": { "magmom": 0.0 },
        "label": "Tl",
        "xyz": [7.506672821847, 6.030449238830999, 1.590121309323]
      },
      {
        "species": [{ "element": "Tl", "occu": 1 }],
        "abc": [0.596491, 0.675843, 0.252793],
        "properties": { "magmom": 0.0 },
        "label": "Tl",
        "xyz": [11.096810178153, 12.573033761169, 1.590121309323]
      },
      {
        "species": [{ "element": "Tl", "occu": 1 }],
        "abc": [0.096491, 0.824156999999999, 0.247206999999999],
        "properties": { "magmom": 0.0 },
        "label": "Tl",
        "xyz": [1.7950686781529999, 15.332190738830983, 1.554984190676994]
      },
      {
        "species": [{ "element": "Tl", "occu": 1 }],
        "abc": [0.324157, 0.403509, 0.747207],
        "properties": { "magmom": 0.0 },
        "label": "Tl",
        "xyz": [6.030449238830999, 7.506672821847, 4.700089690677]
      },
      {
        "species": [{ "element": "Tl", "occu": 1 }],
        "abc": [0.675843, 0.596491, 0.747207],
        "properties": { "magmom": 0.0 },
        "label": "Tl",
        "xyz": [12.573033761169, 11.096810178153, 4.700089690677]
      },
      {
        "species": [{ "element": "Tl", "occu": 1 }],
        "abc": [0.903509, 0.175843, 0.247206999999999],
        "properties": { "magmom": 0.0 },
        "label": "Tl",
        "xyz": [16.808414321847, 3.271292261169, 1.554984190676994]
      },
      {
        "species": [{ "element": "Tl", "occu": 1 }],
        "abc": [0.675843, 0.403509, 0.747207],
        "properties": { "magmom": 0.0 },
        "label": "Tl",
        "xyz": [12.573033761169, 7.506672821847, 4.700089690677]
      },
      {
        "species": [{ "element": "Tl", "occu": 1 }],
        "abc": [0.324157, 0.596491, 0.747207],
        "properties": { "magmom": 0.0 },
        "label": "Tl",
        "xyz": [6.030449238830999, 11.096810178153, 4.700089690677]
      },
      {
        "species": [{ "element": "Tl", "occu": 1 }],
        "abc": [0.096491, 0.175843, 0.247206999999999],
        "properties": { "magmom": 0.0 },
        "label": "Tl",
        "xyz": [1.7950686781529999, 3.271292261169, 1.554984190676994]
      },
      {
        "species": [{ "element": "Tl", "occu": 1 }],
        "abc": [0.903509, 0.824156999999999, 0.247206999999999],
        "properties": { "magmom": 0.0 },
        "label": "Tl",
        "xyz": [16.808414321847, 15.332190738830983, 1.554984190676994]
      },
      {
        "species": [{ "element": "Tl", "occu": 1 }],
        "abc": [0.403509, 0.675843, 0.252793],
        "properties": { "magmom": 0.0 },
        "label": "Tl",
        "xyz": [7.506672821847, 12.573033761169, 1.590121309323]
      },
      {
        "species": [{ "element": "Tl", "occu": 1 }],
        "abc": [0.175843, 0.096491, 0.752792999999999],
        "properties": { "magmom": 0.0 },
        "label": "Tl",
        "xyz": [3.271292261169, 1.7950686781529999, 4.735226809322994]
      },
      {
        "species": [{ "element": "Tl", "occu": 1 }],
        "abc": [0.824156999999999, 0.903509, 0.752792999999999],
        "properties": { "magmom": 0.0 },
        "label": "Tl",
        "xyz": [15.332190738830983, 16.808414321847, 4.735226809322994]
      },
      {
        "species": [{ "element": "Tl", "occu": 1 }],
        "abc": [0.596491, 0.324157, 0.252793],
        "properties": { "magmom": 0.0 },
        "label": "Tl",
        "xyz": [11.096810178153, 6.030449238830999, 1.590121309323]
      },
      {
        "species": [{ "element": "Te", "occu": 1 }],
        "abc": [0.751257, 0.248743, 0.5],
        "properties": { "magmom": 0.0 },
        "label": "Te",
        "xyz": [13.975996828130999, 4.627486171869, 3.1451055]
      },
      {
        "species": [{ "element": "Te", "occu": 1 }],
        "abc": [0.748742999999999, 0.748742999999999, 0.0],
        "properties": { "magmom": 0.0 },
        "label": "Te",
        "xyz": [13.929227671868983, 13.929227671868983, 0.0]
      },
      {
        "species": [{ "element": "Te", "occu": 1 }],
        "abc": [0.251257, 0.251257, 0.0],
        "properties": { "magmom": 0.0 },
        "label": "Te",
        "xyz": [4.674255328131, 4.674255328131, 0.0]
      },
      {
        "species": [{ "element": "Te", "occu": 1 }],
        "abc": [0.248743, 0.751257, 0.5],
        "properties": { "magmom": 0.0 },
        "label": "Te",
        "xyz": [4.627486171869, 13.975996828130999, 3.1451055]
      },
      {
        "species": [{ "element": "Te", "occu": 1 }],
        "abc": [0.748742999999999, 0.251257, 0.0],
        "properties": { "magmom": 0.0 },
        "label": "Te",
        "xyz": [13.929227671868983, 4.674255328131, 0.0]
      },
      {
        "species": [{ "element": "Te", "occu": 1 }],
        "abc": [0.751257, 0.751257, 0.5],
        "properties": { "magmom": 0.0 },
        "label": "Te",
        "xyz": [13.975996828130999, 13.975996828130999, 3.1451055]
      },
      {
        "species": [{ "element": "Te", "occu": 1 }],
        "abc": [0.248743, 0.248743, 0.5],
        "properties": { "magmom": 0.0 },
        "label": "Te",
        "xyz": [4.627486171869, 4.627486171869, 3.1451055]
      },
      {
        "species": [{ "element": "Te", "occu": 1 }],
        "abc": [0.251257, 0.748742999999999, 0.0],
        "properties": { "magmom": 0.0 },
        "label": "Te",
        "xyz": [4.674255328131, 13.929227671868983, 0.0]
      },
      {
        "species": [{ "element": "Te", "occu": 1 }],
        "abc": [0.0, 0.0, 0.23901299999999903],
        "properties": { "magmom": -0.0 },
        "label": "Te",
        "xyz": [0.0, 0.0, 1.503442201742994]
      },
      {
        "species": [{ "element": "Te", "occu": 1 }],
        "abc": [0.5, 0.5, 0.739012999999999],
        "properties": { "magmom": -0.0 },
        "label": "Te",
        "xyz": [9.3017415, 9.3017415, 4.648547701742994]
      },
      {
        "species": [{ "element": "Te", "occu": 1 }],
        "abc": [0.5, 0.5, 0.260986999999999],
        "properties": { "magmom": -0.0 },
        "label": "Te",
        "xyz": [9.3017415, 9.3017415, 1.6416632982569939]
      },
      {
        "species": [{ "element": "Te", "occu": 1 }],
        "abc": [0.0, 0.0, 0.760987],
        "properties": { "magmom": -0.0 },
        "label": "Te",
        "xyz": [0.0, 0.0, 4.786768798257]
      },
      {
        "species": [{ "element": "Te", "occu": 1 }],
        "abc": [0.5, 0.0, 0.248391],
        "properties": { "magmom": -0.0 },
        "label": "Te",
        "xyz": [9.3017415, 0.0, 1.562431800501]
      },
      {
        "species": [{ "element": "Te", "occu": 1 }],
        "abc": [0.5, 0.0, 0.748390999999999],
        "properties": { "magmom": -0.0 },
        "label": "Te",
        "xyz": [9.3017415, 0.0, 4.707537300500994]
      },
      {
        "species": [{ "element": "Te", "occu": 1 }],
        "abc": [0.0, 0.5, 0.25160899999999903],
        "properties": { "magmom": -0.0 },
        "label": "Te",
        "xyz": [0.0, 9.3017415, 1.5826736994989938]
      },
      {
        "species": [{ "element": "Te", "occu": 1 }],
        "abc": [0.163373, 0.5, 0.752346],
        "properties": { "magmom": 0.002 },
        "label": "Te",
        "xyz": [3.039306828159, 9.3017415, 4.732415085006]
      },
      {
        "species": [{ "element": "Te", "occu": 1 }],
        "abc": [0.5, 0.336802999999999, 0.765049],
        "properties": { "magmom": 0.002 },
        "label": "Te",
        "xyz": [9.3017415, 6.265708884848982, 4.812319635339]
      },
      {
        "species": [{ "element": "Te", "occu": 1 }],
        "abc": [0.5, 0.663196999999999, 0.765049],
        "properties": { "magmom": 0.002 },
        "label": "Te",
        "xyz": [9.3017415, 12.337774115150982, 4.812319635339]
      },
      {
        "species": [{ "element": "Te", "occu": 1 }],
        "abc": [0.163196999999999, 0.0, 0.265049],
        "properties": { "magmom": 0.002 },
        "label": "Te",
        "xyz": [3.0360326151509818, 0.0, 1.667214135339]
      },
      {
        "species": [{ "element": "Te", "occu": 1 }],
        "abc": [0.836803, 0.0, 0.265049],
        "properties": { "magmom": 0.002 },
        "label": "Te",
        "xyz": [15.567450384849, 0.0, 1.667214135339]
      },
      {
        "species": [{ "element": "Te", "occu": 1 }],
        "abc": [0.336802999999999, 0.5, 0.234951],
        "properties": { "magmom": 0.002 },
        "label": "Te",
        "xyz": [6.265708884848982, 9.3017415, 1.477891364661]
      },
      {
        "species": [{ "element": "Te", "occu": 1 }],
        "abc": [0.0, 0.163196999999999, 0.734951],
        "properties": { "magmom": 0.002 },
        "label": "Te",
        "xyz": [0.0, 3.0360326151509818, 4.622996864661]
      },
      {
        "species": [{ "element": "Te", "occu": 1 }],
        "abc": [0.0, 0.836803, 0.734951],
        "properties": { "magmom": 0.002 },
        "label": "Te",
        "xyz": [0.0, 15.567450384849, 4.622996864661]
      },
      {
        "species": [{ "element": "Te", "occu": 1 }],
        "abc": [0.663196999999999, 0.5, 0.234951],
        "properties": { "magmom": 0.002 },
        "label": "Te",
        "xyz": [12.337774115150982, 9.3017415, 1.477891364661]
      },
      {
        "species": [{ "element": "Te", "occu": 1 }],
        "abc": [0.5, 0.836627, 0.247653999999999],
        "properties": { "magmom": 0.002 },
        "label": "Te",
        "xyz": [9.3017415, 15.564176171841, 1.557795914993994]
      },
      {
        "species": [{ "element": "Te", "occu": 1 }],
        "abc": [0.5, 0.163373, 0.247653999999999],
        "properties": { "magmom": 0.002 },
        "label": "Te",
        "xyz": [9.3017415, 3.039306828159, 1.557795914993994]
      },
      {
        "species": [{ "element": "Te", "occu": 1 }],
        "abc": [0.663373, 0.0, 0.747653999999999],
        "properties": { "magmom": 0.002 },
        "label": "Te",
        "xyz": [12.341048328159001, 0.0, 4.7029014149939945]
      },
      {
        "species": [{ "element": "Te", "occu": 1 }],
        "abc": [0.336627, 0.0, 0.747653999999999],
        "properties": { "magmom": 0.002 },
        "label": "Te",
        "xyz": [6.2624346718410004, 0.0, 4.7029014149939945]
      },
      {
        "species": [{ "element": "Te", "occu": 1 }],
        "abc": [0.836627, 0.5, 0.752346],
        "properties": { "magmom": 0.002 },
        "label": "Te",
        "xyz": [15.564176171841, 9.3017415, 4.732415085006]
      },
      {
        "species": [{ "element": "Te", "occu": 1 }],
        "abc": [0.0, 0.663373, 0.252346],
        "properties": { "magmom": 0.002 },
        "label": "Te",
        "xyz": [0.0, 12.341048328159001, 1.5873095850060002]
      },
      {
        "species": [{ "element": "Te", "occu": 1 }],
        "abc": [0.0, 0.336627, 0.252346],
        "properties": { "magmom": 0.002 },
        "label": "Te",
        "xyz": [0.0, 6.2624346718410004, 1.5873095850060002]
      },
      {
        "species": [{ "element": "Te", "occu": 1 }],
        "abc": [0.0, 0.5, 0.751609],
        "properties": { "magmom": -0.0 },
        "label": "Te",
        "xyz": [0.0, 9.3017415, 4.727779199499]
      }
    ]
  },
  "task_ids": null,
  "uncorrected_energy_per_atom": null,
  "energy_per_atom": -3.2269770996875,
  "formation_energy_per_atom": -0.469588094687503,
  "energy_above_hull": 0.0,
  "is_stable": true,
  "equilibrium_reaction_energy_per_atom": null,
  "decomposes_to": null,
  "xas": null,
  "grain_boundaries": null,
  "band_gap": 0.0,
  "cbm": null,
  "vbm": null,
  "efermi": 4.82680269,
  "is_gap_direct": null,
  "is_metal": null,
  "es_source_calc_id": null,
  "bandstructure": null,
  "dos": null,
  "dos_energy_up": null,
  "dos_energy_down": null,
  "is_magnetic": null,
  "ordering": null,
  "total_magnetization": 0.168395,
  "total_magnetization_normalized_vol": null,
  "total_magnetization_normalized_formula_units": null,
  "num_magnetic_sites": null,
  "num_unique_magnetic_sites": null,
  "types_of_magnetic_species": null,
  "bulk_modulus": null,
  "shear_modulus": null,
  "universal_anisotropy": null,
  "homogeneous_poisson": null,
  "e_total": null,
  "e_ionic": null,
  "e_electronic": null,
  "n": null,
  "e_ij_max": null,
  "weighted_surface_energy_EV_PER_ANG2": null,
  "weighted_surface_energy": null,
  "weighted_work_function": null,
  "surface_anisotropy": null,
  "shape_factor": null,
  "has_reconstructed": null,
  "possible_species": null,
  "has_props": null,
  "theoretical": null,
  "database_IDs": null,
  "fields_not_requested": [
    "builder_meta",
    "nsites",
    "elements",
    "nelements",
    "composition",
    "composition_reduced",
    "chemsys",
    "symmetry",
    "property_name",
    "deprecated",
    "deprecation_reasons",
    "last_updated",
    "origins",
    "warnings",
    "task_ids",
    "uncorrected_energy_per_atom",
    "equilibrium_reaction_energy_per_atom",
    "decomposes_to",
    "xas",
    "grain_boundaries",
    "cbm",
    "vbm",
    "is_gap_direct",
    "is_metal",
    "es_source_calc_id",
    "bandstructure",
    "dos",
    "dos_energy_up",
    "dos_energy_down",
    "is_magnetic",
    "ordering",
    "total_magnetization_normalized_vol",
    "total_magnetization_normalized_formula_units",
    "num_magnetic_sites",
    "num_unique_magnetic_sites",
    "types_of_magnetic_species",
    "bulk_modulus",
    "shear_modulus",
    "universal_anisotropy",
    "homogeneous_poisson",
    "e_total",
    "e_ionic",
    "e_electronic",
    "n",
    "e_ij_max",
    "weighted_surface_energy_EV_PER_ANG2",
    "weighted_surface_energy",
    "weighted_work_function",
    "surface_anisotropy",
    "shape_factor",
    "has_reconstructed",
    "possible_species",
    "has_props",
    "theoretical",
    "database_IDs"
  ]
}
