{"builder_meta": null, "nsites": null, "elements": null, "nelements": null, "composition": null, "composition_reduced": null, "formula_pretty": "Tm2Au", "formula_anonymous": "AB2", "chemsys": null, "volume": 297.06091661211724, "density": 11.958683808664373, "density_atomic": 24.755076384343102, "symmetry": null, "property_name": null, "material_id": "mp-1095690", "deprecated": null, "deprecation_reasons": null, "last_updated": null, "origins": null, "warnings": null, "structure": {"@module": "pymatgen.core.structure", "@class": "Structure", "charge": 0, "lattice": {"matrix": [[-0.0, -4.86858085, 0.0], [-6.9846786, 0.0, 0.0], [0.0, 0.0, -8.73567973]], "pbc": [true, true, true], "a": 4.86858085, "b": 6.9846786, "c": 8.73567973, "alpha": 90.0, "beta": 90.0, "gamma": 90.0, "volume": 297.06091661211724}, "properties": {}, "sites": [{"species": [{"element": "Tm", "occu": 1}], "abc": [0.75, 0.6477363700000001, 0.58118633], "properties": {"magmom": 0.0}, "label": "Tm", "xyz": [-4.524230361980682, -3.6514356374999997, -5.07705764233409]}, {"species": [{"element": "Tm", "occu": 1}], "abc": [0.75, 0.14773537, 0.91881367], "properties": {"magmom": 0.0}, "label": "Tm", "xyz": [-1.0318840773020819, -3.6514356374999997, -8.026461952665908]}, {"species": [{"element": "Tm", "occu": 1}], "abc": [0.25, 0.35226463, 0.41881367], "properties": {"magmom": 0.0}, "label": "Tm", "xyz": [-2.460455222697918, -1.2171452125, -3.658622087665909]}, {"species": [{"element": "Tm", "occu": 1}], "abc": [0.25, 0.85226363, 0.08118633], "properties": {"magmom": 0.0}, "label": "Tm", "xyz": [-5.952787538019318, -1.2171452125, -0.7092177773340909]}, {"species": [{"element": "Tm", "occu": 1}], "abc": [0.75, 0.01295628, 0.32391956], "properties": {"magmom": -0.0}, "label": "Tm", "xyz": [-0.090495451651608, -3.6514356374999997, -2.8296575344425183]}, {"species": [{"element": "Tm", "occu": 1}], "abc": [0.75, 0.51295628, 0.17608044], "properties": {"magmom": -0.0}, "label": "Tm", "xyz": [-3.582834751651608, -3.6514356374999997, -1.538182330557481]}, {"species": [{"element": "Tm", "occu": 1}], "abc": [0.25, 0.9870437200000001, 0.67608044], "properties": {"magmom": -0.0}, "label": "Tm", "xyz": [-6.894183148348392, -1.2171452125, -5.9060221955574805]}, {"species": [{"element": "Tm", "occu": 1}], "abc": [0.25, 0.48704372, 0.82391956], "properties": {"magmom": -0.0}, "label": "Tm", "xyz": [-3.401843848348392, -1.2171452125, -7.197497399442518]}, {"species": [{"element": "Au", "occu": 1}], "abc": [0.75, 0.24309997, 0.59717506], "properties": {"magmom": -0.0}, "label": "Au", "xyz": [-1.6979751581196418, -3.6514356374999997, -5.2167300669035335]}, {"species": [{"element": "Au", "occu": 1}], "abc": [0.75, 0.74309997, 0.90282394], "properties": {"magmom": -0.0}, "label": "Au", "xyz": [-5.1903144581196425, -3.6514356374999997, -7.886780792416736]}, {"species": [{"element": "Au", "occu": 1}], "abc": [0.25, 0.7569000300000001, 0.40282394], "properties": {"magmom": -0.0}, "label": "Au", "xyz": [-5.286703441880358, -1.2171452125, -3.518940927416736]}, {"species": [{"element": "Au", "occu": 1}], "abc": [0.25, 0.25690003, 0.09717506000000001], "properties": {"magmom": -0.0}, "label": "Au", "xyz": [-1.794364141880358, -1.2171452125, -0.8488902019035338]}]}, "task_ids": null, "uncorrected_energy_per_atom": null, "energy_per_atom": -41.040027205, "formation_energy_per_atom": -0.7643416283333361, "energy_above_hull": 0.0, "is_stable": true, "equilibrium_reaction_energy_per_atom": null, "decomposes_to": null, "xas": null, "grain_boundaries": null, "band_gap": 0.0, "cbm": null, "vbm": null, "efermi": 3.87641343, "is_gap_direct": null, "is_metal": null, "es_source_calc_id": null, "bandstructure": null, "dos": null, "dos_energy_up": null, "dos_energy_down": null, "is_magnetic": null, "ordering": null, "total_magnetization": 1e-07, "total_magnetization_normalized_vol": null, "total_magnetization_normalized_formula_units": null, "num_magnetic_sites": null, "num_unique_magnetic_sites": null, "types_of_magnetic_species": null, "bulk_modulus": null, "shear_modulus": null, "universal_anisotropy": null, "homogeneous_poisson": null, "e_total": null, "e_ionic": null, "e_electronic": null, "n": null, "e_ij_max": null, "weighted_surface_energy_EV_PER_ANG2": null, "weighted_surface_energy": null, "weighted_work_function": null, "surface_anisotropy": null, "shape_factor": null, "has_reconstructed": null, "possible_species": null, "has_props": null, "theoretical": null, "database_IDs": null, "fields_not_requested": ["builder_meta", "nsites", "elements", "nelements", "composition", "composition_reduced", "chemsys", "symmetry", "property_name", "deprecated", "deprecation_reasons", "last_updated", "origins", "warnings", "task_ids", "uncorrected_energy_per_atom", "equilibrium_reaction_energy_per_atom", "decomposes_to", "xas", "grain_boundaries", "cbm", "vbm", "is_gap_direct", "is_metal", "es_source_calc_id", "bandstructure", "dos", "dos_energy_up", "dos_energy_down", "is_magnetic", "ordering", "total_magnetization_normalized_vol", "total_magnetization_normalized_formula_units", "num_magnetic_sites", "num_unique_magnetic_sites", "types_of_magnetic_species", "bulk_modulus", "shear_modulus", "universal_anisotropy", "homogeneous_poisson", "e_total", "e_ionic", "e_electronic", "n", "e_ij_max", "weighted_surface_energy_EV_PER_ANG2", "weighted_surface_energy", "weighted_work_function", "surface_anisotropy", "shape_factor", "has_reconstructed", "possible_species", "has_props", "theoretical", "database_IDs"]}