{"builder_meta": null, "nsites": null, "elements": null, "nelements": null, "composition": null, "composition_reduced": null, "formula_pretty": "Tm2C3", "formula_anonymous": "A2B3", "chemsys": null, "volume": 264.76878447085585, "density": 9.379903627580342, "density_atomic": 13.238439223542793, "symmetry": null, "property_name": null, "material_id": "mp-9545", "deprecated": null, "deprecation_reasons": null, "last_updated": null, "origins": null, "warnings": null, "structure": {"@module": "pymatgen.core.structure", "@class": "Structure", "charge": 0, "lattice": {"matrix": [[-4.045159, 4.045159, 4.045159], [4.045159, -4.045159, 4.045159], [4.045159, 4.045159, -4.045159]], "pbc": [true, true, true], "a": 7.006420912694512, "b": 7.006420912694512, "c": 7.006420912694512, "alpha": 109.47122063449069, "beta": 109.47122063449069, "gamma": 109.47122063449069, "volume": 264.76878447085585}, "properties": {}, "sites": [{"species": [{"element": "Tm", "occu": 1}], "abc": [0.600636, 0.600636, 0.600636], "properties": {"magmom": -0.001}, "label": "Tm", "xyz": [2.4296681211239997, 2.4296681211239997, 2.4296681211239997]}, {"species": [{"element": "Tm", "occu": 1}], "abc": [0.5, 0.0, 0.399364], "properties": {"magmom": -0.001}, "label": "Tm", "xyz": [-0.4070886211239999, 3.638070378876, 0.4070886211239999]}, {"species": [{"element": "Tm", "occu": 1}], "abc": [0.0, 0.399364, 0.5], "properties": {"magmom": -0.001}, "label": "Tm", "xyz": [3.638070378876, 0.4070886211239999, -0.4070886211239999]}, {"species": [{"element": "Tm", "occu": 1}], "abc": [0.399364, 0.5, 0.0], "properties": {"magmom": -0.001}, "label": "Tm", "xyz": [0.4070886211239999, -0.4070886211239999, 3.638070378876]}, {"species": [{"element": "Tm", "occu": 1}], "abc": [0.0, 0.899363999999999, 0.5], "properties": {"magmom": -0.001}, "label": "Tm", "xyz": [5.660649878875996, -1.6154908788759963, 1.6154908788759963]}, {"species": [{"element": "Tm", "occu": 1}], "abc": [0.899363999999999, 0.5, 0.0], "properties": {"magmom": -0.001}, "label": "Tm", "xyz": [-1.6154908788759963, 1.6154908788759963, 5.660649878875996]}, {"species": [{"element": "Tm", "occu": 1}], "abc": [0.5, 0.0, 0.899363999999999], "properties": {"magmom": -0.001}, "label": "Tm", "xyz": [1.6154908788759963, 5.660649878875996, -1.6154908788759963]}, {"species": [{"element": "Tm", "occu": 1}], "abc": [0.100635999999999, 0.100635999999999, 0.100635999999999], "properties": {"magmom": -0.001}, "label": "Tm", "xyz": [0.40708862112399596, 0.40708862112399596, 0.40708862112399596]}, {"species": [{"element": "C", "occu": 1}], "abc": [0.79198, 0.04198, 0.75], "properties": {"magmom": 0.0}, "label": "C", "xyz": [0.0, 6.0677385, 0.33963154964]}, {"species": [{"element": "C", "occu": 1}], "abc": [0.9580200000000001, 0.20802, 0.75], "properties": {"magmom": 0.0}, "label": "C", "xyz": [-4.440892098500626e-16, 6.067738500000001, 1.6829479503600004]}, {"species": [{"element": "C", "occu": 1}], "abc": [0.25, 0.54198, 0.29198], "properties": {"magmom": 0.0}, "label": "C", "xyz": [2.36221104964, 0.0, 2.0225795]}, {"species": [{"element": "C", "occu": 1}], "abc": [0.29198, 0.25, 0.54198], "properties": {"magmom": 0.0}, "label": "C", "xyz": [2.0225795, 2.36221104964, 0.0]}, {"species": [{"element": "C", "occu": 1}], "abc": [0.75, 0.9580200000000001, 0.20802], "properties": {"magmom": 0.0}, "label": "C", "xyz": [1.6829479503600004, -4.440892098500626e-16, 6.067738500000001]}, {"species": [{"element": "C", "occu": 1}], "abc": [0.20802, 0.75, 0.9580200000000001], "properties": {"magmom": 0.0}, "label": "C", "xyz": [6.067738500000001, 1.6829479503600004, -4.440892098500626e-16]}, {"species": [{"element": "C", "occu": 1}], "abc": [0.7080200000000001, 0.45802000000000004, 0.25], "properties": {"magmom": 0.0}, "label": "C", "xyz": [-2.220446049250313e-16, 2.0225795, 3.7055274503600004]}, {"species": [{"element": "C", "occu": 1}], "abc": [0.45802000000000004, 0.25, 0.7080200000000001], "properties": {"magmom": 0.0}, "label": "C", "xyz": [2.0225795, 3.705527450360001, 0.0]}, {"species": [{"element": "C", "occu": 1}], "abc": [0.54198, 0.29198, 0.25], "properties": {"magmom": 0.0}, "label": "C", "xyz": [0.0, 2.0225795, 2.36221104964]}, {"species": [{"element": "C", "occu": 1}], "abc": [0.25, 0.7080200000000001, 0.45802000000000004], "properties": {"magmom": 0.0}, "label": "C", "xyz": [3.705527450360001, -2.220446049250313e-16, 2.0225795]}, {"species": [{"element": "C", "occu": 1}], "abc": [0.75, 0.79198, 0.04198], "properties": {"magmom": 0.0}, "label": "C", "xyz": [0.33963154964, 2.7755575615628914e-17, 6.0677385]}, {"species": [{"element": "C", "occu": 1}], "abc": [0.04198, 0.75, 0.79198], "properties": {"magmom": 0.0}, "label": "C", "xyz": [6.0677385, 0.33963154964, 0.0]}]}, "task_ids": null, "uncorrected_energy_per_atom": null, "energy_per_atom": -7.6017862545, "formation_energy_per_atom": -0.27158636700000305, "energy_above_hull": 0.06732393390000001, "is_stable": false, "equilibrium_reaction_energy_per_atom": null, "decomposes_to": null, "xas": null, "grain_boundaries": null, "band_gap": 0.0, "cbm": null, "vbm": null, "efermi": 5.23422694, "is_gap_direct": null, "is_metal": null, "es_source_calc_id": null, "bandstructure": null, "dos": null, "dos_energy_up": null, "dos_energy_down": null, "is_magnetic": null, "ordering": null, "total_magnetization": 0.019360199999999002, "total_magnetization_normalized_vol": null, "total_magnetization_normalized_formula_units": null, "num_magnetic_sites": null, "num_unique_magnetic_sites": null, "types_of_magnetic_species": null, "bulk_modulus": null, "shear_modulus": null, "universal_anisotropy": null, "homogeneous_poisson": null, "e_total": null, "e_ionic": null, "e_electronic": null, "n": null, "e_ij_max": null, "weighted_surface_energy_EV_PER_ANG2": null, "weighted_surface_energy": null, "weighted_work_function": null, "surface_anisotropy": null, "shape_factor": null, "has_reconstructed": null, "possible_species": null, "has_props": null, "theoretical": null, "database_IDs": null, "fields_not_requested": ["builder_meta", "nsites", "elements", "nelements", "composition", "composition_reduced", "chemsys", "symmetry", "property_name", "deprecated", "deprecation_reasons", "last_updated", "origins", "warnings", "task_ids", "uncorrected_energy_per_atom", "equilibrium_reaction_energy_per_atom", "decomposes_to", "xas", "grain_boundaries", "cbm", "vbm", "is_gap_direct", "is_metal", "es_source_calc_id", "bandstructure", "dos", "dos_energy_up", "dos_energy_down", "is_magnetic", "ordering", "total_magnetization_normalized_vol", "total_magnetization_normalized_formula_units", "num_magnetic_sites", "num_unique_magnetic_sites", "types_of_magnetic_species", "bulk_modulus", "shear_modulus", "universal_anisotropy", "homogeneous_poisson", "e_total", "e_ionic", "e_electronic", "n", "e_ij_max", "weighted_surface_energy_EV_PER_ANG2", "weighted_surface_energy", "weighted_work_function", "surface_anisotropy", "shape_factor", "has_reconstructed", "possible_species", "has_props", "theoretical", "database_IDs"]}