{
  "builder_meta": null,
  "nsites": null,
  "elements": null,
  "nelements": null,
  "composition": null,
  "composition_reduced": null,
  "formula_pretty": "Tm2C",
  "formula_anonymous": "AB2",
  "chemsys": null,
  "volume": 64.25031038941552,
  "density": 9.042570282171589,
  "density_atomic": 21.416770129805172,
  "symmetry": null,
  "property_name": null,
  "material_id": "mp-1216546",
  "deprecated": null,
  "deprecation_reasons": null,
  "last_updated": null,
  "origins": null,
  "warnings": null,
  "structure": {
    "@module": "pymatgen.core.structure",
    "@class": "Structure",
    "charge": 0,
    "lattice": {
      "matrix": [
        [-2.49832598, -2.49832598, -0.0],
        [0.0, 2.49832597, -2.49832598],
        [2.5985009100000003, -2.5985009100000003, -5.09682891]
      ],
      "pbc": [true, true, true],
      "a": 3.5331664841450543,
      "b": 3.533166477073986,
      "c": 6.28347665678432,
      "alpha": 73.67128815426848,
      "beta": 90.0,
      "gamma": 119.99999993379622,
      "volume": 64.25031038941552
    },
    "properties": {},
    "sites": [
      {
        "species": [{ "element": "Tm", "occu": 1 }],
        "abc": [0.99023846, 0.98047593, 0.02928561],
        "properties": { "magmom": 0.083 },
        "label": "Tm",
        "xyz": [-2.397839786778286, -0.10048867636919427, -2.5988122323786467]
      },
      {
        "species": [{ "element": "Tm", "occu": 1 }],
        "abc": [0.50976154, 0.01952407, 0.47071439],
        "properties": { "magmom": 0.083 },
        "label": "Tm",
        "xyz": [-0.050398728221714206, -2.4479247786308065, -2.4479282026213536]
      },
      {
        "species": [{ "element": "C", "occu": 1 }],
        "abc": [0.25, 0.5, 0.25],
        "properties": { "magmom": -0.002 },
        "label": "C",
        "xyz": [0.025043732500000027, -0.025043737500000218, -2.5233702175]
      }
    ]
  },
  "task_ids": null,
  "uncorrected_energy_per_atom": null,
  "energy_per_atom": -6.401744723333333,
  "formation_energy_per_atom": -0.337188572500004,
  "energy_above_hull": 0.0,
  "is_stable": true,
  "equilibrium_reaction_energy_per_atom": null,
  "decomposes_to": null,
  "xas": null,
  "grain_boundaries": null,
  "band_gap": 0.0,
  "cbm": null,
  "vbm": null,
  "efermi": 2.96205065,
  "is_gap_direct": null,
  "is_metal": null,
  "es_source_calc_id": null,
  "bandstructure": null,
  "dos": null,
  "dos_energy_up": null,
  "dos_energy_down": null,
  "is_magnetic": null,
  "ordering": null,
  "total_magnetization": 0.2505303,
  "total_magnetization_normalized_vol": null,
  "total_magnetization_normalized_formula_units": null,
  "num_magnetic_sites": null,
  "num_unique_magnetic_sites": null,
  "types_of_magnetic_species": null,
  "bulk_modulus": null,
  "shear_modulus": null,
  "universal_anisotropy": null,
  "homogeneous_poisson": null,
  "e_total": null,
  "e_ionic": null,
  "e_electronic": null,
  "n": null,
  "e_ij_max": null,
  "weighted_surface_energy_EV_PER_ANG2": null,
  "weighted_surface_energy": null,
  "weighted_work_function": null,
  "surface_anisotropy": null,
  "shape_factor": null,
  "has_reconstructed": null,
  "possible_species": null,
  "has_props": null,
  "theoretical": null,
  "database_IDs": null,
  "fields_not_requested": [
    "builder_meta",
    "nsites",
    "elements",
    "nelements",
    "composition",
    "composition_reduced",
    "chemsys",
    "symmetry",
    "property_name",
    "deprecated",
    "deprecation_reasons",
    "last_updated",
    "origins",
    "warnings",
    "task_ids",
    "uncorrected_energy_per_atom",
    "equilibrium_reaction_energy_per_atom",
    "decomposes_to",
    "xas",
    "grain_boundaries",
    "cbm",
    "vbm",
    "is_gap_direct",
    "is_metal",
    "es_source_calc_id",
    "bandstructure",
    "dos",
    "dos_energy_up",
    "dos_energy_down",
    "is_magnetic",
    "ordering",
    "total_magnetization_normalized_vol",
    "total_magnetization_normalized_formula_units",
    "num_magnetic_sites",
    "num_unique_magnetic_sites",
    "types_of_magnetic_species",
    "bulk_modulus",
    "shear_modulus",
    "universal_anisotropy",
    "homogeneous_poisson",
    "e_total",
    "e_ionic",
    "e_electronic",
    "n",
    "e_ij_max",
    "weighted_surface_energy_EV_PER_ANG2",
    "weighted_surface_energy",
    "weighted_work_function",
    "surface_anisotropy",
    "shape_factor",
    "has_reconstructed",
    "possible_species",
    "has_props",
    "theoretical",
    "database_IDs"
  ]
}
