{"builder_meta": null, "nsites": null, "elements": null, "nelements": null, "composition": null, "composition_reduced": null, "formula_pretty": "Tm2Co7", "formula_anonymous": "A2B7", "chemsys": null, "volume": 253.10303213194032, "density": 9.846344459834382, "density_atomic": 14.061279562885574, "symmetry": null, "property_name": null, "material_id": "mp-1189465", "deprecated": null, "deprecation_reasons": null, "last_updated": null, "origins": null, "warnings": null, "structure": {"@module": "pymatgen.core.structure", "@class": "Structure", "charge": 0, "lattice": {"matrix": [[-2.464504, -4.268646, 0.0], [-4.929008, 0.0, 0.0], [-2.464504, -1.422882, -12.029503]], "pbc": [true, true, true], "a": 4.92900787576283, "b": 4.929008, "c": 12.361525616967713, "alpha": 78.49994242923559, "beta": 78.49994252717515, "gamma": 59.99999916621506, "volume": 253.10303213194032}, "properties": {}, "sites": [{"species": [{"element": "Tm", "occu": 1}], "abc": [0.9481719999999991, 0.9481719999999991, 0.155482999999999], "properties": {"magmom": -0.35000000000000003}, "label": "Tm", "xyz": [-7.39350953549599, -4.268644577117995, -1.870383214948988]}, {"species": [{"element": "Tm", "occu": 1}], "abc": [0.051828, 0.051828, 0.844517], "properties": {"magmom": -0.35000000000000003}, "label": "Tm", "xyz": [-2.464506464504, -1.422883422882, -10.159119785050999]}, {"species": [{"element": "Tm", "occu": 1}], "abc": [0.851335, 0.851335, 0.445994], "properties": {"magmom": -0.434}, "label": "Tm", "xyz": [-7.393509535495999, -4.268644577118, -5.365086160982]}, {"species": [{"element": "Tm", "occu": 1}], "abc": [0.148665, 0.148665, 0.554006], "properties": {"magmom": -0.434}, "label": "Tm", "xyz": [-2.464506464504, -1.422883422882, -6.664416839018]}, {"species": [{"element": "Co", "occu": 1}], "abc": [0.5, 0.5, 0.5], "properties": {"magmom": 1.279}, "label": "Co", "xyz": [-4.929008, -2.845764, -6.0147515]}, {"species": [{"element": "Co", "occu": 1}], "abc": [0.721579, 0.721579, 0.835263], "properties": {"magmom": 1.5390000000000001}, "label": "Co", "xyz": [-7.393511999999999, -4.268646, -10.047798764289]}, {"species": [{"element": "Co", "occu": 1}], "abc": [0.278421, 0.278421, 0.164737], "properties": {"magmom": 1.5390000000000001}, "label": "Co", "xyz": [-2.4645039999999994, -1.422882, -1.981704235711]}, {"species": [{"element": "Co", "occu": 1}], "abc": [0.610927, 0.610927, 0.167218999999999], "properties": {"magmom": 1.498}, "label": "Co", "xyz": [-4.929007999999997, -2.8457639999999986, -2.011561462156988]}, {"species": [{"element": "Co", "occu": 1}], "abc": [0.389073, 0.389073, 0.832781], "properties": {"magmom": 1.498}, "label": "Co", "xyz": [-4.929008, -2.845764, -10.017941537843]}, {"species": [{"element": "Co", "occu": 1}], "abc": [0.0, 0.5, 0.0], "properties": {"magmom": 1.548}, "label": "Co", "xyz": [-2.464504, 0.0, 0.0]}, {"species": [{"element": "Co", "occu": 1}], "abc": [0.5, 0.0, 0.0], "properties": {"magmom": 1.548}, "label": "Co", "xyz": [-1.232252, -2.134323, 0.0]}, {"species": [{"element": "Co", "occu": 1}], "abc": [0.5, 0.5, 0.0], "properties": {"magmom": 1.548}, "label": "Co", "xyz": [-3.6967559999999997, -2.134323, 0.0]}, {"species": [{"element": "Co", "occu": 1}], "abc": [0.389972999999999, 0.389972999999999, 0.329057], "properties": {"magmom": 1.332}, "label": "Co", "xyz": [-3.6942323479039922, -2.1328659688319958, -3.9583921686709997]}, {"species": [{"element": "Co", "occu": 1}], "abc": [0.890996999999999, 0.389972999999999, 0.329057], "properties": {"magmom": 1.332}, "label": "Co", "xyz": [-4.9290079999999925, -4.271560062335996, -3.9583921686709997]}, {"species": [{"element": "Co", "occu": 1}], "abc": [0.389972999999999, 0.890996999999999, 0.329057], "properties": {"magmom": 1.332}, "label": "Co", "xyz": [-6.163783652095993, -2.1328659688319958, -3.9583921686709997]}, {"species": [{"element": "Co", "occu": 1}], "abc": [0.610027, 0.610027, 0.670943], "properties": {"magmom": 1.332}, "label": "Co", "xyz": [-6.163783652095999, -3.558662031168, -8.071110831329]}, {"species": [{"element": "Co", "occu": 1}], "abc": [0.109002999999999, 0.610027, 0.670943], "properties": {"magmom": 1.332}, "label": "Co", "xyz": [-4.929007999999997, -1.4199679376639958, -8.071110831329]}, {"species": [{"element": "Co", "occu": 1}], "abc": [0.610027, 0.109002999999999, 0.670943], "properties": {"magmom": 1.332}, "label": "Co", "xyz": [-3.694232347903995, -3.558662031168, -8.071110831329]}]}, "task_ids": null, "uncorrected_energy_per_atom": null, "energy_per_atom": -6.710429885, "formation_energy_per_atom": -0.166105440555557, "energy_above_hull": 0.0018861816239310002, "is_stable": false, "equilibrium_reaction_energy_per_atom": null, "decomposes_to": null, "xas": null, "grain_boundaries": null, "band_gap": 0.0, "cbm": null, "vbm": null, "efermi": 4.610164, "is_gap_direct": null, "is_metal": null, "es_source_calc_id": null, "bandstructure": null, "dos": null, "dos_energy_up": null, "dos_energy_down": null, "is_magnetic": null, "ordering": null, "total_magnetization": 18.4600269, "total_magnetization_normalized_vol": null, "total_magnetization_normalized_formula_units": null, "num_magnetic_sites": null, "num_unique_magnetic_sites": null, "types_of_magnetic_species": null, "bulk_modulus": null, "shear_modulus": null, "universal_anisotropy": null, "homogeneous_poisson": null, "e_total": null, "e_ionic": null, "e_electronic": null, "n": null, "e_ij_max": null, "weighted_surface_energy_EV_PER_ANG2": null, "weighted_surface_energy": null, "weighted_work_function": null, "surface_anisotropy": null, "shape_factor": null, "has_reconstructed": null, "possible_species": null, "has_props": null, "theoretical": null, "database_IDs": null, "fields_not_requested": ["builder_meta", "nsites", "elements", "nelements", "composition", "composition_reduced", "chemsys", "symmetry", "property_name", "deprecated", "deprecation_reasons", "last_updated", "origins", "warnings", "task_ids", "uncorrected_energy_per_atom", "equilibrium_reaction_energy_per_atom", "decomposes_to", "xas", "grain_boundaries", "cbm", "vbm", "is_gap_direct", "is_metal", "es_source_calc_id", "bandstructure", "dos", "dos_energy_up", "dos_energy_down", "is_magnetic", "ordering", "total_magnetization_normalized_vol", "total_magnetization_normalized_formula_units", "num_magnetic_sites", "num_unique_magnetic_sites", "types_of_magnetic_species", "bulk_modulus", "shear_modulus", "universal_anisotropy", "homogeneous_poisson", "e_total", "e_ionic", "e_electronic", "n", "e_ij_max", "weighted_surface_energy_EV_PER_ANG2", "weighted_surface_energy", "weighted_work_function", "surface_anisotropy", "shape_factor", "has_reconstructed", "possible_species", "has_props", "theoretical", "database_IDs"]}