{
  "builder_meta": null,
  "nsites": null,
  "elements": null,
  "nelements": null,
  "composition": null,
  "composition_reduced": null,
  "formula_pretty": "Tm2Ge3",
  "formula_anonymous": "A2B3",
  "chemsys": null,
  "volume": 114.95598396555167,
  "density": 8.028363138107299,
  "density_atomic": 22.991196793110333,
  "symmetry": null,
  "property_name": null,
  "material_id": "mp-1216561",
  "deprecated": null,
  "deprecation_reasons": null,
  "last_updated": null,
  "origins": null,
  "warnings": null,
  "structure": {
    "@module": "pymatgen.core.structure",
    "@class": "Structure",
    "charge": 0,
    "lattice": {
      "matrix": [
        [-2.193931, -3.791125, 0.0],
        [-4.378515, -0.005387999999999, 0.0],
        [0.0, 0.0, -6.930204]
      ],
      "pbc": [true, true, true],
      "a": 4.380178306688667,
      "b": 4.378518315111746,
      "c": 6.930204,
      "alpha": 90.0,
      "beta": 90.0,
      "gamma": 59.87144913634734,
      "volume": 114.95598396555167
    },
    "properties": {},
    "sites": [
      {
        "species": [{ "element": "Tm", "occu": 1 }],
        "abc": [0.000128, 0.000248, 0.020177999999999002],
        "properties": { "magmom": 0.0 },
        "label": "Tm",
        "xyz": [
          -0.0013666948880000002, -0.00048660022399999977, -0.13983765631199307
        ]
      },
      {
        "species": [{ "element": "Tm", "occu": 1 }],
        "abc": [0.000128, 0.000248, 0.479821999999999],
        "properties": { "magmom": 0.0 },
        "label": "Tm",
        "xyz": [
          -0.0013666948880000002, -0.00048660022399999977, -3.325264343687993
        ]
      },
      {
        "species": [{ "element": "Ge", "occu": 1 }],
        "abc": [0.666362, 0.666100999999999, 0.75],
        "properties": { "magmom": -0.0 },
        "label": "Ge",
        "xyz": [-4.378485469036995, -2.5298505894379995, -5.197653]
      },
      {
        "species": [{ "element": "Ge", "occu": 1 }],
        "abc": [0.332802999999999, 0.332629, 0.25],
        "properties": { "magmom": -0.0 },
        "label": "Ge",
        "xyz": [-2.186567884527998, -1.263489978426996, -1.732551]
      },
      {
        "species": [{ "element": "Ge", "occu": 1 }],
        "abc": [0.333779, 0.334073, 0.75],
        "properties": { "magmom": -0.0 },
        "label": "Ge",
        "xyz": [-2.195031736844, -1.2671978966989996, -5.197653]
      }
    ]
  },
  "task_ids": null,
  "uncorrected_energy_per_atom": null,
  "energy_per_atom": -5.008686202,
  "formation_energy_per_atom": -0.44186889700000204,
  "energy_above_hull": 0.262930316999996,
  "is_stable": false,
  "equilibrium_reaction_energy_per_atom": null,
  "decomposes_to": null,
  "xas": null,
  "grain_boundaries": null,
  "band_gap": 0.0,
  "cbm": null,
  "vbm": null,
  "efermi": 3.4255508,
  "is_gap_direct": null,
  "is_metal": null,
  "es_source_calc_id": null,
  "bandstructure": null,
  "dos": null,
  "dos_energy_up": null,
  "dos_energy_down": null,
  "is_magnetic": null,
  "ordering": null,
  "total_magnetization": 0.0008011,
  "total_magnetization_normalized_vol": null,
  "total_magnetization_normalized_formula_units": null,
  "num_magnetic_sites": null,
  "num_unique_magnetic_sites": null,
  "types_of_magnetic_species": null,
  "bulk_modulus": null,
  "shear_modulus": null,
  "universal_anisotropy": null,
  "homogeneous_poisson": null,
  "e_total": null,
  "e_ionic": null,
  "e_electronic": null,
  "n": null,
  "e_ij_max": null,
  "weighted_surface_energy_EV_PER_ANG2": null,
  "weighted_surface_energy": null,
  "weighted_work_function": null,
  "surface_anisotropy": null,
  "shape_factor": null,
  "has_reconstructed": null,
  "possible_species": null,
  "has_props": null,
  "theoretical": null,
  "database_IDs": null,
  "fields_not_requested": [
    "builder_meta",
    "nsites",
    "elements",
    "nelements",
    "composition",
    "composition_reduced",
    "chemsys",
    "symmetry",
    "property_name",
    "deprecated",
    "deprecation_reasons",
    "last_updated",
    "origins",
    "warnings",
    "task_ids",
    "uncorrected_energy_per_atom",
    "equilibrium_reaction_energy_per_atom",
    "decomposes_to",
    "xas",
    "grain_boundaries",
    "cbm",
    "vbm",
    "is_gap_direct",
    "is_metal",
    "es_source_calc_id",
    "bandstructure",
    "dos",
    "dos_energy_up",
    "dos_energy_down",
    "is_magnetic",
    "ordering",
    "total_magnetization_normalized_vol",
    "total_magnetization_normalized_formula_units",
    "num_magnetic_sites",
    "num_unique_magnetic_sites",
    "types_of_magnetic_species",
    "bulk_modulus",
    "shear_modulus",
    "universal_anisotropy",
    "homogeneous_poisson",
    "e_total",
    "e_ionic",
    "e_electronic",
    "n",
    "e_ij_max",
    "weighted_surface_energy_EV_PER_ANG2",
    "weighted_surface_energy",
    "weighted_work_function",
    "surface_anisotropy",
    "shape_factor",
    "has_reconstructed",
    "possible_species",
    "has_props",
    "theoretical",
    "database_IDs"
  ]
}
