{"builder_meta": null, "nsites": null, "elements": null, "nelements": null, "composition": null, "composition_reduced": null, "formula_pretty": "Tm2In", "formula_anonymous": "AB2", "chemsys": null, "volume": 160.33970053867827, "density": 9.376386294895996, "density_atomic": 26.723283423113045, "symmetry": null, "property_name": null, "material_id": "mp-21486", "deprecated": null, "deprecation_reasons": null, "last_updated": null, "origins": null, "warnings": null, "structure": {"@module": "pymatgen.core.structure", "@class": "Structure", "charge": 0, "lattice": {"matrix": [[5.28449968, -1e-08, 0.0], [-2.64225035, 4.57651049, -0.0], [0.0, 0.0, 6.62983516]], "pbc": [true, true, true], "a": 5.28449968, "b": 5.284499520026014, "c": 6.62983516, "alpha": 90.0, "beta": 90.0, "gamma": 120.00000749478438, "volume": 160.33970053867827}, "properties": {}, "sites": [{"species": [{"element": "Tm", "occu": 1}], "abc": [0.0, -0.0, -0.0], "properties": {"magmom": 0.001}, "label": "Tm", "xyz": [0.0, 0.0, 0.0]}, {"species": [{"element": "Tm", "occu": 1}], "abc": [0.666667, 0.333333, 0.25], "properties": {"magmom": 0.001}, "label": "Tm", "xyz": [2.64225231225001, 1.5255019644965, 1.65745879]}, {"species": [{"element": "Tm", "occu": 1}], "abc": [0.333333, 0.666667, 0.75], "properties": {"magmom": 0.001}, "label": "Tm", "xyz": [-2.9822500100529226e-06, 3.0510085155035003, 4.97237637]}, {"species": [{"element": "Tm", "occu": 1}], "abc": [0.0, -0.0, 0.5], "properties": {"magmom": 0.001}, "label": "Tm", "xyz": [0.0, 0.0, 3.31491758]}, {"species": [{"element": "In", "occu": 1}], "abc": [0.333333, 0.666667, 0.25], "properties": {"magmom": -0.0}, "label": "In", "xyz": [-2.9822500100529226e-06, 3.0510085155035003, 1.65745879]}, {"species": [{"element": "In", "occu": 1}], "abc": [0.666667, 0.333333, 0.75], "properties": {"magmom": -0.0}, "label": "In", "xyz": [2.64225231225001, 1.5255019644965, 4.97237637]}]}, "task_ids": null, "uncorrected_energy_per_atom": null, "energy_per_atom": -31.39768019, "formation_energy_per_atom": -0.45745120333333406, "energy_above_hull": 0.0, "is_stable": true, "equilibrium_reaction_energy_per_atom": null, "decomposes_to": null, "xas": null, "grain_boundaries": null, "band_gap": 0.0, "cbm": null, "vbm": null, "efermi": 4.76127446, "is_gap_direct": null, "is_metal": null, "es_source_calc_id": null, "bandstructure": null, "dos": null, "dos_energy_up": null, "dos_energy_down": null, "is_magnetic": null, "ordering": null, "total_magnetization": 0.004941699999999, "total_magnetization_normalized_vol": null, "total_magnetization_normalized_formula_units": null, "num_magnetic_sites": null, "num_unique_magnetic_sites": null, "types_of_magnetic_species": null, "bulk_modulus": null, "shear_modulus": null, "universal_anisotropy": null, "homogeneous_poisson": null, "e_total": null, "e_ionic": null, "e_electronic": null, "n": null, "e_ij_max": null, "weighted_surface_energy_EV_PER_ANG2": null, "weighted_surface_energy": null, "weighted_work_function": null, "surface_anisotropy": null, "shape_factor": null, "has_reconstructed": null, "possible_species": null, "has_props": null, "theoretical": null, "database_IDs": null, "fields_not_requested": ["builder_meta", "nsites", "elements", "nelements", "composition", "composition_reduced", "chemsys", "symmetry", "property_name", "deprecated", "deprecation_reasons", "last_updated", "origins", "warnings", "task_ids", "uncorrected_energy_per_atom", "equilibrium_reaction_energy_per_atom", "decomposes_to", "xas", "grain_boundaries", "cbm", "vbm", "is_gap_direct", "is_metal", "es_source_calc_id", "bandstructure", "dos", "dos_energy_up", "dos_energy_down", "is_magnetic", "ordering", "total_magnetization_normalized_vol", "total_magnetization_normalized_formula_units", "num_magnetic_sites", "num_unique_magnetic_sites", "types_of_magnetic_species", "bulk_modulus", "shear_modulus", "universal_anisotropy", "homogeneous_poisson", "e_total", "e_ionic", "e_electronic", "n", "e_ij_max", "weighted_surface_energy_EV_PER_ANG2", "weighted_surface_energy", "weighted_work_function", "surface_anisotropy", "shape_factor", "has_reconstructed", "possible_species", "has_props", "theoretical", "database_IDs"]}