{"builder_meta": null, "nsites": null, "elements": null, "nelements": null, "composition": null, "composition_reduced": null, "formula_pretty": "Tm2Mg", "formula_anonymous": "AB2", "chemsys": null, "volume": 164.8783156284968, "density": 7.29511470931337, "density_atomic": 27.479719271416133, "symmetry": null, "property_name": null, "material_id": "mp-865323", "deprecated": null, "deprecation_reasons": null, "last_updated": null, "origins": null, "warnings": null, "structure": {"@module": "pymatgen.core.structure", "@class": "Structure", "charge": 0, "lattice": {"matrix": [[3.63203895, 0.00040218000000000003, 5.549999999999998e-06], [1.81703085, 8.46322131, 1.5040000000000002e-05], [8.16e-06, 7.65e-06, 5.36398645]], "pbc": [true, true, true], "a": 3.6320389722711757, "b": 8.656079716136864, "c": 5.363986450011661, "alpha": 89.99980225836454, "beta": 89.99982527755994, "gamma": 77.87635303072317, "volume": 164.8783156284968}, "properties": {}, "sites": [{"species": [{"element": "Tm", "occu": 1}], "abc": [0.98172563, 0.03650724, -3.009999999999998e-06], "properties": {"magmom": -0.0}, "label": "Tm", "xyz": [3.632000507677081, 0.3093636819281313, -1.014795307839999e-05]}, {"species": [{"element": "Tm", "occu": 1}], "abc": [0.66027746, 0.67808755, 1.5e-06], "properties": {"magmom": -0.0}, "label": "Tm", "xyz": [3.6302594498902248, 5.7390705536060285, 2.190895633e-05]}, {"species": [{"element": "Tm", "occu": 1}], "abc": [0.79560767, 0.40806549000000003, 0.50000198], "properties": {"magmom": -0.0}, "label": "Tm", "xyz": [3.6311497105252704, 3.4538723533514597, 2.6820143986207086]}, {"species": [{"element": "Tm", "occu": 1}], "abc": [0.11609762, 0.76655003, 0.4999999], "properties": {"magmom": 0.0}, "label": "Tm", "xyz": [1.8145202104199085, 6.4875330662171855, 2.682004861855597]}, {"species": [{"element": "Mg", "occu": 1}], "abc": [0.3221061, 0.35538915, 1.93e-06], "properties": {"magmom": -0.0}, "label": "Mg", "xyz": [1.8156549505536215, 3.007866572268849, 1.74852355195e-05]}, {"species": [{"element": "Mg", "occu": 1}], "abc": [0.45751951, 0.08873654, 0.49999469], "properties": {"magmom": -0.0}, "label": "Mg", "xyz": [1.822969791363844, 0.7511848064595776, 2.6819686160627922]}]}, "task_ids": null, "uncorrected_energy_per_atom": null, "energy_per_atom": -24.85902965833333, "formation_energy_per_atom": -0.05522960333333501, "energy_above_hull": 0.0, "is_stable": true, "equilibrium_reaction_energy_per_atom": null, "decomposes_to": null, "xas": null, "grain_boundaries": null, "band_gap": 0.0, "cbm": null, "vbm": null, "efermi": 2.9584761200000003, "is_gap_direct": null, "is_metal": null, "es_source_calc_id": null, "bandstructure": null, "dos": null, "dos_energy_up": null, "dos_energy_down": null, "is_magnetic": null, "ordering": null, "total_magnetization": 0.0, "total_magnetization_normalized_vol": null, "total_magnetization_normalized_formula_units": null, "num_magnetic_sites": null, "num_unique_magnetic_sites": null, "types_of_magnetic_species": null, "bulk_modulus": null, "shear_modulus": null, "universal_anisotropy": null, "homogeneous_poisson": null, "e_total": null, "e_ionic": null, "e_electronic": null, "n": null, "e_ij_max": null, "weighted_surface_energy_EV_PER_ANG2": null, "weighted_surface_energy": null, "weighted_work_function": null, "surface_anisotropy": null, "shape_factor": null, "has_reconstructed": null, "possible_species": null, "has_props": null, "theoretical": null, "database_IDs": null, "fields_not_requested": ["builder_meta", "nsites", "elements", "nelements", "composition", "composition_reduced", "chemsys", "symmetry", "property_name", "deprecated", "deprecation_reasons", "last_updated", "origins", "warnings", "task_ids", "uncorrected_energy_per_atom", "equilibrium_reaction_energy_per_atom", "decomposes_to", "xas", "grain_boundaries", "cbm", "vbm", "is_gap_direct", "is_metal", "es_source_calc_id", "bandstructure", "dos", "dos_energy_up", "dos_energy_down", "is_magnetic", "ordering", "total_magnetization_normalized_vol", "total_magnetization_normalized_formula_units", "num_magnetic_sites", "num_unique_magnetic_sites", "types_of_magnetic_species", "bulk_modulus", "shear_modulus", "universal_anisotropy", "homogeneous_poisson", "e_total", "e_ionic", "e_electronic", "n", "e_ij_max", "weighted_surface_energy_EV_PER_ANG2", "weighted_surface_energy", "weighted_work_function", "surface_anisotropy", "shape_factor", "has_reconstructed", "possible_species", "has_props", "theoretical", "database_IDs"]}