{
  "builder_meta": null,
  "nsites": null,
  "elements": null,
  "nelements": null,
  "composition": null,
  "composition_reduced": null,
  "formula_pretty": "Tm2N3",
  "formula_anonymous": "A2B3",
  "chemsys": null,
  "volume": 623.2055209870665,
  "density": 8.097742490005276,
  "density_atomic": 15.580138024676662,
  "symmetry": null,
  "property_name": null,
  "material_id": "mp-1202811",
  "deprecated": null,
  "deprecation_reasons": null,
  "last_updated": null,
  "origins": null,
  "warnings": null,
  "structure": {
    "@module": "pymatgen.core.structure",
    "@class": "Structure",
    "charge": 0,
    "lattice": {
      "matrix": [
        [-5.380927, 5.380927, 5.380927],
        [5.380927, -5.380927, 5.380927],
        [5.380927, 5.380927, -5.380927]
      ],
      "pbc": [true, true, true],
      "a": 9.320038955819175,
      "b": 9.320038955819175,
      "c": 9.320038955819175,
      "alpha": 109.47122063449069,
      "beta": 109.47122063449069,
      "gamma": 109.47122063449069,
      "volume": 623.2055209870665
    },
    "properties": {},
    "sites": [
      {
        "species": [{ "element": "Tm", "occu": 1 }],
        "abc": [0.5, 0.0, 0.5],
        "properties": { "magmom": 0.159 },
        "label": "Tm",
        "xyz": [0.0, 5.380927, 0.0]
      },
      {
        "species": [{ "element": "Tm", "occu": 1 }],
        "abc": [0.5, 0.5, 0.0],
        "properties": { "magmom": 0.159 },
        "label": "Tm",
        "xyz": [0.0, 0.0, 5.380927]
      },
      {
        "species": [{ "element": "Tm", "occu": 1 }],
        "abc": [0.0, 0.5, 0.5],
        "properties": { "magmom": 0.158 },
        "label": "Tm",
        "xyz": [5.380927, 0.0, 0.0]
      },
      {
        "species": [{ "element": "Tm", "occu": 1 }],
        "abc": [0.0, 0.0, 0.0],
        "properties": { "magmom": 0.159 },
        "label": "Tm",
        "xyz": [0.0, 0.0, 0.0]
      },
      {
        "species": [{ "element": "Tm", "occu": 1 }],
        "abc": [0.7800400000000001, 0.25, 0.03004],
        "properties": { "magmom": 0.17400000000000002 },
        "label": "Tm",
        "xyz": [-2.6904635, 3.01374959416, 5.380927]
      },
      {
        "species": [{ "element": "Tm", "occu": 1 }],
        "abc": [0.71996, 0.75, 0.46996000000000004],
        "properties": { "magmom": 0.17400000000000002 },
        "label": "Tm",
        "xyz": [2.6904635, 2.3671774058400006, 5.380927]
      },
      {
        "species": [{ "element": "Tm", "occu": 1 }],
        "abc": [0.25, 0.03004, 0.7800400000000001],
        "properties": { "magmom": 0.17400000000000002 },
        "label": "Tm",
        "xyz": [3.01374959416, 5.380927, -2.6904635]
      },
      {
        "species": [{ "element": "Tm", "occu": 1 }],
        "abc": [0.75, 0.46996000000000004, 0.71996],
        "properties": { "magmom": 0.17400000000000002 },
        "label": "Tm",
        "xyz": [2.3671774058400006, 5.380927, 2.6904634999999995]
      },
      {
        "species": [{ "element": "Tm", "occu": 1 }],
        "abc": [0.03004, 0.7800400000000001, 0.25],
        "properties": { "magmom": 0.17400000000000002 },
        "label": "Tm",
        "xyz": [5.380927, -2.6904635, 3.01374959416]
      },
      {
        "species": [{ "element": "Tm", "occu": 1 }],
        "abc": [0.46996000000000004, 0.71996, 0.75],
        "properties": { "magmom": 0.17400000000000002 },
        "label": "Tm",
        "xyz": [5.380927, 2.6904635, 2.3671774058400006]
      },
      {
        "species": [{ "element": "Tm", "occu": 1 }],
        "abc": [0.21996000000000002, 0.75, 0.96996],
        "properties": { "magmom": 0.17400000000000002 },
        "label": "Tm",
        "xyz": [8.0713905, 2.3671774058399997, 0.0]
      },
      {
        "species": [{ "element": "Tm", "occu": 1 }],
        "abc": [0.28004, 0.25, 0.5300400000000001],
        "properties": { "magmom": 0.17400000000000002 },
        "label": "Tm",
        "xyz": [2.6904635000000003, 3.0137495941600005, -4.440892098500626e-16]
      },
      {
        "species": [{ "element": "Tm", "occu": 1 }],
        "abc": [0.75, 0.96996, 0.21996000000000002],
        "properties": { "magmom": 0.17400000000000002 },
        "label": "Tm",
        "xyz": [2.3671774058399997, 2.220446049250313e-16, 8.0713905]
      },
      {
        "species": [{ "element": "Tm", "occu": 1 }],
        "abc": [0.25, 0.5300400000000001, 0.28004],
        "properties": { "magmom": 0.17400000000000002 },
        "label": "Tm",
        "xyz": [3.0137495941600005, -4.440892098500626e-16, 2.6904635]
      },
      {
        "species": [{ "element": "Tm", "occu": 1 }],
        "abc": [0.96996, 0.21996000000000002, 0.75],
        "properties": { "magmom": 0.17400000000000002 },
        "label": "Tm",
        "xyz": [0.0, 8.0713905, 2.3671774058399997]
      },
      {
        "species": [{ "element": "Tm", "occu": 1 }],
        "abc": [0.5300400000000001, 0.28004, 0.25],
        "properties": { "magmom": 0.17400000000000002 },
        "label": "Tm",
        "xyz": [-4.440892098500626e-16, 2.6904635000000003, 3.01374959416]
      },
      {
        "species": [{ "element": "N", "occu": 1 }],
        "abc": [0.48993299999999906, 0.230076999999999, 0.462603],
        "properties": { "magmom": 0.6890000000000001 },
        "label": "N",
        "xyz": [1.0909668064689992, 3.8874991394930003, 1.38508827628899]
      },
      {
        "species": [{ "element": "N", "occu": 1 }],
        "abc": [0.232525999999999, 0.269922999999999, 0.759856],
        "properties": { "magmom": 0.6890000000000001 },
        "label": "N",
        "xyz": [4.289960193531, 3.8874991394930003, -1.3850882762890109]
      },
      {
        "species": [{ "element": "N", "occu": 1 }],
        "abc": [0.010067, 0.47267099999999906, 0.740143999999999],
        "properties": { "magmom": 0.6890000000000001 },
        "label": "N",
        "xyz": [6.471899187395989, 1.49342247958, -1.3850828953619998]
      },
      {
        "species": [{ "element": "N", "occu": 1 }],
        "abc": [0.267474, 0.027329, 0.037397],
        "properties": { "magmom": 0.6890000000000001 },
        "label": "N",
        "xyz": [-1.0909721873959999, 1.493433241434, 1.3850828953619998]
      },
      {
        "species": [{ "element": "N", "occu": 1 }],
        "abc": [0.230076999999999, 0.462603, 0.48993299999999906],
        "properties": { "magmom": 0.6890000000000001 },
        "label": "N",
        "xyz": [3.8874991394930003, 1.3850882762889898, 1.090966806468999]
      },
      {
        "species": [{ "element": "N", "occu": 1 }],
        "abc": [0.269922999999999, 0.759856, 0.232525999999999],
        "properties": { "magmom": 0.6900000000000001 },
        "label": "N",
        "xyz": [3.8874991394930003, -1.3850882762890109, 4.289960193531]
      },
      {
        "species": [{ "element": "N", "occu": 1 }],
        "abc": [0.47267099999999906, 0.740143999999999, 0.010067],
        "properties": { "magmom": 0.6890000000000001 },
        "label": "N",
        "xyz": [1.49342247958, -1.3850828953619998, 6.47189918739599]
      },
      {
        "species": [{ "element": "N", "occu": 1 }],
        "abc": [0.027329, 0.037397, 0.267474],
        "properties": { "magmom": 0.6890000000000001 },
        "label": "N",
        "xyz": [1.493433241434, 1.3850828953619998, -1.0909721873959999]
      },
      {
        "species": [{ "element": "N", "occu": 1 }],
        "abc": [0.462603, 0.48993299999999906, 0.230076999999999],
        "properties": { "magmom": 0.6890000000000001 },
        "label": "N",
        "xyz": [1.3850882762889898, 1.0909668064689992, 3.8874991394929994]
      },
      {
        "species": [{ "element": "N", "occu": 1 }],
        "abc": [0.759856, 0.232525999999999, 0.269922999999999],
        "properties": { "magmom": 0.6900000000000001 },
        "label": "N",
        "xyz": [-1.3850882762890107, 4.289960193531, 3.8874991394930003]
      },
      {
        "species": [{ "element": "N", "occu": 1 }],
        "abc": [0.740143999999999, 0.010067, 0.47267099999999906],
        "properties": { "magmom": 0.6890000000000001 },
        "label": "N",
        "xyz": [-1.3850828953619998, 6.471899187395989, 1.49342247958]
      },
      {
        "species": [{ "element": "N", "occu": 1 }],
        "abc": [0.037397, 0.267474, 0.027329],
        "properties": { "magmom": 0.6890000000000001 },
        "label": "N",
        "xyz": [1.3850828953619998, -1.0909721873959999, 1.493433241434]
      },
      {
        "species": [{ "element": "N", "occu": 1 }],
        "abc": [0.510066999999999, 0.769922999999999, 0.537397],
        "properties": { "magmom": 0.6890000000000001 },
        "label": "N",
        "xyz": [4.289960193531, 1.4934278605070004, 3.9958387237109885]
      },
      {
        "species": [{ "element": "N", "occu": 1 }],
        "abc": [0.767474, 0.730077, 0.240144],
        "properties": { "magmom": 0.6890000000000001 },
        "label": "N",
        "xyz": [1.0909668064689997, 1.4934278605070002, 6.766015276289]
      },
      {
        "species": [{ "element": "N", "occu": 1 }],
        "abc": [0.989933, 0.527328999999999, 0.259856],
        "properties": { "magmom": 0.6890000000000001 },
        "label": "N",
        "xyz": [-1.0909721873960048, 3.8875045204200043, 6.766009895361995]
      },
      {
        "species": [{ "element": "N", "occu": 1 }],
        "abc": [0.732526, 0.972671, 0.962603],
        "properties": { "magmom": 0.6890000000000001 },
        "label": "N",
        "xyz": [6.471899187396, 3.8874937585660003, 3.9958441046379995]
      },
      {
        "species": [{ "element": "N", "occu": 1 }],
        "abc": [0.769922999999999, 0.537397, 0.510066999999999],
        "properties": { "magmom": 0.6890000000000001 },
        "label": "N",
        "xyz": [1.4934278605070004, 3.995838723710989, 4.289960193531]
      },
      {
        "species": [{ "element": "N", "occu": 1 }],
        "abc": [0.730077, 0.240144, 0.767474],
        "properties": { "magmom": 0.6900000000000001 },
        "label": "N",
        "xyz": [1.4934278605070004, 6.766015276288999, 1.090966806469]
      },
      {
        "species": [{ "element": "N", "occu": 1 }],
        "abc": [0.527328999999999, 0.259856, 0.989933],
        "properties": { "magmom": 0.6890000000000001 },
        "label": "N",
        "xyz": [3.8875045204200043, 6.766009895361995, -1.0909721873960052]
      },
      {
        "species": [{ "element": "N", "occu": 1 }],
        "abc": [0.972671, 0.962603, 0.732526],
        "properties": { "magmom": 0.6890000000000001 },
        "label": "N",
        "xyz": [3.8874937585660003, 3.9958441046379995, 6.471899187396001]
      },
      {
        "species": [{ "element": "N", "occu": 1 }],
        "abc": [0.537397, 0.510066999999999, 0.769922999999999],
        "properties": { "magmom": 0.6890000000000001 },
        "label": "N",
        "xyz": [3.995838723710989, 4.289960193531, 1.4934278605070004]
      },
      {
        "species": [{ "element": "N", "occu": 1 }],
        "abc": [0.240144, 0.767474, 0.730077],
        "properties": { "magmom": 0.6890000000000001 },
        "label": "N",
        "xyz": [6.766015276289, 1.0909668064689995, 1.493427860507]
      },
      {
        "species": [{ "element": "N", "occu": 1 }],
        "abc": [0.259856, 0.989933, 0.527328999999999],
        "properties": { "magmom": 0.6890000000000001 },
        "label": "N",
        "xyz": [6.766009895361995, -1.0909721873960048, 3.8875045204200047]
      },
      {
        "species": [{ "element": "N", "occu": 1 }],
        "abc": [0.962603, 0.732526, 0.972671],
        "properties": { "magmom": 0.6890000000000001 },
        "label": "N",
        "xyz": [3.9958441046379995, 6.471899187396, 3.8874937585659994]
      }
    ]
  },
  "task_ids": null,
  "uncorrected_energy_per_atom": null,
  "energy_per_atom": -20.413372094,
  "formation_energy_per_atom": -0.8877023752500001,
  "energy_above_hull": 0.8339426122500021,
  "is_stable": false,
  "equilibrium_reaction_energy_per_atom": null,
  "decomposes_to": null,
  "xas": null,
  "grain_boundaries": null,
  "band_gap": 0.0,
  "cbm": null,
  "vbm": null,
  "efermi": 1.6162855,
  "is_gap_direct": null,
  "is_metal": null,
  "es_source_calc_id": null,
  "bandstructure": null,
  "dos": null,
  "dos_energy_up": null,
  "dos_energy_down": null,
  "is_magnetic": null,
  "ordering": null,
  "total_magnetization": 23.9969004,
  "total_magnetization_normalized_vol": null,
  "total_magnetization_normalized_formula_units": null,
  "num_magnetic_sites": null,
  "num_unique_magnetic_sites": null,
  "types_of_magnetic_species": null,
  "bulk_modulus": null,
  "shear_modulus": null,
  "universal_anisotropy": null,
  "homogeneous_poisson": null,
  "e_total": null,
  "e_ionic": null,
  "e_electronic": null,
  "n": null,
  "e_ij_max": null,
  "weighted_surface_energy_EV_PER_ANG2": null,
  "weighted_surface_energy": null,
  "weighted_work_function": null,
  "surface_anisotropy": null,
  "shape_factor": null,
  "has_reconstructed": null,
  "possible_species": null,
  "has_props": null,
  "theoretical": null,
  "database_IDs": null,
  "fields_not_requested": [
    "builder_meta",
    "nsites",
    "elements",
    "nelements",
    "composition",
    "composition_reduced",
    "chemsys",
    "symmetry",
    "property_name",
    "deprecated",
    "deprecation_reasons",
    "last_updated",
    "origins",
    "warnings",
    "task_ids",
    "uncorrected_energy_per_atom",
    "equilibrium_reaction_energy_per_atom",
    "decomposes_to",
    "xas",
    "grain_boundaries",
    "cbm",
    "vbm",
    "is_gap_direct",
    "is_metal",
    "es_source_calc_id",
    "bandstructure",
    "dos",
    "dos_energy_up",
    "dos_energy_down",
    "is_magnetic",
    "ordering",
    "total_magnetization_normalized_vol",
    "total_magnetization_normalized_formula_units",
    "num_magnetic_sites",
    "num_unique_magnetic_sites",
    "types_of_magnetic_species",
    "bulk_modulus",
    "shear_modulus",
    "universal_anisotropy",
    "homogeneous_poisson",
    "e_total",
    "e_ionic",
    "e_electronic",
    "n",
    "e_ij_max",
    "weighted_surface_energy_EV_PER_ANG2",
    "weighted_surface_energy",
    "weighted_work_function",
    "surface_anisotropy",
    "shape_factor",
    "has_reconstructed",
    "possible_species",
    "has_props",
    "theoretical",
    "database_IDs"
  ]
}
