{
  "builder_meta": null,
  "nsites": null,
  "elements": null,
  "nelements": null,
  "composition": null,
  "composition_reduced": null,
  "formula_pretty": "Tm2O3",
  "formula_anonymous": "A2B3",
  "chemsys": null,
  "volume": 560.1576721567083,
  "density": 9.150946297529503,
  "density_atomic": 14.003941803917707,
  "symmetry": null,
  "property_name": null,
  "material_id": "mp-1767",
  "deprecated": null,
  "deprecation_reasons": null,
  "last_updated": null,
  "origins": null,
  "warnings": null,
  "structure": {
    "@module": "pymatgen.core.structure",
    "@class": "Structure",
    "charge": 0,
    "lattice": {
      "matrix": [
        [8.48010385, 0.0, -2.99816891],
        [-4.24005142, 7.34398394, -2.99816891],
        [0.0, 0.0, 8.99450773]
      ],
      "pbc": [true, true, true],
      "a": 8.99450822000155,
      "b": 8.994506821839234,
      "c": 8.99450773,
      "alpha": 109.47122042765353,
      "beta": 109.4712172787613,
      "gamma": 109.47122392221983,
      "volume": 560.1576721567083
    },
    "properties": {},
    "sites": [
      {
        "species": [{ "element": "Tm", "occu": 1 }],
        "abc": [0.5, 0.5, 0.5],
        "properties": { "magmom": 0.0 },
        "label": "Tm",
        "xyz": [2.120026215, 3.67199197, 1.4990849550000003]
      },
      {
        "species": [{ "element": "Tm", "occu": 1 }],
        "abc": [0.0, 0.0, 0.5],
        "properties": { "magmom": 0.0 },
        "label": "Tm",
        "xyz": [0.0, 0.0, 4.497253865]
      },
      {
        "species": [{ "element": "Tm", "occu": 1 }],
        "abc": [0.5, 0.0, 0.0],
        "properties": { "magmom": 0.0 },
        "label": "Tm",
        "xyz": [4.240051925, 0.0, -1.499084455]
      },
      {
        "species": [{ "element": "Tm", "occu": 1 }],
        "abc": [0.0, 0.5, 0.0],
        "properties": { "magmom": 0.0 },
        "label": "Tm",
        "xyz": [-2.12002571, 3.67199197, -1.499084455]
      },
      {
        "species": [{ "element": "Tm", "occu": 1 }],
        "abc": [0.25, 0.2170114, 0.9670114],
        "properties": { "magmom": 0.0 },
        "label": "Tm",
        "xyz": [1.1998864677738121, 1.593728236396916, 7.297612452202548]
      },
      {
        "species": [{ "element": "Tm", "occu": 1 }],
        "abc": [0.2829886, 0.532988599999999, 0.75],
        "properties": { "magmom": 0.0 },
        "label": "Tm",
        "xyz": [0.13987364609230202, 3.914259718603077, 4.299443325191151]
      },
      {
        "species": [{ "element": "Tm", "occu": 1 }],
        "abc": [0.532988599999999, 0.75, 0.2829886],
        "properties": { "magmom": 0.0 },
        "label": "Tm",
        "xyz": [1.3397601138661024, 5.507987955, -1.3012733822025448]
      },
      {
        "species": [{ "element": "Tm", "occu": 1 }],
        "abc": [0.2170114, 0.9670114, 0.25],
        "properties": { "magmom": 0.0 },
        "label": "Tm",
        "xyz": [-2.2598988510922977, 7.101716191396916, -1.3012734151911474]
      },
      {
        "species": [{ "element": "Tm", "occu": 1 }],
        "abc": [0.9670114, 0.25, 0.2170114],
        "properties": { "magmom": 0.0 },
        "label": "Tm",
        "xyz": [7.14034424113389, 1.835995985, -1.6968950277974517]
      },
      {
        "species": [{ "element": "Tm", "occu": 1 }],
        "abc": [0.75, 0.2829886, 0.532988599999999],
        "properties": { "magmom": 0.0 },
        "label": "Tm",
        "xyz": [5.160191672226189, 2.078263733603084, 1.6968957777974434]
      },
      {
        "species": [{ "element": "Tm", "occu": 1 }],
        "abc": [0.75, 0.782988599999999, 0.0329886],
        "properties": { "magmom": 0.0 },
        "label": "Tm",
        "xyz": [3.040165962226193, 5.750255703603077, -4.299442542202545]
      },
      {
        "species": [{ "element": "Tm", "occu": 1 }],
        "abc": [0.7170114, 0.467011399999999, 0.25],
        "properties": { "magmom": 0.0 },
        "label": "Tm",
        "xyz": [4.100178783907706, 3.429724221396909, -1.3012734151911451]
      },
      {
        "species": [{ "element": "Tm", "occu": 1 }],
        "abc": [0.467011399999999, 0.25, 0.7170114],
        "properties": { "magmom": 0.0 },
        "label": "Tm",
        "xyz": [2.900292316133882, 1.835995985, 4.299443292202551]
      },
      {
        "species": [{ "element": "Tm", "occu": 1 }],
        "abc": [0.782988599999999, 0.0329886, 0.75],
        "properties": { "magmom": 0.0 },
        "label": "Tm",
        "xyz": [6.49995128109229, 0.242267748603084, 4.299443325191151]
      },
      {
        "species": [{ "element": "Tm", "occu": 1 }],
        "abc": [0.0329886, 0.75, 0.782988599999999],
        "properties": { "magmom": 0.0 },
        "label": "Tm",
        "xyz": [-2.90029181113389, 5.507987955, 4.695064937797444]
      },
      {
        "species": [{ "element": "Tm", "occu": 1 }],
        "abc": [0.25, 0.7170114, 0.467011399999999],
        "properties": { "magmom": 0.0 },
        "label": "Tm",
        "xyz": [-0.9201392422261878, 5.2657202063969155, 1.3012741322025394]
      },
      {
        "species": [{ "element": "O", "occu": 1 }],
        "abc": [0.5317280600000001, 0.77111375, 0.5434656],
        "properties": { "magmom": -0.0 },
        "label": "O",
        "xyz": [1.2395472180900065, 5.6630469959131755, 0.9820657307989609]
      },
      {
        "species": [{ "element": "O", "occu": 1 }],
        "abc": [0.98826147, 0.9565344, 0.72764816],
        "properties": { "magmom": -0.0 },
        "label": "O",
        "xyz": [4.324804855554811, 7.024773271657536, 0.714010486109875]
      },
      {
        "species": [{ "element": "O", "occu": 1 }],
        "abc": [0.26061531, 0.77235184, 0.7288862500000001],
        "properties": { "magmom": -0.0 },
        "label": "O",
        "xyz": [-1.0647666222316694, 5.67213950898945, 3.4589630157344073]
      },
      {
        "species": [{ "element": "O", "occu": 1 }],
        "abc": [0.51173853, 0.23938469, 0.96827194],
        "properties": { "magmom": -0.0 },
        "label": "O",
        "xyz": [3.3245924836855814, 1.7580373188418787, 6.457135163289007]
      },
      {
        "species": [{ "element": "O", "occu": 1 }],
        "abc": [0.9565344, 0.72764816, 0.98826147],
        "properties": { "magmom": -0.0 },
        "label": "O",
        "xyz": [5.026245434029054, 5.343836401010551, 3.8394616410199536]
      },
      {
        "species": [{ "element": "O", "occu": 1 }],
        "abc": [0.7288862500000001, 0.26061531, 0.77235184],
        "properties": { "magmom": -0.0 },
        "label": "O",
        "xyz": [5.0760087795978235, 1.9139546511581214, 3.9802317815712236]
      },
      {
        "species": [{ "element": "O", "occu": 1 }],
        "abc": [0.23938469, 0.96827194, 0.51173853],
        "properties": { "magmom": -0.0 },
        "label": "O",
        "xyz": [-2.0755157828430986, 7.110973576912644, 0.9820776018024637]
      },
      {
        "species": [{ "element": "O", "occu": 1 }],
        "abc": [0.5434656, 0.5317280600000001, 0.77111375],
        "properties": { "magmom": -0.0 },
        "label": "O",
        "xyz": [2.3540904110457146, 3.905002333087357, 3.7121763814431774]
      },
      {
        "species": [{ "element": "O", "occu": 1 }],
        "abc": [0.77111375, 0.5434656, 0.5317280600000001],
        "properties": { "magmom": -0.0 },
        "label": "O",
        "xyz": [4.234802591161786, 3.991202638342464, 0.8413012090298961]
      },
      {
        "species": [{ "element": "O", "occu": 1 }],
        "abc": [0.72764816, 0.98826147, 0.9565344],
        "properties": { "magmom": -0.0 },
        "label": "O",
        "xyz": [1.9802525138566294, 7.257776364200792, 3.4589691497753092]
      },
      {
        "species": [{ "element": "O", "occu": 1 }],
        "abc": [0.77235184, 0.7288862500000001, 0.26061531],
        "properties": { "magmom": -0.0 },
        "label": "O",
        "xyz": [3.4591086326076086, 5.352928914086825, -2.156858947594435]
      },
      {
        "species": [{ "element": "O", "occu": 1 }],
        "abc": [0.96827194, 0.51173853, 0.23938469],
        "properties": { "magmom": -0.0 },
        "label": "O",
        "xyz": [6.041248925445757, 3.7581995457992083, -2.2841739329798334]
      },
      {
        "species": [{ "element": "O", "occu": 1 }],
        "abc": [0.46827194, 0.22888625, 0.4565344],
        "properties": { "magmom": -0.0 },
        "label": "O",
        "xyz": [3.0005052119099944, 1.6809369440868251, 2.0161041792010392]
      },
      {
        "species": [{ "element": "O", "occu": 1 }],
        "abc": [0.01173853, 0.0434656, 0.27235184],
        "properties": { "magmom": -0.0 },
        "label": "O",
        "xyz": [-0.0847524255548115, 0.31921066834246403, 2.2841594238901255]
      },
      {
        "species": [{ "element": "O", "occu": 1 }],
        "abc": [0.7393846900000001, 0.22764816000000002, 0.27111375],
        "properties": { "magmom": -0.0 },
        "label": "O",
        "xyz": [5.30481905223167, 1.6718444310105505, -0.46079310573440635]
      },
      {
        "species": [{ "element": "O", "occu": 1 }],
        "abc": [0.48826147000000003, 0.76061531, 0.03172806],
        "properties": { "magmom": -0.0 },
        "label": "O",
        "xyz": [0.9154599463144195, 5.585946621158122, -3.458965253289006]
      },
      {
        "species": [{ "element": "O", "occu": 1 }],
        "abc": [0.0434656, 0.27235184, 0.01173853],
        "properties": { "magmom": -0.0 },
        "label": "O",
        "xyz": [-0.7861930040290529, 2.0001475389894496, -0.8412917310199535]
      },
      {
        "species": [{ "element": "O", "occu": 1 }],
        "abc": [0.27111375, 0.7393846900000001, 0.22764816000000002],
        "properties": { "magmom": -0.0 },
        "label": "O",
        "xyz": [-0.8359563495978226, 5.4300292888418795, -0.9820618715712235]
      },
      {
        "species": [{ "element": "O", "occu": 1 }],
        "abc": [0.76061531, 0.03172806, 0.48826147000000003],
        "properties": { "magmom": -0.0 },
        "label": "O",
        "xyz": [6.315568212843099, 0.23301036308735643, 2.016092308197537]
      },
      {
        "species": [{ "element": "O", "occu": 1 }],
        "abc": [0.4565344, 0.46827194, 0.22888625],
        "properties": { "magmom": -0.0 },
        "label": "O",
        "xyz": [1.8859620189542854, 3.4389816069126438, -0.7140064714431769]
      },
      {
        "species": [{ "element": "O", "occu": 1 }],
        "abc": [0.22888625, 0.4565344, 0.46827194],
        "properties": { "magmom": -0.0 },
        "label": "O",
        "xyz": [0.0052498388382147265, 3.352781301657536, 2.1568687009701053]
      },
      {
        "species": [{ "element": "O", "occu": 1 }],
        "abc": [0.27235184, 0.01173853, 0.0434656],
        "properties": { "magmom": -0.0 },
        "label": "O",
        "xyz": [2.259799916143372, 0.08620757579920821, -0.4607992397753088]
      },
      {
        "species": [{ "element": "O", "occu": 1 }],
        "abc": [0.22764816000000002, 0.27111375, 0.7393846900000001],
        "properties": { "magmom": -0.0 },
        "label": "O",
        "xyz": [0.7809437973923912, 1.991055025913175, 5.155028857594436]
      },
      {
        "species": [{ "element": "O", "occu": 1 }],
        "abc": [0.03172806, 0.48826147000000003, 0.76061531],
        "properties": { "magmom": -0.0 },
        "label": "O",
        "xyz": [-1.8011964954457567, 3.5857843942007923, 5.282343842979834]
      }
    ]
  },
  "task_ids": null,
  "uncorrected_energy_per_atom": null,
  "energy_per_atom": -8.8518500985,
  "formation_energy_per_atom": -4.090072903500003,
  "energy_above_hull": 0.0,
  "is_stable": true,
  "equilibrium_reaction_energy_per_atom": null,
  "decomposes_to": null,
  "xas": null,
  "grain_boundaries": null,
  "band_gap": 3.6932,
  "cbm": null,
  "vbm": null,
  "efermi": 1.40880107,
  "is_gap_direct": null,
  "is_metal": null,
  "es_source_calc_id": null,
  "bandstructure": null,
  "dos": null,
  "dos_energy_up": null,
  "dos_energy_down": null,
  "is_magnetic": null,
  "ordering": null,
  "total_magnetization": 0.0,
  "total_magnetization_normalized_vol": null,
  "total_magnetization_normalized_formula_units": null,
  "num_magnetic_sites": null,
  "num_unique_magnetic_sites": null,
  "types_of_magnetic_species": null,
  "bulk_modulus": null,
  "shear_modulus": null,
  "universal_anisotropy": null,
  "homogeneous_poisson": null,
  "e_total": null,
  "e_ionic": null,
  "e_electronic": null,
  "n": null,
  "e_ij_max": null,
  "weighted_surface_energy_EV_PER_ANG2": null,
  "weighted_surface_energy": null,
  "weighted_work_function": null,
  "surface_anisotropy": null,
  "shape_factor": null,
  "has_reconstructed": null,
  "possible_species": null,
  "has_props": null,
  "theoretical": null,
  "database_IDs": null,
  "fields_not_requested": [
    "builder_meta",
    "nsites",
    "elements",
    "nelements",
    "composition",
    "composition_reduced",
    "chemsys",
    "symmetry",
    "property_name",
    "deprecated",
    "deprecation_reasons",
    "last_updated",
    "origins",
    "warnings",
    "task_ids",
    "uncorrected_energy_per_atom",
    "equilibrium_reaction_energy_per_atom",
    "decomposes_to",
    "xas",
    "grain_boundaries",
    "cbm",
    "vbm",
    "is_gap_direct",
    "is_metal",
    "es_source_calc_id",
    "bandstructure",
    "dos",
    "dos_energy_up",
    "dos_energy_down",
    "is_magnetic",
    "ordering",
    "total_magnetization_normalized_vol",
    "total_magnetization_normalized_formula_units",
    "num_magnetic_sites",
    "num_unique_magnetic_sites",
    "types_of_magnetic_species",
    "bulk_modulus",
    "shear_modulus",
    "universal_anisotropy",
    "homogeneous_poisson",
    "e_total",
    "e_ionic",
    "e_electronic",
    "n",
    "e_ij_max",
    "weighted_surface_energy_EV_PER_ANG2",
    "weighted_surface_energy",
    "weighted_work_function",
    "surface_anisotropy",
    "shape_factor",
    "has_reconstructed",
    "possible_species",
    "has_props",
    "theoretical",
    "database_IDs"
  ]
}
