{
  "builder_meta": null,
  "nsites": null,
  "elements": null,
  "nelements": null,
  "composition": null,
  "composition_reduced": null,
  "formula_pretty": "Tm2Pt",
  "formula_anonymous": "AB2",
  "chemsys": null,
  "volume": 283.4019259828233,
  "density": 12.490928718708135,
  "density_atomic": 23.616827165235275,
  "symmetry": null,
  "property_name": null,
  "material_id": "mp-1102133",
  "deprecated": null,
  "deprecation_reasons": null,
  "last_updated": null,
  "origins": null,
  "warnings": null,
  "structure": {
    "@module": "pymatgen.core.structure",
    "@class": "Structure",
    "charge": 0,
    "lattice": {
      "matrix": [
        [-8.9e-7, -4.68568195, 0.0],
        [-7.01080143, -1.24e-6, 5.593e-5],
        [6.821e-5, 0.0, -8.62705018]
      ],
      "pbc": [true, true, true],
      "a": 4.685681950000085,
      "b": 7.010801430223205,
      "c": 8.62705018026965,
      "alpha": 90.00091009855679,
      "beta": 90.00000000008603,
      "gamma": 89.99997898331958,
      "volume": 283.4019259828233
    },
    "properties": {},
    "sites": [
      {
        "species": [{ "element": "Tm", "occu": 1 }],
        "abc": [0.7499999900000001, 0.64350691, 0.57973178],
        "properties": { "magmom": -0.0 },
        "label": "Tm",
        "xyz": [-4.511460288838159, -3.5142622135917496, -5.001339165659244]
      },
      {
        "species": [{ "element": "Tm", "occu": 1 }],
        "abc": [0.7499999900000001, 0.14350691000000002, 0.92026822],
        "properties": { "magmom": -0.0 },
        "label": "Tm",
        "xyz": [-1.0060363458475863, -3.5142615935917494, -7.939192086657803]
      },
      {
        "species": [{ "element": "Tm", "occu": 1 }],
        "abc": [0.25, 0.35648954, 0.42025553],
        "properties": { "magmom": -0.0 },
        "label": "Tm",
        "xyz": [-2.499248933682341, -1.1714209295470297, -3.6255456072725227]
      },
      {
        "species": [{ "element": "Tm", "occu": 1 }],
        "abc": [0.25, 0.85648954, 0.07974547],
        "properties": { "magmom": -0.0 },
        "label": "Tm",
        "xyz": [-6.004672874873533, -1.1714215495470297, -0.6879202678577123]
      },
      {
        "species": [{ "element": "Tm", "occu": 1 }],
        "abc": [0.75000001, 0.51011526, 0.16714555],
        "properties": { "magmom": -0.0 },
        "label": "Tm",
        "xyz": [-3.576306060774865, -3.514262141899742, -1.4419445164672071]
      },
      {
        "species": [{ "element": "Tm", "occu": 1 }],
        "abc": [0.75000001, 0.010115260000000001, 0.33285445],
        "properties": { "magmom": -0.0 },
        "label": "Tm",
        "xyz": [-0.07089404277079621, -3.514261521899742, -2.871551477039809]
      },
      {
        "species": [{ "element": "Tm", "occu": 1 }],
        "abc": [0.24999997000000002, 0.48988754, 0.83287088],
        "properties": { "magmom": -0.0 },
        "label": "Tm",
        "xyz": [-3.434447678348431, -1.1714209543900913, -7.185191475810646]
      },
      {
        "species": [{ "element": "Tm", "occu": 1 }],
        "abc": [0.24999997000000002, 0.98988754, 0.66712912],
        "properties": { "magmom": -0.0 },
        "label": "Tm",
        "xyz": [-6.93985969859388, -1.1714215743900913, -5.755301030369129]
      },
      {
        "species": [{ "element": "Pt", "occu": 1 }],
        "abc": [0.74999984, 0.24057219999999901, 0.59400942],
        "properties": { "magmom": -0.0 },
        "label": "Pt",
        "xyz": [-1.6865640738955585, -3.514261011100416, -5.124535618529549]
      },
      {
        "species": [{ "element": "Pt", "occu": 1 }],
        "abc": [0.74999984, 0.7405722, 0.90599058],
        "properties": { "magmom": -0.0 },
        "label": "Pt",
        "xyz": [-5.191943508660642, -3.514261631100416, -7.815984776064158]
      },
      {
        "species": [{ "element": "Pt", "occu": 1 }],
        "abc": [0.2500002, 0.75942756, 0.40596318000000003],
        "properties": { "magmom": -0.0 },
        "label": "Pt",
        "xyz": [-5.324168355381081, -1.1714223663265646, -3.5022222503089417]
      },
      {
        "species": [{ "element": "Pt", "occu": 1 }],
        "abc": [0.2500002, 0.25942756, 0.09403682000000001],
        "properties": { "magmom": -0.0 },
        "label": "Pt",
        "xyz": [-1.8187889168780966, -1.1714217463265646, -0.8112458551241969]
      }
    ]
  },
  "task_ids": null,
  "uncorrected_energy_per_atom": null,
  "energy_per_atom": -41.678937409166664,
  "formation_energy_per_atom": -1.102332915833334,
  "energy_above_hull": 0.0,
  "is_stable": true,
  "equilibrium_reaction_energy_per_atom": null,
  "decomposes_to": null,
  "xas": null,
  "grain_boundaries": null,
  "band_gap": 0.0,
  "cbm": null,
  "vbm": null,
  "efermi": 4.18263383,
  "is_gap_direct": null,
  "is_metal": null,
  "es_source_calc_id": null,
  "bandstructure": null,
  "dos": null,
  "dos_energy_up": null,
  "dos_energy_down": null,
  "is_magnetic": null,
  "ordering": null,
  "total_magnetization": 2e-7,
  "total_magnetization_normalized_vol": null,
  "total_magnetization_normalized_formula_units": null,
  "num_magnetic_sites": null,
  "num_unique_magnetic_sites": null,
  "types_of_magnetic_species": null,
  "bulk_modulus": null,
  "shear_modulus": null,
  "universal_anisotropy": null,
  "homogeneous_poisson": null,
  "e_total": null,
  "e_ionic": null,
  "e_electronic": null,
  "n": null,
  "e_ij_max": null,
  "weighted_surface_energy_EV_PER_ANG2": null,
  "weighted_surface_energy": null,
  "weighted_work_function": null,
  "surface_anisotropy": null,
  "shape_factor": null,
  "has_reconstructed": null,
  "possible_species": null,
  "has_props": null,
  "theoretical": null,
  "database_IDs": null,
  "fields_not_requested": [
    "builder_meta",
    "nsites",
    "elements",
    "nelements",
    "composition",
    "composition_reduced",
    "chemsys",
    "symmetry",
    "property_name",
    "deprecated",
    "deprecation_reasons",
    "last_updated",
    "origins",
    "warnings",
    "task_ids",
    "uncorrected_energy_per_atom",
    "equilibrium_reaction_energy_per_atom",
    "decomposes_to",
    "xas",
    "grain_boundaries",
    "cbm",
    "vbm",
    "is_gap_direct",
    "is_metal",
    "es_source_calc_id",
    "bandstructure",
    "dos",
    "dos_energy_up",
    "dos_energy_down",
    "is_magnetic",
    "ordering",
    "total_magnetization_normalized_vol",
    "total_magnetization_normalized_formula_units",
    "num_magnetic_sites",
    "num_unique_magnetic_sites",
    "types_of_magnetic_species",
    "bulk_modulus",
    "shear_modulus",
    "universal_anisotropy",
    "homogeneous_poisson",
    "e_total",
    "e_ionic",
    "e_electronic",
    "n",
    "e_ij_max",
    "weighted_surface_energy_EV_PER_ANG2",
    "weighted_surface_energy",
    "weighted_work_function",
    "surface_anisotropy",
    "shape_factor",
    "has_reconstructed",
    "possible_species",
    "has_props",
    "theoretical",
    "database_IDs"
  ]
}
