{
  "builder_meta": null,
  "nsites": null,
  "elements": null,
  "nelements": null,
  "composition": null,
  "composition_reduced": null,
  "formula_pretty": "Tm2Se3",
  "formula_anonymous": "A2B3",
  "chemsys": null,
  "volume": 552.4242036816597,
  "density": 6.910574869935303,
  "density_atomic": 27.621210184082987,
  "symmetry": null,
  "property_name": null,
  "material_id": "mp-1189318",
  "deprecated": null,
  "deprecation_reasons": null,
  "last_updated": null,
  "origins": null,
  "warnings": null,
  "structure": {
    "@module": "pymatgen.core.structure",
    "@class": "Structure",
    "charge": 0,
    "lattice": {
      "matrix": [
        [5.66819574, 4.04445185, 0.00019159],
        [-5.66819632, 4.04445264, 0.00019258],
        [-7.2e-7, -4.04392356, 12.04845074]
      ],
      "pbc": [true, true, true],
      "a": 6.963191348126899,
      "b": 6.963192279145505,
      "c": 12.708992209979915,
      "alpha": 100.64896362640737,
      "beta": 100.64897619744757,
      "gamma": 108.98168113647704,
      "volume": 552.4242036816597
    },
    "properties": {},
    "sites": [
      {
        "species": [{ "element": "Tm", "occu": 1 }],
        "abc": [0.70914571, 0.95897893, 0.91791212],
        "properties": { "magmom": -0.0 },
        "label": "Tm",
        "xyz": [-1.4161048104189884, 3.0346840957943915, 11.059739506857888]
      },
      {
        "species": [{ "element": "Tm", "occu": 1 }],
        "abc": [0.5410212, 0.79085428, 0.58208785],
        "properties": { "magmom": -0.0 },
        "label": "Tm",
        "xyz": [-1.4161036775658138, 3.0327881032257737, 7.013512744046459]
      },
      {
        "species": [{ "element": "Tm", "occu": 1 }],
        "abc": [0.29085015000000003, 0.041010000000000005, 0.08208097],
        "properties": { "magmom": 0.0 },
        "label": "Tm",
        "xyz": [1.4161427910268625, 1.0102632615960245, 0.9890121454224563]
      },
      {
        "species": [{ "element": "Tm", "occu": 1 }],
        "abc": [0.45899052, 0.20914947, 0.41791921],
        "properties": { "magmom": 0.0 },
        "label": "Tm",
        "xyz": [1.416147553078603, 1.0122268443469755, 5.035407230983374]
      },
      {
        "species": [{ "element": "Tm", "occu": 1 }],
        "abc": [0.37247479, 0.62249837, 0.24481952],
        "properties": { "magmom": -0.0 },
        "label": "Tm",
        "xyz": [-1.4171831283746579, 3.0340901045601676, 2.949887170091556]
      },
      {
        "species": [{ "element": "Tm", "occu": 1 }],
        "abc": [0.87750186, 0.12752518000000002, 0.25518048],
        "properties": { "magmom": -0.0 },
        "label": "Tm",
        "xyz": [4.251014364980793, 3.0328532168488067, 3.0747221224700767]
      },
      {
        "species": [{ "element": "Tm", "occu": 1 }],
        "abc": [0.62752272, 0.37749812, 0.7551781200000001],
        "properties": { "magmom": -0.0 },
        "label": "Tm",
        "xyz": [1.4171876099380478, 1.010876102385561, 9.098919304411684]
      },
      {
        "species": [{ "element": "Tm", "occu": 1 }],
        "abc": [0.12250251000000001, 0.87247785, 0.74482196],
        "properties": { "magmom": 0.0 },
        "label": "Tm",
        "xyz": [-4.251008069602015, 1.0121477749237902, 8.974142187170495]
      },
      {
        "species": [{ "element": "Se", "occu": 1 }],
        "abc": [0.86726632, 0.11720088000000001, 0.74989085],
        "properties": { "magmom": 0.0 },
        "label": "Se",
        "xyz": [4.251517123831303, 0.9491290051495893, 9.035211696701447]
      },
      {
        "species": [{ "element": "Se", "occu": 1 }],
        "abc": [0.38279891, 0.6327335, 0.75010902],
        "properties": { "magmom": 0.0 },
        "label": "Se",
        "xyz": [-1.4166790853805704, 1.0738888956724129, 9.037846769360272]
      },
      {
        "species": [{ "element": "Se", "occu": 1 }],
        "abc": [0.13273949000000002, 0.88280406, 0.25011106],
        "properties": { "magmom": -0.0 },
        "label": "Se",
        "xyz": [-4.25151349250525, 3.095887678817702, 3.013646227903948]
      },
      {
        "species": [{ "element": "Se", "occu": 1 }],
        "abc": [0.61719569, 0.36726022, 0.24988905],
        "properties": { "magmom": -0.0 },
        "label": "Se",
        "xyz": [1.4166827733978538, 2.971052599897489, 3.0109648848858117]
      },
      {
        "species": [{ "element": "Se", "occu": 1 }],
        "abc": [0.54817507, 0.80448412, 0.08789073],
        "properties": { "magmom": 0.0 },
        "label": "Se",
        "xyz": [-1.4528103952155629, 5.115342205204858, 1.0592070833211311]
      },
      {
        "species": [{ "element": "Se", "occu": 1 }],
        "abc": [0.69551571, 0.9518246100000001, 0.41210931],
        "properties": { "magmom": 0.0 },
        "label": "Se",
        "xyz": [-1.4528098638810636, 4.996050808740691, 4.965595277268663]
      },
      {
        "species": [{ "element": "Se", "occu": 1 }],
        "abc": [0.21635424, 0.46068575, 0.41196042],
        "properties": { "magmom": 0.0 },
        "label": "Se",
        "xyz": [-1.3849193879390047, 1.072319555795729, 4.963614997370287]
      },
      {
        "species": [{ "element": "Se", "occu": 1 }],
        "abc": [0.03931398, 0.28364559, 0.08803959],
        "properties": { "magmom": 0.0 },
        "label": "Se",
        "xyz": [-1.3849196188522885, 0.9501692822279804, 1.0608028199179471]
      },
      {
        "species": [{ "element": "Se", "occu": 1 }],
        "abc": [0.45181221, 0.19551678, 0.91210103],
        "properties": { "magmom": -0.0 },
        "label": "Se",
        "xyz": [1.4527318943949943, -1.0703757586948788, 10.989528545181068]
      },
      {
        "species": [{ "element": "Se", "occu": 1 }],
        "abc": [0.30448317, 0.04818783, 0.58789887],
        "properties": { "magmom": -0.0 },
        "label": "Se",
        "xyz": [1.452731703133724, -0.9510571748306409, 7.0833381912395055]
      },
      {
        "species": [{ "element": "Se", "occu": 1 }],
        "abc": [0.78365675, 0.53932111, 0.58804027],
        "properties": { "magmom": -0.0 },
        "label": "Se",
        "xyz": [1.3849414975829355, 2.9727307773679574, 7.085228229487397]
      },
      {
        "species": [{ "element": "Se", "occu": 1 }],
        "abc": [0.9606789800000001, 0.71634336, 0.91195958],
        "properties": { "magmom": 0.0 },
        "label": "Se",
        "xyz": [1.384941048324213, 3.094741840085879, 10.988022086391135]
      }
    ]
  },
  "task_ids": null,
  "uncorrected_energy_per_atom": null,
  "energy_per_atom": -24.808360023,
  "formation_energy_per_atom": -2.1730045684375,
  "energy_above_hull": 0.0,
  "is_stable": true,
  "equilibrium_reaction_energy_per_atom": null,
  "decomposes_to": null,
  "xas": null,
  "grain_boundaries": null,
  "band_gap": 1.3417,
  "cbm": null,
  "vbm": null,
  "efermi": 1.92598289,
  "is_gap_direct": null,
  "is_metal": null,
  "es_source_calc_id": null,
  "bandstructure": null,
  "dos": null,
  "dos_energy_up": null,
  "dos_energy_down": null,
  "is_magnetic": null,
  "ordering": null,
  "total_magnetization": 0.0,
  "total_magnetization_normalized_vol": null,
  "total_magnetization_normalized_formula_units": null,
  "num_magnetic_sites": null,
  "num_unique_magnetic_sites": null,
  "types_of_magnetic_species": null,
  "bulk_modulus": null,
  "shear_modulus": null,
  "universal_anisotropy": null,
  "homogeneous_poisson": null,
  "e_total": null,
  "e_ionic": null,
  "e_electronic": null,
  "n": null,
  "e_ij_max": null,
  "weighted_surface_energy_EV_PER_ANG2": null,
  "weighted_surface_energy": null,
  "weighted_work_function": null,
  "surface_anisotropy": null,
  "shape_factor": null,
  "has_reconstructed": null,
  "possible_species": null,
  "has_props": null,
  "theoretical": null,
  "database_IDs": null,
  "fields_not_requested": [
    "builder_meta",
    "nsites",
    "elements",
    "nelements",
    "composition",
    "composition_reduced",
    "chemsys",
    "symmetry",
    "property_name",
    "deprecated",
    "deprecation_reasons",
    "last_updated",
    "origins",
    "warnings",
    "task_ids",
    "uncorrected_energy_per_atom",
    "equilibrium_reaction_energy_per_atom",
    "decomposes_to",
    "xas",
    "grain_boundaries",
    "cbm",
    "vbm",
    "is_gap_direct",
    "is_metal",
    "es_source_calc_id",
    "bandstructure",
    "dos",
    "dos_energy_up",
    "dos_energy_down",
    "is_magnetic",
    "ordering",
    "total_magnetization_normalized_vol",
    "total_magnetization_normalized_formula_units",
    "num_magnetic_sites",
    "num_unique_magnetic_sites",
    "types_of_magnetic_species",
    "bulk_modulus",
    "shear_modulus",
    "universal_anisotropy",
    "homogeneous_poisson",
    "e_total",
    "e_ionic",
    "e_electronic",
    "n",
    "e_ij_max",
    "weighted_surface_energy_EV_PER_ANG2",
    "weighted_surface_energy",
    "weighted_work_function",
    "surface_anisotropy",
    "shape_factor",
    "has_reconstructed",
    "possible_species",
    "has_props",
    "theoretical",
    "database_IDs"
  ]
}
