{"builder_meta": null, "nsites": null, "elements": null, "nelements": null, "composition": null, "composition_reduced": null, "formula_pretty": "Tm2S3", "formula_anonymous": "A2B3", "chemsys": null, "volume": 973.2298083170725, "density": 5.924843321750607, "density_atomic": 24.330745207926814, "symmetry": null, "property_name": null, "material_id": "mp-18529", "deprecated": null, "deprecation_reasons": null, "last_updated": null, "origins": null, "warnings": null, "structure": {"@module": "pymatgen.core.structure", "@class": "Structure", "charge": 0, "lattice": {"matrix": [[10.19458305, -0.0, -3.60432958], [-5.09729153, 8.82876875, -3.60432958], [0.0, 1e-08, 10.81298977]], "pbc": [true, true, true], "a": 10.812988268032584, "b": 10.81298896254173, "c": 10.81298977, "alpha": 109.47122017169082, "beta": 109.47122151867728, "gamma": 109.4712184757006, "volume": 973.2298083170725}, "properties": {}, "sites": [{"species": [{"element": "Tm", "occu": 1}], "abc": [0.95173236, 0.25, 0.20173236], "properties": {"magmom": 0.0}, "label": "Tm", "xyz": [8.4281917028925, 2.2071921895173237, -2.1501095474332512]}, {"species": [{"element": "Tm", "occu": 1}], "abc": [0.75, 0.29826764, 0.5482676400000001], "properties": {"magmom": 0.0}, "label": "Tm", "xyz": [6.125580172454912, 2.6333360246509265, 2.150110319933252]}, {"species": [{"element": "Tm", "occu": 1}], "abc": [0.20173236, 0.95173236, 0.25], "properties": {"magmom": 0.0}, "label": "Tm", "xyz": [-2.7946799995624128, 8.402624920831752, -1.4542195672824172]}, {"species": [{"element": "Tm", "occu": 1}], "abc": [0.29826764, 0.5482676400000001, 0.75], "properties": {"magmom": 0.0}, "label": "Tm", "xyz": [0.24603422956241294, 4.84052821416825, 5.058550177282417]}, {"species": [{"element": "Tm", "occu": 1}], "abc": [0.25, 0.20173236, 0.95173236], "properties": {"magmom": 0.0}, "label": "Tm", "xyz": [1.5203571125450894, 1.7810483653490736, 8.66287996506675]}, {"species": [{"element": "Tm", "occu": 1}], "abc": [0.5482676400000001, 0.75, 0.29826764], "properties": {"magmom": 0.0}, "label": "Tm", "xyz": [1.7663913421075028, 6.621576565482676, -1.4542195175667487]}, {"species": [{"element": "Tm", "occu": 1}], "abc": [0.04826764, 0.75, 0.7982676400000001], "properties": {"magmom": 0.0}, "label": "Tm", "xyz": [-3.330900182892498, 6.621576570482676, 5.754440157433251]}, {"species": [{"element": "Tm", "occu": 1}], "abc": [0.25, 0.70173236, 0.45173236], "properties": {"magmom": 0.0}, "label": "Tm", "xyz": [-1.0282886524549109, 6.195432735349074, 1.4542202900667487]}, {"species": [{"element": "Tm", "occu": 1}], "abc": [0.7982676400000001, 0.04826764, 0.75], "properties": {"magmom": 0.0}, "label": "Tm", "xyz": [7.891971519562414, 0.42614383916825, 5.058550177282417]}, {"species": [{"element": "Tm", "occu": 1}], "abc": [0.70173236, 0.45173236, 0.25], "properties": {"magmom": 0.0}, "label": "Tm", "xyz": [4.851257290437589, 3.9882405458317503, -1.4542195672824172]}, {"species": [{"element": "Tm", "occu": 1}], "abc": [0.75, 0.7982676400000001, 0.04826764], "properties": {"magmom": 0.0}, "label": "Tm", "xyz": [3.576934407454911, 7.047720394650927, -5.0585493550667495]}, {"species": [{"element": "Tm", "occu": 1}], "abc": [0.45173236, 0.25, 0.70173236], "properties": {"magmom": 0.0}, "label": "Tm", "xyz": [3.330900177892498, 2.2071921945173236, 5.058550127566749]}, {"species": [{"element": "Tm", "occu": 1}], "abc": [0.0, 0.5, 0.0], "properties": {"magmom": 0.0}, "label": "Tm", "xyz": [-2.548645765, 4.414384375, -1.80216479]}, {"species": [{"element": "Tm", "occu": 1}], "abc": [0.5, 0.0, 0.0], "properties": {"magmom": 0.0}, "label": "Tm", "xyz": [5.097291525, 0.0, -1.80216479]}, {"species": [{"element": "Tm", "occu": 1}], "abc": [0.0, 0.0, 0.5], "properties": {"magmom": 0.0}, "label": "Tm", "xyz": [0.0, 5e-09, 5.406494885]}, {"species": [{"element": "Tm", "occu": 1}], "abc": [0.5, 0.5, 0.5], "properties": {"magmom": 0.0}, "label": "Tm", "xyz": [2.5486457600000003, 4.41438438, 1.802165305]}, {"species": [{"element": "S", "occu": 1}], "abc": [0.05417074, 0.27724099, 0.00974148], "properties": {"magmom": -0.0}, "label": "S", "xyz": [-0.8609300422858577, 2.4476965888284776, -1.0891825780133138]}, {"species": [{"element": "S", "occu": 1}], "abc": [0.76749851, 0.04442926, 0.49025852000000003], "properties": {"magmom": -0.0}, "label": "S", "xyz": [7.597858410264088, 0.3922556671762102, 2.374705083180904]}, {"species": [{"element": "S", "occu": 1}], "abc": [0.73250149, 0.22275901, 0.27692875], "properties": {"magmom": -0.0}, "label": "S", "xyz": [6.332079659149559, 1.966687789038225, -0.4486459359867023]}, {"species": [{"element": "S", "occu": 1}], "abc": [0.45557074000000003, 0.22307125, 0.44582926], "properties": {"magmom": -0.0}, "label": "S", "xyz": [3.507294550868445, 1.9694444854817301, 2.374697828759606]}, {"species": [{"element": "S", "occu": 1}], "abc": [0.22307125, 0.44582926, 0.45557074000000003], "properties": {"magmom": -0.0}, "label": "S", "xyz": [0.0015966733681449519, 3.9361234430793326, 2.5151438568612448]}, {"species": [{"element": "S", "occu": 1}], "abc": [0.00974148, 0.05417074, 0.27724099], "properties": {"magmom": -0.0}, "label": "S", "xyz": [-0.17681372728591818, 0.47826093924878493, 2.767443283625205]}, {"species": [{"element": "S", "occu": 1}], "abc": [0.04442926, 0.49025852000000003, 0.76749851], "properties": {"magmom": -0.0}, "label": "S", "xyz": [-2.0460528205862927, 4.328379108472236, 6.37176255560171]}, {"species": [{"element": "S", "occu": 1}], "abc": [0.27692875, 0.73250149, 0.22275901], "properties": {"magmom": -0.0}, "label": "S", "xyz": [-0.9106004998816921, 6.467086266468027, -1.2296283766731713]}, {"species": [{"element": "S", "occu": 1}], "abc": [0.27724099, 0.00974148, 0.05417074], "properties": {"magmom": -0.0}, "label": "S", "xyz": [2.7767011339255556, 0.0860052747444574, -0.44863174810913287]}, {"species": [{"element": "S", "occu": 1}], "abc": [0.49025852000000003, 0.76749851, 0.04442926], "properties": {"magmom": -0.0}, "label": "S", "xyz": [1.0858175437994668, 6.776066861203855, -4.052957733813277]}, {"species": [{"element": "S", "occu": 1}], "abc": [0.22275901, 0.27692875, 0.73250149], "properties": {"magmom": -0.0}, "label": "S", "xyz": [0.8593486557922931, 2.444939901301577, 6.119491743747816]}, {"species": [{"element": "S", "occu": 1}], "abc": [0.44582926, 0.45557074000000003, 0.22307125], "properties": {"magmom": -0.0}, "label": "S", "xyz": [2.222866542872211, 4.022128714957088, -0.8368755391808875]}, {"species": [{"element": "S", "occu": 1}], "abc": [0.94582926, 0.72275901, 0.99025852], "properties": {"magmom": -0.0}, "label": "S", "xyz": [5.958221562285859, 6.381072171171523, 4.6935131880133145]}, {"species": [{"element": "S", "occu": 1}], "abc": [0.23250149, 0.95557074, 0.50974148], "properties": {"magmom": -0.0}, "label": "S", "xyz": [-2.5005668902640874, 8.43651309282379, 1.2296255268190954]}, {"species": [{"element": "S", "occu": 1}], "abc": [0.26749851, 0.77724099, 0.72307125], "properties": {"magmom": -0.0}, "label": "S", "xyz": [-1.2347881391495585, 6.862080970961776, 4.052976545986702]}, {"species": [{"element": "S", "occu": 1}], "abc": [0.54442926, 0.7769287500000001, 0.55417074], "properties": {"magmom": -0.0}, "label": "S", "xyz": [1.589996969131556, 6.85932427451827, 1.2296327812403938]}, {"species": [{"element": "S", "occu": 1}], "abc": [0.55417074, 0.54442926, 0.7769287500000001], "properties": {"magmom": -0.0}, "label": "S", "xyz": [2.874424977127789, 4.806640045042912, 4.441206149180888]}, {"species": [{"element": "S", "occu": 1}], "abc": [0.77724099, 0.72307125, 0.26749851], "properties": {"magmom": -0.0}, "label": "S", "xyz": [4.237942864207707, 6.383828858698423, -2.5151611337478164]}, {"species": [{"element": "S", "occu": 1}], "abc": [0.50974148, 0.23250149, 0.95557074], "properties": {"magmom": -0.0}, "label": "S", "xyz": [4.011473976200534, 2.052701898796145, 7.657288343813276]}, {"species": [{"element": "S", "occu": 1}], "abc": [0.72275901, 0.99025852, 0.94582926], "properties": {"magmom": -0.0}, "label": "S", "xyz": [2.3205903860744455, 8.742763485255542, 4.052962358109132]}, {"species": [{"element": "S", "occu": 1}], "abc": [0.72307125, 0.26749851, 0.77724099], "properties": {"magmom": -0.0}, "label": "S", "xyz": [6.007892019881693, 2.3616824935319727, 4.8339589866731725]}, {"species": [{"element": "S", "occu": 1}], "abc": [0.95557074, 0.50974148, 0.23250149], "properties": {"magmom": -0.0}, "label": "S", "xyz": [7.143344340586292, 4.500389651527764, -2.76743194560171]}, {"species": [{"element": "S", "occu": 1}], "abc": [0.99025852, 0.94582926, 0.72275901], "properties": {"magmom": -0.0}, "label": "S", "xyz": [5.274105247285919, 8.350507820751217, 0.8368873263747947]}, {"species": [{"element": "S", "occu": 1}], "abc": [0.7769287500000001, 0.55417074, 0.54442926], "properties": {"magmom": -0.0}, "label": "S", "xyz": [5.095694846631856, 4.892645316920668, 1.0891867531387565]}]}, "task_ids": null, "uncorrected_energy_per_atom": null, "energy_per_atom": -21.24989816675, "formation_energy_per_atom": -2.3804794014375, "energy_above_hull": 0.0, "is_stable": true, "equilibrium_reaction_energy_per_atom": null, "decomposes_to": null, "xas": null, "grain_boundaries": null, "band_gap": 2.3929, "cbm": null, "vbm": null, "efermi": 2.28317886, "is_gap_direct": null, "is_metal": null, "es_source_calc_id": null, "bandstructure": null, "dos": null, "dos_energy_up": null, "dos_energy_down": null, "is_magnetic": null, "ordering": null, "total_magnetization": 0.0, "total_magnetization_normalized_vol": null, "total_magnetization_normalized_formula_units": null, "num_magnetic_sites": null, "num_unique_magnetic_sites": null, "types_of_magnetic_species": null, "bulk_modulus": null, "shear_modulus": null, "universal_anisotropy": null, "homogeneous_poisson": null, "e_total": null, "e_ionic": null, "e_electronic": null, "n": null, "e_ij_max": null, "weighted_surface_energy_EV_PER_ANG2": null, "weighted_surface_energy": null, "weighted_work_function": null, "surface_anisotropy": null, "shape_factor": null, "has_reconstructed": null, "possible_species": null, "has_props": null, "theoretical": null, "database_IDs": null, "fields_not_requested": ["builder_meta", "nsites", "elements", "nelements", "composition", "composition_reduced", "chemsys", "symmetry", "property_name", "deprecated", "deprecation_reasons", "last_updated", "origins", "warnings", "task_ids", "uncorrected_energy_per_atom", "equilibrium_reaction_energy_per_atom", "decomposes_to", "xas", "grain_boundaries", "cbm", "vbm", "is_gap_direct", "is_metal", "es_source_calc_id", "bandstructure", "dos", "dos_energy_up", "dos_energy_down", "is_magnetic", "ordering", "total_magnetization_normalized_vol", "total_magnetization_normalized_formula_units", "num_magnetic_sites", "num_unique_magnetic_sites", "types_of_magnetic_species", "bulk_modulus", "shear_modulus", "universal_anisotropy", "homogeneous_poisson", "e_total", "e_ionic", "e_electronic", "n", "e_ij_max", "weighted_surface_energy_EV_PER_ANG2", "weighted_surface_energy", "weighted_work_function", "surface_anisotropy", "shape_factor", "has_reconstructed", "possible_species", "has_props", "theoretical", "database_IDs"]}