{"builder_meta": null, "nsites": null, "elements": null, "nelements": null, "composition": null, "composition_reduced": null, "formula_pretty": "Tm2Te5", "formula_anonymous": "A2B5", "chemsys": null, "volume": 411.11133101232554, "density": 7.883351846717322, "density_atomic": 29.365095072308968, "symmetry": null, "property_name": null, "material_id": "mp-1104890", "deprecated": null, "deprecation_reasons": null, "last_updated": null, "origins": null, "warnings": null, "structure": {"@module": "pymatgen.core.structure", "@class": "Structure", "charge": 0, "lattice": {"matrix": [[2.183997, -21.473683, 0.0], [2.183997, 21.473683, 0.0], [0.0, 0.0, 4.382994]], "pbc": [true, true, true], "a": 21.584459791259498, "b": 21.584459791259498, "c": 4.382994, "alpha": 90.0, "beta": 90.0, "gamma": 168.3853175122632, "volume": 411.11133101232554}, "properties": {}, "sites": [{"species": [{"element": "Tm", "occu": 1}], "abc": [0.902351999999999, 0.097648, 0.75], "properties": {"magmom": 0.0}, "label": "Tm", "xyz": [2.183996999999998, -17.279958604831982, 3.2872455]}, {"species": [{"element": "Tm", "occu": 1}], "abc": [0.097648, 0.902351999999999, 0.25], "properties": {"magmom": 0.0}, "label": "Tm", "xyz": [2.183996999999998, 17.279958604831982, 1.0957485]}, {"species": [{"element": "Tm", "occu": 1}], "abc": [0.693075, 0.306925, 0.75], "properties": {"magmom": -0.0}, "label": "Tm", "xyz": [2.183997, -8.292062690449999, 3.2872455]}, {"species": [{"element": "Tm", "occu": 1}], "abc": [0.306925, 0.693075, 0.25], "properties": {"magmom": -0.0}, "label": "Tm", "xyz": [2.183997, 8.292062690449999, 1.0957485]}, {"species": [{"element": "Te", "occu": 1}], "abc": [0.041783, 0.958217, 0.75], "properties": {"magmom": 0.0}, "label": "Te", "xyz": [2.183997, 19.679213206422, 3.2872455]}, {"species": [{"element": "Te", "occu": 1}], "abc": [0.958217, 0.041783, 0.25], "properties": {"magmom": 0.0}, "label": "Te", "xyz": [2.183997, -19.679213206422, 1.0957485]}, {"species": [{"element": "Te", "occu": 1}], "abc": [0.457771, 0.542229, 0.75], "properties": {"magmom": -0.0}, "label": "Te", "xyz": [2.183997, 1.813624318814, 3.2872455]}, {"species": [{"element": "Te", "occu": 1}], "abc": [0.542229, 0.457771, 0.25], "properties": {"magmom": -0.0}, "label": "Te", "xyz": [2.183997, -1.813624318814, 1.0957485]}, {"species": [{"element": "Te", "occu": 1}], "abc": [0.249999, 0.750000999999999, 0.75], "properties": {"magmom": -0.0}, "label": "Te", "xyz": [2.183996999999998, 10.73688444736598, 3.2872455]}, {"species": [{"element": "Te", "occu": 1}], "abc": [0.750000999999999, 0.249999, 0.25], "properties": {"magmom": -0.0}, "label": "Te", "xyz": [2.183996999999998, -10.73688444736598, 1.0957485]}, {"species": [{"element": "Te", "occu": 1}], "abc": [0.827627999999999, 0.172372, 0.75], "properties": {"magmom": 0.0}, "label": "Te", "xyz": [2.183996999999998, -14.070759627847979, 3.2872455]}, {"species": [{"element": "Te", "occu": 1}], "abc": [0.172372, 0.827627999999999, 0.25], "properties": {"magmom": 0.0}, "label": "Te", "xyz": [2.183996999999998, 14.070759627847979, 1.0957485]}, {"species": [{"element": "Te", "occu": 1}], "abc": [0.620078, 0.379922, 0.75], "properties": {"magmom": 0.0}, "label": "Te", "xyz": [2.183997, -5.157033814548001, 3.2872455]}, {"species": [{"element": "Te", "occu": 1}], "abc": [0.379922, 0.620078, 0.25], "properties": {"magmom": 0.0}, "label": "Te", "xyz": [2.183997, 5.157033814548001, 1.0957485]}]}, "task_ids": null, "uncorrected_energy_per_atom": null, "energy_per_atom": -29.28363202392858, "formation_energy_per_atom": -1.093886576785722, "energy_above_hull": 0.07358629678570901, "is_stable": false, "equilibrium_reaction_energy_per_atom": null, "decomposes_to": null, "xas": null, "grain_boundaries": null, "band_gap": 0.0, "cbm": null, "vbm": null, "efermi": 6.0633051, "is_gap_direct": null, "is_metal": null, "es_source_calc_id": null, "bandstructure": null, "dos": null, "dos_energy_up": null, "dos_energy_down": null, "is_magnetic": null, "ordering": null, "total_magnetization": 0.0116343, "total_magnetization_normalized_vol": null, "total_magnetization_normalized_formula_units": null, "num_magnetic_sites": null, "num_unique_magnetic_sites": null, "types_of_magnetic_species": null, "bulk_modulus": null, "shear_modulus": null, "universal_anisotropy": null, "homogeneous_poisson": null, "e_total": null, "e_ionic": null, "e_electronic": null, "n": null, "e_ij_max": null, "weighted_surface_energy_EV_PER_ANG2": null, "weighted_surface_energy": null, "weighted_work_function": null, "surface_anisotropy": null, "shape_factor": null, "has_reconstructed": null, "possible_species": null, "has_props": null, "theoretical": null, "database_IDs": null, "fields_not_requested": ["builder_meta", "nsites", "elements", "nelements", "composition", "composition_reduced", "chemsys", "symmetry", "property_name", "deprecated", "deprecation_reasons", "last_updated", "origins", "warnings", "task_ids", "uncorrected_energy_per_atom", "equilibrium_reaction_energy_per_atom", "decomposes_to", "xas", "grain_boundaries", "cbm", "vbm", "is_gap_direct", "is_metal", "es_source_calc_id", "bandstructure", "dos", "dos_energy_up", "dos_energy_down", "is_magnetic", "ordering", "total_magnetization_normalized_vol", "total_magnetization_normalized_formula_units", "num_magnetic_sites", "num_unique_magnetic_sites", "types_of_magnetic_species", "bulk_modulus", "shear_modulus", "universal_anisotropy", "homogeneous_poisson", "e_total", "e_ionic", "e_electronic", "n", "e_ij_max", "weighted_surface_energy_EV_PER_ANG2", "weighted_surface_energy", "weighted_work_function", "surface_anisotropy", "shape_factor", "has_reconstructed", "possible_species", "has_props", "theoretical", "database_IDs"]}