{
  "builder_meta": null,
  "nsites": null,
  "elements": null,
  "nelements": null,
  "composition": null,
  "composition_reduced": null,
  "formula_pretty": "Tm2Te3",
  "formula_anonymous": "A2B3",
  "chemsys": null,
  "volume": 678.0679013115893,
  "density": 7.059458577290676,
  "density_atomic": 33.90339506557946,
  "symmetry": null,
  "property_name": null,
  "material_id": "mp-1188133",
  "deprecated": null,
  "deprecation_reasons": null,
  "last_updated": null,
  "origins": null,
  "warnings": null,
  "structure": {
    "@module": "pymatgen.core.structure",
    "@class": "Structure",
    "charge": 0,
    "lattice": {
      "matrix": [
        [6.08619182, 4.31227408, -0.00141781],
        [-6.08619181, 4.31227304, -0.00141781],
        [-1e-8, -4.31651478, 12.91929936]
      ],
      "pbc": [true, true, true],
      "a": 7.4590509195915775,
      "b": 7.4590503101807215,
      "c": 13.621328709023024,
      "alpha": 100.56698450440304,
      "beta": 100.56698627619554,
      "gamma": 109.36226296917113,
      "volume": 678.0679013115893
    },
    "properties": {},
    "sites": [
      {
        "species": [{ "element": "Tm", "occu": 1 }],
        "abc": [0.707587699999999, 0.95778008, 0.91578868],
        "properties": { "magmom": -0.0 },
        "label": "Tm",
        "xyz": [-1.5227188161624232, 3.2285059426931637, 11.828986932327084]
      },
      {
        "species": [{ "element": "Tm", "occu": 1 }],
        "abc": [0.54221992, 0.7924123, 0.58421132],
        "properties": { "magmom": -0.0 },
        "label": "Tm",
        "xyz": [-1.5227188145003214, 3.233542307106756, 7.545708677672916]
      },
      {
        "species": [{ "element": "Tm", "occu": 1 }],
        "abc": [0.29243014, 0.04222399, 0.08420907],
        "properties": { "magmom": 0.0 },
        "label": "Tm",
        "xyz": [1.5228026230238423, 1.0796305913859463, 1.0874477081851397]
      },
      {
        "species": [{ "element": "Tm", "occu": 1 }],
        "abc": [0.45777601, 0.20756886, 0.41579193000000003],
        "properties": { "magmom": 0.0 },
        "label": "Tm",
        "xyz": [1.5228087075532823, 1.0743772100406295, 5.370797082532031]
      },
      {
        "species": [{ "element": "Tm", "occu": 1 }],
        "abc": [0.37454028, 0.62447252, 0.24870949],
        "properties": { "magmom": 0.0 },
        "label": "Tm",
        "xyz": [-1.521135550884646, 3.2344581640655408, 3.2117359446449587]
      },
      {
        "species": [{ "element": "Tm", "occu": 1 }],
        "abc": [0.87552848, 0.12545972, 0.25129051],
        "properties": { "magmom": 0.0 },
        "label": "Tm",
        "xyz": [4.565062350291235, 3.231836138279009, 3.245078113937232]
      },
      {
        "species": [{ "element": "Tm", "occu": 1 }],
        "abc": [0.62547454, 0.37551503, 0.75130169],
        "properties": { "magmom": 0.0 },
        "label": "Tm",
        "xyz": [1.5213015213353418, 1.0735361374017356, 9.704872229761676]
      },
      {
        "species": [{ "element": "Tm", "occu": 1 }],
        "abc": [0.12448497, 0.87452546, 0.74869831],
        "properties": { "magmom": 0.0 },
        "label": "Tm",
        "xyz": [-4.56489029364852, 1.0762385525561542, 9.671241190238323]
      },
      {
        "species": [{ "element": "Te", "occu": 1 }],
        "abc": [0.87510846, 0.12529486, 0.75025449],
        "properties": { "magmom": 0.0 },
        "label": "Te",
        "xyz": [4.563509392595155, 1.0755285812289288, 9.691343970662997]
      },
      {
        "species": [{ "element": "Te", "occu": 1 }],
        "abc": [0.37470514, 0.62489154, 0.74974551],
        "properties": { "magmom": 0.0 },
        "label": "Te",
        "xyz": [-1.5226824224037876, 1.0742466285772152, 9.684769449337002]
      },
      {
        "species": [{ "element": "Te", "occu": 1 }],
        "abc": [0.12484319999999902, 0.87466955, 0.24971522000000002],
        "properties": { "magmom": -0.0 },
        "label": "Te",
        "xyz": [-4.563586991540919, 3.2322725768772322, 3.224728562756182]
      },
      {
        "species": [{ "element": "Te", "occu": 1 }],
        "abc": [0.62533045, 0.375156799999999, 0.25028478],
        "properties": { "magmom": -0.0 },
        "label": "Te",
        "xyz": [1.522604823458269, 3.2340168933033544, 3.232085497243818]
      },
      {
        "species": [{ "element": "Te", "occu": 1 }],
        "abc": [0.5434128, 0.7947606500000001, 0.08458644],
        "properties": { "magmom": -0.0 },
        "label": "Te",
        "xyz": [-1.5297512215428453, 5.405451237980516, 1.0909002644575339]
      },
      {
        "species": [{ "element": "Te", "occu": 1 }],
        "abc": [0.70523935, 0.9565872, 0.41541356],
        "properties": { "magmom": -0.0 },
        "label": "Te",
        "xyz": [-1.529751223232851, 5.373111790617719, 5.364495985542466]
      },
      {
        "species": [{ "element": "Te", "occu": 1 }],
        "abc": [0.21098251, 0.45908076000000003, 0.41497513],
        "properties": { "magmom": -0.0 },
        "label": "Te",
        "xyz": [-1.5099735392652587, 1.0982497117596297, 5.3602379090200785]
      },
      {
        "species": [{ "element": "Te", "occu": 1 }],
        "abc": [0.04091924, 0.28901749, 0.08502487],
        "properties": { "magmom": -0.0 },
        "label": "Te",
        "xyz": [-1.5099735376663888, 1.0557662002181902, 1.0979939609799219]
      },
      {
        "species": [{ "element": "Te", "occu": 1 }],
        "abc": [0.45655394, 0.20522241, 0.91540815],
        "properties": { "magmom": -0.0 },
        "label": "Te",
        "xyz": [1.5296518948922273, -1.0976120217767558, 11.82549365330699]
      },
      {
        "species": [{ "element": "Te", "occu": 1 }],
        "abc": [0.29477759000000003, 0.04344606, 0.58459185],
        "properties": { "magmom": -0.0 },
        "label": "Te",
        "xyz": [1.529651896582627, -1.0648863268384536, 7.55203757669301]
      },
      {
        "species": [{ "element": "Te", "occu": 1 }],
        "abc": [0.78903673, 0.54095146, 0.58502614],
        "properties": { "magmom": -0.0 },
        "label": "Te",
        "xyz": [1.509894540495744, 3.2099990558572475, 7.556242165529606]
      },
      {
        "species": [{ "element": "Te", "occu": 1 }],
        "abc": [0.95904954, 0.71096327, 0.91497386],
        "properties": { "magmom": -0.0 },
        "label": "Te",
        "xyz": [1.5099006250882054, 3.2520540244255125, 11.818453443052585]
      }
    ]
  },
  "task_ids": null,
  "uncorrected_energy_per_atom": null,
  "energy_per_atom": -30.933215925000002,
  "formation_energy_per_atom": -1.634462023000003,
  "energy_above_hull": 0.0,
  "is_stable": true,
  "equilibrium_reaction_energy_per_atom": null,
  "decomposes_to": null,
  "xas": null,
  "grain_boundaries": null,
  "band_gap": 0.5788000000000001,
  "cbm": null,
  "vbm": null,
  "efermi": 3.88230758,
  "is_gap_direct": null,
  "is_metal": null,
  "es_source_calc_id": null,
  "bandstructure": null,
  "dos": null,
  "dos_energy_up": null,
  "dos_energy_down": null,
  "is_magnetic": null,
  "ordering": null,
  "total_magnetization": 0.0,
  "total_magnetization_normalized_vol": null,
  "total_magnetization_normalized_formula_units": null,
  "num_magnetic_sites": null,
  "num_unique_magnetic_sites": null,
  "types_of_magnetic_species": null,
  "bulk_modulus": null,
  "shear_modulus": null,
  "universal_anisotropy": null,
  "homogeneous_poisson": null,
  "e_total": null,
  "e_ionic": null,
  "e_electronic": null,
  "n": null,
  "e_ij_max": null,
  "weighted_surface_energy_EV_PER_ANG2": null,
  "weighted_surface_energy": null,
  "weighted_work_function": null,
  "surface_anisotropy": null,
  "shape_factor": null,
  "has_reconstructed": null,
  "possible_species": null,
  "has_props": null,
  "theoretical": null,
  "database_IDs": null,
  "fields_not_requested": [
    "builder_meta",
    "nsites",
    "elements",
    "nelements",
    "composition",
    "composition_reduced",
    "chemsys",
    "symmetry",
    "property_name",
    "deprecated",
    "deprecation_reasons",
    "last_updated",
    "origins",
    "warnings",
    "task_ids",
    "uncorrected_energy_per_atom",
    "equilibrium_reaction_energy_per_atom",
    "decomposes_to",
    "xas",
    "grain_boundaries",
    "cbm",
    "vbm",
    "is_gap_direct",
    "is_metal",
    "es_source_calc_id",
    "bandstructure",
    "dos",
    "dos_energy_up",
    "dos_energy_down",
    "is_magnetic",
    "ordering",
    "total_magnetization_normalized_vol",
    "total_magnetization_normalized_formula_units",
    "num_magnetic_sites",
    "num_unique_magnetic_sites",
    "types_of_magnetic_species",
    "bulk_modulus",
    "shear_modulus",
    "universal_anisotropy",
    "homogeneous_poisson",
    "e_total",
    "e_ionic",
    "e_electronic",
    "n",
    "e_ij_max",
    "weighted_surface_energy_EV_PER_ANG2",
    "weighted_surface_energy",
    "weighted_work_function",
    "surface_anisotropy",
    "shape_factor",
    "has_reconstructed",
    "possible_species",
    "has_props",
    "theoretical",
    "database_IDs"
  ]
}
