{
  "builder_meta": null,
  "nsites": null,
  "elements": null,
  "nelements": null,
  "composition": null,
  "composition_reduced": null,
  "formula_pretty": "Tm3Al2",
  "formula_anonymous": "A2B3",
  "chemsys": null,
  "volume": 489.0543244738309,
  "density": 7.6161139359478565,
  "density_atomic": 24.452716223691546,
  "symmetry": null,
  "property_name": null,
  "material_id": "mp-982635",
  "deprecated": null,
  "deprecation_reasons": null,
  "last_updated": null,
  "origins": null,
  "warnings": null,
  "structure": {
    "@module": "pymatgen.core.structure",
    "@class": "Structure",
    "charge": 0,
    "lattice": {
      "matrix": [
        [8.07445461, 1.2e-7, 0.0],
        [-1.2e-7, 8.07445461, 0.0],
        [0.0, 0.0, 7.50119937]
      ],
      "pbc": [true, true, true],
      "a": 8.07445461,
      "b": 8.07445461,
      "c": 7.50119937,
      "alpha": 90.0,
      "beta": 90.0,
      "gamma": 90.0,
      "volume": 489.0543244738309
    },
    "properties": {},
    "sites": [
      {
        "species": [{ "element": "Tm", "occu": 1 }],
        "abc": [1e-6, 0.499998999999999, 0.25],
        "properties": { "magmom": -0.0 },
        "label": "Tm",
        "xyz": [8.014454729999999e-6, 4.037219230545502, 1.8752998425]
      },
      {
        "species": [{ "element": "Tm", "occu": 1 }],
        "abc": [0.499998999999999, -0.0, 0.25],
        "properties": { "magmom": 0.0 },
        "label": "Tm",
        "xyz": [4.037219230545382, 5.999987999999988e-8, 1.8752998425]
      },
      {
        "species": [{ "element": "Tm", "occu": 1 }],
        "abc": [0.499998999999999, -0.0, 0.75],
        "properties": { "magmom": 0.0 },
        "label": "Tm",
        "xyz": [4.037219230545382, 5.999987999999988e-8, 5.6258995275]
      },
      {
        "species": [{ "element": "Tm", "occu": 1 }],
        "abc": [1e-6, 0.499998999999999, 0.75],
        "properties": { "magmom": -0.0 },
        "label": "Tm",
        "xyz": [8.014454729999999e-6, 4.037219230545502, 5.6258995275]
      },
      {
        "species": [{ "element": "Tm", "occu": 1 }],
        "abc": [0.34820208, 0.34813705, -0.0],
        "properties": { "magmom": 0.0 },
        "label": "Tm",
        "xyz": [2.811541848291143, 2.8110168500685497, 0.0]
      },
      {
        "species": [{ "element": "Tm", "occu": 1 }],
        "abc": [0.65179792, 0.65186295, -0.0],
        "properties": { "magmom": 0.0 },
        "label": "Tm",
        "xyz": [5.262912641708858, 5.26343787993145, 0.0]
      },
      {
        "species": [{ "element": "Tm", "occu": 1 }],
        "abc": [0.84813805, 0.15179992, 0.500001],
        "properties": { "magmom": 0.0 },
        "label": "Tm",
        "xyz": [6.84825216952292, 1.2257016656181974, 3.75060718619937]
      },
      {
        "species": [{ "element": "Tm", "occu": 1 }],
        "abc": [0.15186495, 0.84820208, 0.500001],
        "properties": { "magmom": 0.0 },
        "label": "Tm",
        "xyz": [1.2262265438406699, 6.848769213291383, 3.75060718619937]
      },
      {
        "species": [{ "element": "Tm", "occu": 1 }],
        "abc": [0.20183191, 0.79820197, -0.0],
        "properties": { "magmom": 0.0 },
        "label": "Tm",
        "xyz": [1.6296825003603688, 6.445045600597411, 0.0]
      },
      {
        "species": [{ "element": "Tm", "occu": 1 }],
        "abc": [0.79817009, 0.20179903, -0.0],
        "properties": { "magmom": 0.0 },
        "label": "Tm",
        "xyz": [6.444788138548732, 1.629417203857439, 0.0]
      },
      {
        "species": [{ "element": "Tm", "occu": 1 }],
        "abc": [0.70179703, 0.70183091, 0.500001],
        "properties": { "magmom": 0.0 },
        "label": "Tm",
        "xyz": [5.666628179948099, 5.666901910905638, 3.75060718619937]
      },
      {
        "species": [{ "element": "Tm", "occu": 1 }],
        "abc": [0.29820197, 0.29816909, 0.500001],
        "properties": { "magmom": 0.0 },
        "label": "Tm",
        "xyz": [2.407818235597291, 2.4075528190942417, 3.75060718619937]
      },
      {
        "species": [{ "element": "Al", "occu": 1 }],
        "abc": [0.11877706, 0.11880764, 0.19826976000000002],
        "properties": { "magmom": -0.0 },
        "label": "Al",
        "xyz": [0.9590599654223299, 0.9593069107544677, 1.4872609988020513]
      },
      {
        "species": [{ "element": "Al", "occu": 1 }],
        "abc": [0.88122194, 0.8811903600000001, 0.19826976000000002],
        "properties": { "magmom": -0.0 },
        "label": "Al",
        "xyz": [7.1153864501233, 7.115131670336193, 1.4872609988020513]
      },
      {
        "species": [{ "element": "Al", "occu": 1 }],
        "abc": [0.61880864, 0.38122294, 0.30173124],
        "properties": { "magmom": -0.0 },
        "label": "Al",
        "xyz": [4.996542230209077, 3.0781673995777905, 2.263346187397319]
      },
      {
        "species": [{ "element": "Al", "occu": 1 }],
        "abc": [0.38119236, 0.61877806, 0.30173124],
        "properties": { "magmom": -0.0 },
        "label": "Al",
        "xyz": [3.077920334245413, 4.99629540487694, 2.263346187397319]
      },
      {
        "species": [{ "element": "Al", "occu": 1 }],
        "abc": [0.88122194, 0.8811903600000001, 0.8017312400000001],
        "properties": { "magmom": -0.0 },
        "label": "Al",
        "xyz": [7.1153864501233, 7.115131670336193, 6.013945872397319]
      },
      {
        "species": [{ "element": "Al", "occu": 1 }],
        "abc": [0.11877706, 0.11880764, 0.8017312400000001],
        "properties": { "magmom": -0.0 },
        "label": "Al",
        "xyz": [0.9590599654223299, 0.9593069107544677, 6.013945872397319]
      },
      {
        "species": [{ "element": "Al", "occu": 1 }],
        "abc": [0.61880864, 0.38122294, 0.69826976],
        "properties": { "magmom": -0.0 },
        "label": "Al",
        "xyz": [4.996542230209077, 3.0781673995777905, 5.237860683802051]
      },
      {
        "species": [{ "element": "Al", "occu": 1 }],
        "abc": [0.38119236, 0.61877806, 0.69826876],
        "properties": { "magmom": -0.0 },
        "label": "Al",
        "xyz": [3.077920334245413, 4.99629540487694, 5.237853182602682]
      }
    ]
  },
  "task_ids": null,
  "uncorrected_energy_per_atom": null,
  "energy_per_atom": -24.147270481,
  "formation_energy_per_atom": -0.381802175000004,
  "energy_above_hull": 0.0,
  "is_stable": true,
  "equilibrium_reaction_energy_per_atom": null,
  "decomposes_to": null,
  "xas": null,
  "grain_boundaries": null,
  "band_gap": 0.0,
  "cbm": null,
  "vbm": null,
  "efermi": 3.97367006,
  "is_gap_direct": null,
  "is_metal": null,
  "es_source_calc_id": null,
  "bandstructure": null,
  "dos": null,
  "dos_energy_up": null,
  "dos_energy_down": null,
  "is_magnetic": null,
  "ordering": null,
  "total_magnetization": 1.1e-6,
  "total_magnetization_normalized_vol": null,
  "total_magnetization_normalized_formula_units": null,
  "num_magnetic_sites": null,
  "num_unique_magnetic_sites": null,
  "types_of_magnetic_species": null,
  "bulk_modulus": null,
  "shear_modulus": null,
  "universal_anisotropy": null,
  "homogeneous_poisson": null,
  "e_total": null,
  "e_ionic": null,
  "e_electronic": null,
  "n": null,
  "e_ij_max": null,
  "weighted_surface_energy_EV_PER_ANG2": null,
  "weighted_surface_energy": null,
  "weighted_work_function": null,
  "surface_anisotropy": null,
  "shape_factor": null,
  "has_reconstructed": null,
  "possible_species": null,
  "has_props": null,
  "theoretical": null,
  "database_IDs": null,
  "fields_not_requested": [
    "builder_meta",
    "nsites",
    "elements",
    "nelements",
    "composition",
    "composition_reduced",
    "chemsys",
    "symmetry",
    "property_name",
    "deprecated",
    "deprecation_reasons",
    "last_updated",
    "origins",
    "warnings",
    "task_ids",
    "uncorrected_energy_per_atom",
    "equilibrium_reaction_energy_per_atom",
    "decomposes_to",
    "xas",
    "grain_boundaries",
    "cbm",
    "vbm",
    "is_gap_direct",
    "is_metal",
    "es_source_calc_id",
    "bandstructure",
    "dos",
    "dos_energy_up",
    "dos_energy_down",
    "is_magnetic",
    "ordering",
    "total_magnetization_normalized_vol",
    "total_magnetization_normalized_formula_units",
    "num_magnetic_sites",
    "num_unique_magnetic_sites",
    "types_of_magnetic_species",
    "bulk_modulus",
    "shear_modulus",
    "universal_anisotropy",
    "homogeneous_poisson",
    "e_total",
    "e_ionic",
    "e_electronic",
    "n",
    "e_ij_max",
    "weighted_surface_energy_EV_PER_ANG2",
    "weighted_surface_energy",
    "weighted_work_function",
    "surface_anisotropy",
    "shape_factor",
    "has_reconstructed",
    "possible_species",
    "has_props",
    "theoretical",
    "database_IDs"
  ]
}
