{"builder_meta": null, "nsites": null, "elements": null, "nelements": null, "composition": null, "composition_reduced": null, "formula_pretty": "Tm3C4", "formula_anonymous": "A3B4", "chemsys": null, "volume": 987.3932546525145, "density": 9.331059414252495, "density_atomic": 14.105617923607351, "symmetry": null, "property_name": null, "material_id": "mp-1205180", "deprecated": null, "deprecation_reasons": null, "last_updated": null, "origins": null, "warnings": null, "structure": {"@module": "pymatgen.core.structure", "@class": "Structure", "charge": 0, "lattice": {"matrix": [[7.9254336, 0.0, -0.0], [-0.0, 7.9254336, -0.0], [0.0, 0.0, 15.71969417]], "pbc": [true, true, true], "a": 7.9254336, "b": 7.9254336, "c": 15.71969417, "alpha": 90.0, "beta": 90.0, "gamma": 90.0, "volume": 987.3932546525145}, "properties": {}, "sites": [{"species": [{"element": "Tm", "occu": 1}], "abc": [0.5, 0.5, 0.5], "properties": {"magmom": 0.0}, "label": "Tm", "xyz": [3.9627168, 3.9627168, 7.859847085]}, {"species": [{"element": "Tm", "occu": 1}], "abc": [-0.0, -0.0, 0.0], "properties": {"magmom": 0.0}, "label": "Tm", "xyz": [0.0, 0.0, 0.0]}, {"species": [{"element": "Tm", "occu": 1}], "abc": [0.5, 0.5, 0.18724107], "properties": {"magmom": 0.0}, "label": "Tm", "xyz": [3.9627168, 3.9627168, 2.9433723564635623]}, {"species": [{"element": "Tm", "occu": 1}], "abc": [-0.0, -0.0, 0.68724107], "properties": {"magmom": 0.0}, "label": "Tm", "xyz": [0.0, 0.0, 10.803219441463563]}, {"species": [{"element": "Tm", "occu": 1}], "abc": [0.5, 0.5, 0.81275893], "properties": {"magmom": 0.0}, "label": "Tm", "xyz": [3.9627168, 3.9627168, 12.776321813536438]}, {"species": [{"element": "Tm", "occu": 1}], "abc": [-0.0, -0.0, 0.31275893], "properties": {"magmom": 0.0}, "label": "Tm", "xyz": [0.0, 0.0, 4.916474728536438]}, {"species": [{"element": "Tm", "occu": 1}], "abc": [0.70249847, 0.90431569, 0.5], "properties": {"magmom": 0.0}, "label": "Tm", "xyz": [5.5676049780865915, 7.1670939545331835, 7.859847085]}, {"species": [{"element": "Tm", "occu": 1}], "abc": [0.29750153, 0.09568431000000001, 0.5], "properties": {"magmom": 0.0}, "label": "Tm", "xyz": [2.357828621913408, 0.7583396454668161, 7.859847085]}, {"species": [{"element": "Tm", "occu": 1}], "abc": [0.79750153, 0.40431569, 0.0], "properties": {"magmom": 0.0}, "label": "Tm", "xyz": [6.320545421913408, 3.204377154533184, 0.0]}, {"species": [{"element": "Tm", "occu": 1}], "abc": [0.20249847, 0.59568431, 0.0], "properties": {"magmom": 0.0}, "label": "Tm", "xyz": [1.604888178086592, 4.721056445466816, 0.0]}, {"species": [{"element": "Tm", "occu": 1}], "abc": [0.90431569, 0.29750153, 0.5], "properties": {"magmom": 0.0}, "label": "Tm", "xyz": [7.1670939545331835, 2.357828621913408, 7.859847085]}, {"species": [{"element": "Tm", "occu": 1}], "abc": [0.09568431000000001, 0.70249847, 0.5], "properties": {"magmom": 0.0}, "label": "Tm", "xyz": [0.7583396454668161, 5.5676049780865915, 7.859847085]}, {"species": [{"element": "Tm", "occu": 1}], "abc": [0.40431569, 0.20249847, 0.0], "properties": {"magmom": 0.0}, "label": "Tm", "xyz": [3.204377154533184, 1.604888178086592, 0.0]}, {"species": [{"element": "Tm", "occu": 1}], "abc": [0.59568431, 0.79750153, 0.0], "properties": {"magmom": 0.0}, "label": "Tm", "xyz": [4.721056445466816, 6.320545421913408, 0.0]}, {"species": [{"element": "Tm", "occu": 1}], "abc": [0.78800294, 0.59992698, 0.35422221], "properties": {"magmom": -0.0}, "label": "Tm", "xyz": [6.245264977574784, 4.7546814448385275, 5.568264809421516]}, {"species": [{"element": "Tm", "occu": 1}], "abc": [0.21199706000000001, 0.40007302, 0.35422221], "properties": {"magmom": -0.0}, "label": "Tm", "xyz": [1.6801686224252161, 3.170752155161472, 5.568264809421516]}, {"species": [{"element": "Tm", "occu": 1}], "abc": [0.71199706, 0.09992698, 0.85422221], "properties": {"magmom": -0.0}, "label": "Tm", "xyz": [5.642885422425215, 0.791964644838528, 13.428111894421516]}, {"species": [{"element": "Tm", "occu": 1}], "abc": [0.28800294, 0.90007302, 0.85422221], "properties": {"magmom": -0.0}, "label": "Tm", "xyz": [2.282548177574784, 7.133468955161472, 13.428111894421516]}, {"species": [{"element": "Tm", "occu": 1}], "abc": [0.59992698, 0.21199706000000001, 0.35422221], "properties": {"magmom": -0.0}, "label": "Tm", "xyz": [4.7546814448385275, 1.6801686224252161, 5.568264809421516]}, {"species": [{"element": "Tm", "occu": 1}], "abc": [0.40007302, 0.78800294, 0.35422221], "properties": {"magmom": -0.0}, "label": "Tm", "xyz": [3.170752155161472, 6.245264977574784, 5.568264809421516]}, {"species": [{"element": "Tm", "occu": 1}], "abc": [0.09992698, 0.28800294, 0.85422221], "properties": {"magmom": -0.0}, "label": "Tm", "xyz": [0.791964644838528, 2.282548177574784, 13.428111894421516]}, {"species": [{"element": "Tm", "occu": 1}], "abc": [0.90007302, 0.71199706, 0.85422221], "properties": {"magmom": -0.0}, "label": "Tm", "xyz": [7.133468955161472, 5.642885422425215, 13.428111894421516]}, {"species": [{"element": "Tm", "occu": 1}], "abc": [0.21199706000000001, 0.40007302, 0.64577779], "properties": {"magmom": -0.0}, "label": "Tm", "xyz": [1.6801686224252161, 3.170752155161472, 10.151429360578485]}, {"species": [{"element": "Tm", "occu": 1}], "abc": [0.78800294, 0.59992698, 0.64577779], "properties": {"magmom": -0.0}, "label": "Tm", "xyz": [6.245264977574784, 4.7546814448385275, 10.151429360578485]}, {"species": [{"element": "Tm", "occu": 1}], "abc": [0.28800294, 0.90007302, 0.14577779], "properties": {"magmom": -0.0}, "label": "Tm", "xyz": [2.282548177574784, 7.133468955161472, 2.291582275578484]}, {"species": [{"element": "Tm", "occu": 1}], "abc": [0.71199706, 0.09992698, 0.14577779], "properties": {"magmom": -0.0}, "label": "Tm", "xyz": [5.642885422425215, 0.791964644838528, 2.291582275578484]}, {"species": [{"element": "Tm", "occu": 1}], "abc": [0.40007302, 0.78800294, 0.64577779], "properties": {"magmom": -0.0}, "label": "Tm", "xyz": [3.170752155161472, 6.245264977574784, 10.151429360578485]}, {"species": [{"element": "Tm", "occu": 1}], "abc": [0.59992698, 0.21199706000000001, 0.64577779], "properties": {"magmom": -0.0}, "label": "Tm", "xyz": [4.7546814448385275, 1.6801686224252161, 10.151429360578485]}, {"species": [{"element": "Tm", "occu": 1}], "abc": [0.90007302, 0.71199706, 0.14577779], "properties": {"magmom": -0.0}, "label": "Tm", "xyz": [7.133468955161472, 5.642885422425215, 2.291582275578484]}, {"species": [{"element": "Tm", "occu": 1}], "abc": [0.09992698, 0.28800294, 0.14577779], "properties": {"magmom": -0.0}, "label": "Tm", "xyz": [0.791964644838528, 2.282548177574784, 2.291582275578484]}, {"species": [{"element": "C", "occu": 1}], "abc": [0.5, 0.5, 0.95855223], "properties": {"magmom": 0.0}, "label": "C", "xyz": [3.9627168, 3.9627168, 15.0681479015715]}, {"species": [{"element": "C", "occu": 1}], "abc": [-0.0, -0.0, 0.45855223], "properties": {"magmom": 0.0}, "label": "C", "xyz": [0.0, 0.0, 7.2083008165715]}, {"species": [{"element": "C", "occu": 1}], "abc": [0.5, 0.5, 0.04144777], "properties": {"magmom": 0.0}, "label": "C", "xyz": [3.9627168, 3.9627168, 0.6515462684285009]}, {"species": [{"element": "C", "occu": 1}], "abc": [-0.0, -0.0, 0.54144777], "properties": {"magmom": 0.0}, "label": "C", "xyz": [0.0, 0.0, 8.5113933534285]}, {"species": [{"element": "C", "occu": 1}], "abc": [0.5, 0.5, 0.34277349], "properties": {"magmom": 0.0}, "label": "C", "xyz": [3.9627168, 3.9627168, 5.388294432383554]}, {"species": [{"element": "C", "occu": 1}], "abc": [-0.0, -0.0, 0.84277349], "properties": {"magmom": 0.0}, "label": "C", "xyz": [0.0, 0.0, 13.248141517383553]}, {"species": [{"element": "C", "occu": 1}], "abc": [0.5, 0.5, 0.65722651], "properties": {"magmom": 0.0}, "label": "C", "xyz": [3.9627168, 3.9627168, 10.331399737616447]}, {"species": [{"element": "C", "occu": 1}], "abc": [-0.0, -0.0, 0.15722651], "properties": {"magmom": 0.0}, "label": "C", "xyz": [0.0, 0.0, 2.471552652616447]}, {"species": [{"element": "C", "occu": 1}], "abc": [0.60618041, 0.1959599, 0.5], "properties": {"magmom": -0.0}, "label": "C", "xyz": [4.804242589075776, 1.55306717571264, 7.859847085]}, {"species": [{"element": "C", "occu": 1}], "abc": [0.39381959, 0.804040099999999, 0.5], "properties": {"magmom": -0.0}, "label": "C", "xyz": [3.121191010924224, 6.372366424287352, 7.859847085]}, {"species": [{"element": "C", "occu": 1}], "abc": [0.89381959, 0.6959599, 0.0], "properties": {"magmom": -0.0}, "label": "C", "xyz": [7.083907810924224, 5.5157839757126395, 0.0]}, {"species": [{"element": "C", "occu": 1}], "abc": [0.10618041, 0.3040401, 0.0], "properties": {"magmom": -0.0}, "label": "C", "xyz": [0.841525789075776, 2.40964962428736, 0.0]}, {"species": [{"element": "C", "occu": 1}], "abc": [0.1959599, 0.39381959, 0.5], "properties": {"magmom": -0.0}, "label": "C", "xyz": [1.55306717571264, 3.121191010924224, 7.859847085]}, {"species": [{"element": "C", "occu": 1}], "abc": [0.804040099999999, 0.60618041, 0.5], "properties": {"magmom": -0.0}, "label": "C", "xyz": [6.372366424287352, 4.804242589075776, 7.859847085]}, {"species": [{"element": "C", "occu": 1}], "abc": [0.6959599, 0.10618041, 0.0], "properties": {"magmom": -0.0}, "label": "C", "xyz": [5.5157839757126395, 0.841525789075776, 0.0]}, {"species": [{"element": "C", "occu": 1}], "abc": [0.3040401, 0.89381959, 0.0], "properties": {"magmom": -0.0}, "label": "C", "xyz": [2.40964962428736, 7.083907810924224, 0.0]}, {"species": [{"element": "C", "occu": 1}], "abc": [0.6934645700000001, 0.90187182, 0.32830728], "properties": {"magmom": -0.0}, "label": "C", "xyz": [5.496007403487552, 7.147725225121151, 5.160890035384558]}, {"species": [{"element": "C", "occu": 1}], "abc": [0.30653543, 0.09812818, 0.32830728], "properties": {"magmom": -0.0}, "label": "C", "xyz": [2.429426196512448, 0.7777083748788479, 5.160890035384558]}, {"species": [{"element": "C", "occu": 1}], "abc": [0.80653543, 0.40187182, 0.82830728], "properties": {"magmom": -0.0}, "label": "C", "xyz": [6.392142996512448, 3.185008425121152, 13.020737120384558]}, {"species": [{"element": "C", "occu": 1}], "abc": [0.19346457, 0.59812818, 0.82830728], "properties": {"magmom": -0.0}, "label": "C", "xyz": [1.533290603487552, 4.740425174878848, 13.020737120384558]}, {"species": [{"element": "C", "occu": 1}], "abc": [0.90187182, 0.30653543, 0.32830728], "properties": {"magmom": -0.0}, "label": "C", "xyz": [7.147725225121151, 2.429426196512448, 5.160890035384558]}, {"species": [{"element": "C", "occu": 1}], "abc": [0.09812818, 0.6934645700000001, 0.32830728], "properties": {"magmom": -0.0}, "label": "C", "xyz": [0.7777083748788479, 5.496007403487552, 5.160890035384558]}, {"species": [{"element": "C", "occu": 1}], "abc": [0.40187182, 0.19346457, 0.82830728], "properties": {"magmom": -0.0}, "label": "C", "xyz": [3.185008425121152, 1.533290603487552, 13.020737120384558]}, {"species": [{"element": "C", "occu": 1}], "abc": [0.59812818, 0.80653543, 0.82830728], "properties": {"magmom": -0.0}, "label": "C", "xyz": [4.740425174878848, 6.392142996512448, 13.020737120384558]}, {"species": [{"element": "C", "occu": 1}], "abc": [0.30653543, 0.09812818, 0.67169272], "properties": {"magmom": -0.0}, "label": "C", "xyz": [2.429426196512448, 0.7777083748788479, 10.558804134615443]}, {"species": [{"element": "C", "occu": 1}], "abc": [0.6934645700000001, 0.90187182, 0.67169272], "properties": {"magmom": -0.0}, "label": "C", "xyz": [5.496007403487552, 7.147725225121151, 10.558804134615443]}, {"species": [{"element": "C", "occu": 1}], "abc": [0.19346457, 0.59812818, 0.17169272], "properties": {"magmom": -0.0}, "label": "C", "xyz": [1.533290603487552, 4.740425174878848, 2.6989570496154425]}, {"species": [{"element": "C", "occu": 1}], "abc": [0.80653543, 0.40187182, 0.17169272], "properties": {"magmom": -0.0}, "label": "C", "xyz": [6.392142996512448, 3.185008425121152, 2.6989570496154425]}, {"species": [{"element": "C", "occu": 1}], "abc": [0.09812818, 0.6934645700000001, 0.67169272], "properties": {"magmom": -0.0}, "label": "C", "xyz": [0.7777083748788479, 5.496007403487552, 10.558804134615443]}, {"species": [{"element": "C", "occu": 1}], "abc": [0.90187182, 0.30653543, 0.67169272], "properties": {"magmom": -0.0}, "label": "C", "xyz": [7.147725225121151, 2.429426196512448, 10.558804134615443]}, {"species": [{"element": "C", "occu": 1}], "abc": [0.59812818, 0.80653543, 0.17169272], "properties": {"magmom": -0.0}, "label": "C", "xyz": [4.740425174878848, 6.392142996512448, 2.6989570496154425]}, {"species": [{"element": "C", "occu": 1}], "abc": [0.40187182, 0.19346457, 0.17169272], "properties": {"magmom": -0.0}, "label": "C", "xyz": [3.185008425121152, 1.533290603487552, 2.6989570496154425]}, {"species": [{"element": "C", "occu": 1}], "abc": [0.64984783, 0.85015217, 0.25], "properties": {"magmom": 0.0}, "label": "C", "xyz": [5.150325826769088, 6.737824573230911, 3.9299235425]}, {"species": [{"element": "C", "occu": 1}], "abc": [0.35015217, 0.14984783000000002, 0.25], "properties": {"magmom": 0.0}, "label": "C", "xyz": [2.775107773230912, 1.1876090267690882, 3.9299235425]}, {"species": [{"element": "C", "occu": 1}], "abc": [0.85015217, 0.35015217, 0.75], "properties": {"magmom": 0.0}, "label": "C", "xyz": [6.737824573230911, 2.775107773230912, 11.789770627500001]}, {"species": [{"element": "C", "occu": 1}], "abc": [0.14984783000000002, 0.64984783, 0.75], "properties": {"magmom": 0.0}, "label": "C", "xyz": [1.1876090267690882, 5.150325826769088, 11.789770627500001]}, {"species": [{"element": "C", "occu": 1}], "abc": [0.85015217, 0.35015217, 0.25], "properties": {"magmom": 0.0}, "label": "C", "xyz": [6.737824573230911, 2.775107773230912, 3.9299235425]}, {"species": [{"element": "C", "occu": 1}], "abc": [0.14984783000000002, 0.64984783, 0.25], "properties": {"magmom": 0.0}, "label": "C", "xyz": [1.1876090267690882, 5.150325826769088, 3.9299235425]}, {"species": [{"element": "C", "occu": 1}], "abc": [0.35015217, 0.14984783000000002, 0.75], "properties": {"magmom": 0.0}, "label": "C", "xyz": [2.775107773230912, 1.1876090267690882, 11.789770627500001]}, {"species": [{"element": "C", "occu": 1}], "abc": [0.64984783, 0.85015217, 0.75], "properties": {"magmom": 0.0}, "label": "C", "xyz": [5.150325826769088, 6.737824573230911, 11.789770627500001]}]}, "task_ids": null, "uncorrected_energy_per_atom": null, "energy_per_atom": -7.555570021428569, "formation_energy_per_atom": -0.36097482000000103, "energy_above_hull": 0.0, "is_stable": true, "equilibrium_reaction_energy_per_atom": null, "decomposes_to": null, "xas": null, "grain_boundaries": null, "band_gap": 0.0, "cbm": null, "vbm": null, "efermi": 4.34193669, "is_gap_direct": null, "is_metal": null, "es_source_calc_id": null, "bandstructure": null, "dos": null, "dos_energy_up": null, "dos_energy_down": null, "is_magnetic": null, "ordering": null, "total_magnetization": 0.0, "total_magnetization_normalized_vol": null, "total_magnetization_normalized_formula_units": null, "num_magnetic_sites": null, "num_unique_magnetic_sites": null, "types_of_magnetic_species": null, "bulk_modulus": null, "shear_modulus": null, "universal_anisotropy": null, "homogeneous_poisson": null, "e_total": null, "e_ionic": null, "e_electronic": null, "n": null, "e_ij_max": null, "weighted_surface_energy_EV_PER_ANG2": null, "weighted_surface_energy": null, "weighted_work_function": null, "surface_anisotropy": null, "shape_factor": null, "has_reconstructed": null, "possible_species": null, "has_props": null, "theoretical": null, "database_IDs": null, "fields_not_requested": ["builder_meta", "nsites", "elements", "nelements", "composition", "composition_reduced", "chemsys", "symmetry", "property_name", "deprecated", "deprecation_reasons", "last_updated", "origins", "warnings", "task_ids", "uncorrected_energy_per_atom", "equilibrium_reaction_energy_per_atom", "decomposes_to", "xas", "grain_boundaries", "cbm", "vbm", "is_gap_direct", "is_metal", "es_source_calc_id", "bandstructure", "dos", "dos_energy_up", "dos_energy_down", "is_magnetic", "ordering", "total_magnetization_normalized_vol", "total_magnetization_normalized_formula_units", "num_magnetic_sites", "num_unique_magnetic_sites", "types_of_magnetic_species", "bulk_modulus", "shear_modulus", "universal_anisotropy", "homogeneous_poisson", "e_total", "e_ionic", "e_electronic", "n", "e_ij_max", "weighted_surface_energy_EV_PER_ANG2", "weighted_surface_energy", "weighted_work_function", "surface_anisotropy", "shape_factor", "has_reconstructed", "possible_species", "has_props", "theoretical", "database_IDs"]}