{"builder_meta": null, "nsites": null, "elements": null, "nelements": null, "composition": null, "composition_reduced": null, "formula_pretty": "Tm3Ge4", "formula_anonymous": "A3B4", "chemsys": null, "volume": 294.8440332376956, "density": 8.981370813731237, "density_atomic": 21.06028808840683, "symmetry": null, "property_name": null, "material_id": "mp-1104486", "deprecated": null, "deprecation_reasons": null, "last_updated": null, "origins": null, "warnings": null, "structure": {"@module": "pymatgen.core.structure", "@class": "Structure", "charge": 0, "lattice": {"matrix": [[3.99719959, 1e-08, 0.0], [-1.99859878, 5.24525333, 0.0], [-0.0, 0.0, 14.06274302]], "pbc": [true, true, true], "a": 3.99719959, "b": 5.613116743779125, "c": 14.06274302, "alpha": 90.0, "beta": 90.0, "gamma": 110.85834050984639, "volume": 294.8440332376956}, "properties": {}, "sites": [{"species": [{"element": "Tm", "occu": 1}], "abc": [0.33165936, 0.6633197200000001, 0.40310772], "properties": {"magmom": 0.0}, "label": "Tm", "xyz": [-1.3253302790783295e-06, 3.4792799735012614, 5.668800275738114]}, {"species": [{"element": "Tm", "occu": 1}], "abc": [0.66834064, 0.33668028, 0.59689228], "properties": {"magmom": 0.0}, "label": "Tm", "xyz": [1.9986021353302796, 1.7659733664987387, 8.393942744261885]}, {"species": [{"element": "Tm", "occu": 1}], "abc": [0.33165936, 0.6633197200000001, 0.09689228], "properties": {"magmom": 0.0}, "label": "Tm", "xyz": [-1.3253302790783295e-06, 3.4792799735012614, 1.3625712342618854]}, {"species": [{"element": "Tm", "occu": 1}], "abc": [0.66834064, 0.33668028, 0.9031077200000001], "properties": {"magmom": 0.0}, "label": "Tm", "xyz": [1.9986021353302796, 1.7659733664987387, 12.700171785738114]}, {"species": [{"element": "Tm", "occu": 1}], "abc": [0.04856803, 0.09713705, 0.25], "properties": {"magmom": -0.0}, "label": "Tm", "xyz": [-1.8800196913137945e-06, 0.5095084354645567, 3.515685755]}, {"species": [{"element": "Tm", "occu": 1}], "abc": [0.95143197, 0.90286295, 0.75], "properties": {"magmom": -0.0}, "label": "Tm", "xyz": [1.9986026900196912, 4.735744904535443, 10.547057265]}, {"species": [{"element": "Ge", "occu": 1}], "abc": [0.37856317, 0.75712634, 0.60870802], "properties": {"magmom": -0.0}, "label": "Ge", "xyz": [7.684832350474124e-07, 3.971319459901344, 8.56010445947302]}, {"species": [{"element": "Ge", "occu": 1}], "abc": [0.62143683, 0.24287366, 0.39129198], "properties": {"magmom": -0.0}, "label": "Ge", "xyz": [1.998600041516765, 1.273933880098656, 5.502638560526979]}, {"species": [{"element": "Ge", "occu": 1}], "abc": [0.37856317, 0.75712634, 0.89129198], "properties": {"magmom": -0.0}, "label": "Ge", "xyz": [7.684832350474124e-07, 3.971319459901344, 12.534010070526978]}, {"species": [{"element": "Ge", "occu": 1}], "abc": [0.62143683, 0.24287366, 0.10870802], "properties": {"magmom": -0.0}, "label": "Ge", "xyz": [1.998600041516765, 1.273933880098656, 1.5287329494730204]}, {"species": [{"element": "Ge", "occu": 1}], "abc": [0.77769952, 0.55540204, 0.25], "properties": {"magmom": 0.0}, "label": "Ge", "xyz": [1.9985943629336858, 2.9132244075757883, 3.515685755]}, {"species": [{"element": "Ge", "occu": 1}], "abc": [0.22230048, 0.44459796, 0.75], "properties": {"magmom": 0.0}, "label": "Ge", "xyz": [6.4470663143634255e-06, 2.332028932424212, 10.547057265]}, {"species": [{"element": "Ge", "occu": 1}], "abc": [0.0, 0.0, 0.5], "properties": {"magmom": -0.0}, "label": "Ge", "xyz": [0.0, 0.0, 7.03137151]}, {"species": [{"element": "Ge", "occu": 1}], "abc": [0.0, 0.0, 0.0], "properties": {"magmom": -0.0}, "label": "Ge", "xyz": [0.0, 0.0, 0.0]}]}, "task_ids": null, "uncorrected_energy_per_atom": null, "energy_per_atom": -5.313792222857139, "formation_energy_per_atom": -0.7509899571428561, "energy_above_hull": 0.0, "is_stable": true, "equilibrium_reaction_energy_per_atom": null, "decomposes_to": null, "xas": null, "grain_boundaries": null, "band_gap": 0.0, "cbm": null, "vbm": null, "efermi": 5.11623378, "is_gap_direct": null, "is_metal": null, "es_source_calc_id": null, "bandstructure": null, "dos": null, "dos_energy_up": null, "dos_energy_down": null, "is_magnetic": null, "ordering": null, "total_magnetization": 0.0, "total_magnetization_normalized_vol": null, "total_magnetization_normalized_formula_units": null, "num_magnetic_sites": null, "num_unique_magnetic_sites": null, "types_of_magnetic_species": null, "bulk_modulus": null, "shear_modulus": null, "universal_anisotropy": null, "homogeneous_poisson": null, "e_total": null, "e_ionic": null, "e_electronic": null, "n": null, "e_ij_max": null, "weighted_surface_energy_EV_PER_ANG2": null, "weighted_surface_energy": null, "weighted_work_function": null, "surface_anisotropy": null, "shape_factor": null, "has_reconstructed": null, "possible_species": null, "has_props": null, "theoretical": null, "database_IDs": null, "fields_not_requested": ["builder_meta", "nsites", "elements", "nelements", "composition", "composition_reduced", "chemsys", "symmetry", "property_name", "deprecated", "deprecation_reasons", "last_updated", "origins", "warnings", "task_ids", "uncorrected_energy_per_atom", "equilibrium_reaction_energy_per_atom", "decomposes_to", "xas", "grain_boundaries", "cbm", "vbm", "is_gap_direct", "is_metal", "es_source_calc_id", "bandstructure", "dos", "dos_energy_up", "dos_energy_down", "is_magnetic", "ordering", "total_magnetization_normalized_vol", "total_magnetization_normalized_formula_units", "num_magnetic_sites", "num_unique_magnetic_sites", "types_of_magnetic_species", "bulk_modulus", "shear_modulus", "universal_anisotropy", "homogeneous_poisson", "e_total", "e_ionic", "e_electronic", "n", "e_ij_max", "weighted_surface_energy_EV_PER_ANG2", "weighted_surface_energy", "weighted_work_function", "surface_anisotropy", "shape_factor", "has_reconstructed", "possible_species", "has_props", "theoretical", "database_IDs"]}