{"builder_meta": null, "nsites": null, "elements": null, "nelements": null, "composition": null, "composition_reduced": null, "formula_pretty": "Tm3Ga5", "formula_anonymous": "A3B5", "chemsys": null, "volume": 641.2322746492384, "density": 8.860779153079212, "density_atomic": 20.0385085827887, "symmetry": null, "property_name": null, "material_id": "mp-30677", "deprecated": null, "deprecation_reasons": null, "last_updated": null, "origins": null, "warnings": null, "structure": {"@module": "pymatgen.core.structure", "@class": "Structure", "charge": 0, "lattice": {"matrix": [[6.0045028, -0.0, 0.0], [-0.0, 9.48572251, 0.0], [0.0, 0.0, 11.25817268]], "pbc": [true, true, true], "a": 6.0045028, "b": 9.48572251, "c": 11.25817268, "alpha": 90.0, "beta": 90.0, "gamma": 90.0, "volume": 641.2322746492384}, "properties": {}, "sites": [{"species": [{"element": "Tm", "occu": 1}], "abc": [0.34881697, 0.75, 0.92440048], "properties": {"magmom": 0.0}, "label": "Tm", "xyz": [2.094472473052516, 7.1142918825, 10.407060229314885]}, {"species": [{"element": "Tm", "occu": 1}], "abc": [0.84881697, 0.25, 0.57559952], "properties": {"magmom": 0.0}, "label": "Tm", "xyz": [5.096723873052516, 2.3714306275, 6.4801987906851135]}, {"species": [{"element": "Tm", "occu": 1}], "abc": [0.65118303, 0.25, 0.07559952], "properties": {"magmom": 0.0}, "label": "Tm", "xyz": [3.910030326947484, 2.3714306275, 0.8511124506851137]}, {"species": [{"element": "Tm", "occu": 1}], "abc": [0.15118303, 0.75, 0.42440048], "properties": {"magmom": 0.0}, "label": "Tm", "xyz": [0.907778926947484, 7.1142918825, 4.777973889314887]}, {"species": [{"element": "Tm", "occu": 1}], "abc": [0.8897266500000001, 0.01007645, 0.851780099999999], "properties": {"magmom": -0.0}, "label": "Tm", "xyz": [5.34236616115962, 0.09558240858588951, 9.589487451187656]}, {"species": [{"element": "Tm", "occu": 1}], "abc": [0.38972665, 0.98992355, 0.6482199], "properties": {"magmom": -0.0}, "label": "Tm", "xyz": [2.34011476115962, 9.390140101414111, 7.2977715688123315]}, {"species": [{"element": "Tm", "occu": 1}], "abc": [0.11027435000000001, 0.51007645, 0.1482199], "properties": {"magmom": -0.0}, "label": "Tm", "xyz": [0.6621426433431801, 4.83844366358589, 1.6686852288123317]}, {"species": [{"element": "Tm", "occu": 1}], "abc": [0.61027335, 0.48992355, 0.3517801], "properties": {"magmom": -0.0}, "label": "Tm", "xyz": [3.6643880388403804, 4.64727884641411, 3.9604011111876676]}, {"species": [{"element": "Tm", "occu": 1}], "abc": [0.11027435000000001, 0.98992355, 0.1482199], "properties": {"magmom": -0.0}, "label": "Tm", "xyz": [0.6621426433431801, 9.390140101414111, 1.6686852288123317]}, {"species": [{"element": "Tm", "occu": 1}], "abc": [0.61027335, 0.01007645, 0.3517801], "properties": {"magmom": -0.0}, "label": "Tm", "xyz": [3.6643880388403804, 0.09558240858588951, 3.9604011111876676]}, {"species": [{"element": "Tm", "occu": 1}], "abc": [0.8897266500000001, 0.48992355, 0.851780099999999], "properties": {"magmom": -0.0}, "label": "Tm", "xyz": [5.34236616115962, 4.64727884641411, 9.589487451187656]}, {"species": [{"element": "Tm", "occu": 1}], "abc": [0.38972665, 0.51007645, 0.6482199], "properties": {"magmom": -0.0}, "label": "Tm", "xyz": [2.34011476115962, 4.83844366358589, 7.2977715688123315]}, {"species": [{"element": "Ga", "occu": 1}], "abc": [0.62666995, 0.75, 0.49453695000000003], "properties": {"magmom": -0.0}, "label": "Ga", "xyz": [3.7628414694508603, 7.1142918825, 5.567582379740526]}, {"species": [{"element": "Ga", "occu": 1}], "abc": [0.12666995, 0.25, 0.0054630500000000005], "properties": {"magmom": -0.0}, "label": "Ga", "xyz": [0.76059006945086, 2.3714306275, 0.061503960259474]}, {"species": [{"element": "Ga", "occu": 1}], "abc": [0.37333005, 0.25, 0.50546305], "properties": {"magmom": -0.0}, "label": "Ga", "xyz": [2.24166133054914, 2.3714306275, 5.690590300259474]}, {"species": [{"element": "Ga", "occu": 1}], "abc": [0.87333005, 0.75, 0.99453695], "properties": {"magmom": -0.0}, "label": "Ga", "xyz": [5.24391273054914, 7.1142918825, 11.196668719740526]}, {"species": [{"element": "Ga", "occu": 1}], "abc": [0.67574316, 0.75, 0.74759502], "properties": {"magmom": -0.0}, "label": "Ga", "xyz": [4.057501696300848, 7.1142918825, 8.416553829868054]}, {"species": [{"element": "Ga", "occu": 1}], "abc": [0.17574316, 0.25, 0.75240498], "properties": {"magmom": -0.0}, "label": "Ga", "xyz": [1.055250296300848, 2.3714306275, 8.470705190131946]}, {"species": [{"element": "Ga", "occu": 1}], "abc": [0.32425684, 0.25, 0.25240498], "properties": {"magmom": -0.0}, "label": "Ga", "xyz": [1.947001103699152, 2.3714306275, 2.841618850131946]}, {"species": [{"element": "Ga", "occu": 1}], "abc": [0.82425684, 0.75, 0.24759502], "properties": {"magmom": -0.0}, "label": "Ga", "xyz": [4.949252503699152, 7.1142918825, 2.7874674898680536]}, {"species": [{"element": "Ga", "occu": 1}], "abc": [0.10166835, 0.75, 0.69921345], "properties": {"magmom": 0.0}, "label": "Ga", "xyz": [0.61046789224638, 7.1142918825, 7.871865760278546]}, {"species": [{"element": "Ga", "occu": 1}], "abc": [0.60166835, 0.25, 0.80078655], "properties": {"magmom": 0.0}, "label": "Ga", "xyz": [3.6127192922463798, 2.3714306275, 9.015393259721453]}, {"species": [{"element": "Ga", "occu": 1}], "abc": [0.89833165, 0.25, 0.30078655], "properties": {"magmom": 0.0}, "label": "Ga", "xyz": [5.39403490775362, 2.3714306275, 3.3863069197214535]}, {"species": [{"element": "Ga", "occu": 1}], "abc": [0.39833165, 0.75, 0.19921345000000001], "properties": {"magmom": 0.0}, "label": "Ga", "xyz": [2.39178350775362, 7.1142918825, 2.2427794202785463]}, {"species": [{"element": "Ga", "occu": 1}], "abc": [0.87355498, 0.94676563, 0.59057927], "properties": {"magmom": 0.0}, "label": "Ga", "xyz": [5.245263323363944, 8.980756048185333, 6.648843402888343]}, {"species": [{"element": "Ga", "occu": 1}], "abc": [0.37355498, 0.05323437, 0.90942073], "properties": {"magmom": 0.0}, "label": "Ga", "xyz": [2.243011923363944, 0.5049664618146688, 10.238415617111656]}, {"species": [{"element": "Ga", "occu": 1}], "abc": [0.12644502, 0.44676563, 0.40942073], "properties": {"magmom": 0.0}, "label": "Ga", "xyz": [0.759239476636056, 4.2378947931853315, 4.609329277111656]}, {"species": [{"element": "Ga", "occu": 1}], "abc": [0.62644502, 0.55323437, 0.09057927], "properties": {"magmom": 0.0}, "label": "Ga", "xyz": [3.761490876636056, 5.247827716814669, 1.0197570628883437]}, {"species": [{"element": "Ga", "occu": 1}], "abc": [0.12644502, 0.05323437, 0.40942073], "properties": {"magmom": 0.0}, "label": "Ga", "xyz": [0.759239476636056, 0.5049664618146688, 4.609329277111656]}, {"species": [{"element": "Ga", "occu": 1}], "abc": [0.62644502, 0.94676563, 0.09057927], "properties": {"magmom": 0.0}, "label": "Ga", "xyz": [3.761490876636056, 8.980756048185333, 1.0197570628883437]}, {"species": [{"element": "Ga", "occu": 1}], "abc": [0.87355498, 0.55323437, 0.59057927], "properties": {"magmom": 0.0}, "label": "Ga", "xyz": [5.245263323363944, 5.247827716814669, 6.648843402888343]}, {"species": [{"element": "Ga", "occu": 1}], "abc": [0.37355498, 0.44676563, 0.90942073], "properties": {"magmom": 0.0}, "label": "Ga", "xyz": [2.243011923363944, 4.2378947931853315, 10.238415617111656]}]}, "task_ids": null, "uncorrected_energy_per_atom": null, "energy_per_atom": -21.0360116809375, "formation_energy_per_atom": -0.713883603437501, "energy_above_hull": 0.0, "is_stable": true, "equilibrium_reaction_energy_per_atom": null, "decomposes_to": null, "xas": null, "grain_boundaries": null, "band_gap": 0.0, "cbm": null, "vbm": null, "efermi": 3.60960585, "is_gap_direct": null, "is_metal": null, "es_source_calc_id": null, "bandstructure": null, "dos": null, "dos_energy_up": null, "dos_energy_down": null, "is_magnetic": null, "ordering": null, "total_magnetization": 1e-07, "total_magnetization_normalized_vol": null, "total_magnetization_normalized_formula_units": null, "num_magnetic_sites": null, "num_unique_magnetic_sites": null, "types_of_magnetic_species": null, "bulk_modulus": null, "shear_modulus": null, "universal_anisotropy": null, "homogeneous_poisson": null, "e_total": null, "e_ionic": null, "e_electronic": null, "n": null, "e_ij_max": null, "weighted_surface_energy_EV_PER_ANG2": null, "weighted_surface_energy": null, "weighted_work_function": null, "surface_anisotropy": null, "shape_factor": null, "has_reconstructed": null, "possible_species": null, "has_props": null, "theoretical": null, "database_IDs": null, "fields_not_requested": ["builder_meta", "nsites", "elements", "nelements", "composition", "composition_reduced", "chemsys", "symmetry", "property_name", "deprecated", "deprecation_reasons", "last_updated", "origins", "warnings", "task_ids", "uncorrected_energy_per_atom", "equilibrium_reaction_energy_per_atom", "decomposes_to", "xas", "grain_boundaries", "cbm", "vbm", "is_gap_direct", "is_metal", "es_source_calc_id", "bandstructure", "dos", "dos_energy_up", "dos_energy_down", "is_magnetic", "ordering", "total_magnetization_normalized_vol", "total_magnetization_normalized_formula_units", "num_magnetic_sites", "num_unique_magnetic_sites", "types_of_magnetic_species", "bulk_modulus", "shear_modulus", "universal_anisotropy", "homogeneous_poisson", "e_total", "e_ionic", "e_electronic", "n", "e_ij_max", "weighted_surface_energy_EV_PER_ANG2", "weighted_surface_energy", "weighted_work_function", "surface_anisotropy", "shape_factor", "has_reconstructed", "possible_species", "has_props", "theoretical", "database_IDs"]}