{"builder_meta": null, "nsites": null, "elements": null, "nelements": null, "composition": null, "composition_reduced": null, "formula_pretty": "Tm3Ir", "formula_anonymous": "AB3", "chemsys": null, "volume": 404.29019037905783, "density": 11.484319249467537, "density_atomic": 25.268136898691115, "symmetry": null, "property_name": null, "material_id": "mp-1188237", "deprecated": null, "deprecation_reasons": null, "last_updated": null, "origins": null, "warnings": null, "structure": {"@module": "pymatgen.core.structure", "@class": "Structure", "charge": 0.0, "lattice": {"matrix": [[0.0, 0.0, 6.34778195], [7.12377753, 0.0, -0.0], [0.0, 8.9404804, 0.0]], "pbc": [true, true, true], "a": 6.34778195, "b": 7.12377753, "c": 8.9404804, "alpha": 90.0, "beta": 90.0, "gamma": 90.0, "volume": 404.29019037905783}, "properties": {}, "sites": [{"species": [{"element": "Tm", "occu": 1}], "abc": [0.32210513, 0.67580405, 0.061302670000000004], "properties": {"magmom": -0.0}, "label": "Tm", "xyz": [4.814277706072996, 0.5480753196026681, 2.0446531302164037]}, {"species": [{"element": "Tm", "occu": 1}], "abc": [0.17789487, 0.17580405000000002, 0.43869733], "properties": {"magmom": -0.0}, "label": "Tm", "xyz": [1.2523889410729967, 3.922164880397332, 1.1292378447835965]}, {"species": [{"element": "Tm", "occu": 1}], "abc": [0.67789487, 0.32419595, 0.56130267], "properties": {"magmom": -0.0}, "label": "Tm", "xyz": [2.3094998239270037, 5.018315519602668, 4.303128819783597]}, {"species": [{"element": "Tm", "occu": 1}], "abc": [0.82210513, 0.82419595, 0.93869733], "properties": {"magmom": -0.0}, "label": "Tm", "xyz": [5.871388588927004, 8.392405080397332, 5.218544105216403]}, {"species": [{"element": "Tm", "occu": 1}], "abc": [0.67789487, 0.32419595, 0.93869733], "properties": {"magmom": -0.0}, "label": "Tm", "xyz": [2.3094998239270037, 8.392405080397332, 4.303128819783597]}, {"species": [{"element": "Tm", "occu": 1}], "abc": [0.82210513, 0.82419595, 0.56130267], "properties": {"magmom": -0.0}, "label": "Tm", "xyz": [5.871388588927004, 5.018315519602668, 5.218544105216403]}, {"species": [{"element": "Tm", "occu": 1}], "abc": [0.32210513, 0.67580405, 0.43869733], "properties": {"magmom": -0.0}, "label": "Tm", "xyz": [4.814277706072996, 3.922164880397332, 2.0446531302164037]}, {"species": [{"element": "Tm", "occu": 1}], "abc": [0.17789487, 0.17580405000000002, 0.061302670000000004], "properties": {"magmom": -0.0}, "label": "Tm", "xyz": [1.2523889410729967, 0.5480753196026681, 1.1292378447835965]}, {"species": [{"element": "Tm", "occu": 1}], "abc": [0.87793685, 0.53544875, 0.25], "properties": {"magmom": -0.0}, "label": "Tm", "xyz": [3.814417773716588, 2.2351201, 5.572951689669857]}, {"species": [{"element": "Tm", "occu": 1}], "abc": [0.62206315, 0.03544875, 0.25], "properties": {"magmom": -0.0}, "label": "Tm", "xyz": [0.2525290087165875, 2.2351201, 3.9487212353301424]}, {"species": [{"element": "Tm", "occu": 1}], "abc": [0.12206315000000001, 0.46455125, 0.75], "properties": {"magmom": -0.0}, "label": "Tm", "xyz": [3.3093597562834125, 6.705360300000001, 0.7748302603301426]}, {"species": [{"element": "Tm", "occu": 1}], "abc": [0.37793685, 0.96455125, 0.75], "properties": {"magmom": -0.0}, "label": "Tm", "xyz": [6.8712485212834125, 6.705360300000001, 2.3990607146698575]}, {"species": [{"element": "Ir", "occu": 1}], "abc": [0.0338452, 0.88822022, 0.25], "properties": {"magmom": 0.0}, "label": "Ir", "xyz": [6.327483244927657, 2.2351201, 0.21484194965414]}, {"species": [{"element": "Ir", "occu": 1}], "abc": [0.4661548, 0.38822022, 0.25], "properties": {"magmom": 0.0}, "label": "Ir", "xyz": [2.7655944799276564, 2.2351201, 2.95904902534586]}, {"species": [{"element": "Ir", "occu": 1}], "abc": [0.9661548, 0.11177978000000001, 0.75], "properties": {"magmom": 0.0}, "label": "Ir", "xyz": [0.7962942850723435, 6.705360300000001, 6.13294000034586]}, {"species": [{"element": "Ir", "occu": 1}], "abc": [0.5338452, 0.61177978, 0.75], "properties": {"magmom": 0.0}, "label": "Ir", "xyz": [4.358183050072343, 6.705360300000001, 3.38873292465414]}]}, "task_ids": null, "uncorrected_energy_per_atom": null, "energy_per_atom": -6.198499063124998, "formation_energy_per_atom": -0.6270144081250041, "energy_above_hull": 0.0, "is_stable": true, "equilibrium_reaction_energy_per_atom": null, "decomposes_to": null, "xas": null, "grain_boundaries": null, "band_gap": 0.0, "cbm": null, "vbm": null, "efermi": 3.95520543, "is_gap_direct": null, "is_metal": null, "es_source_calc_id": null, "bandstructure": null, "dos": null, "dos_energy_up": null, "dos_energy_down": null, "is_magnetic": null, "ordering": null, "total_magnetization": 2.8e-06, "total_magnetization_normalized_vol": null, "total_magnetization_normalized_formula_units": null, "num_magnetic_sites": null, "num_unique_magnetic_sites": null, "types_of_magnetic_species": null, "bulk_modulus": null, "shear_modulus": null, "universal_anisotropy": null, "homogeneous_poisson": null, "e_total": null, "e_ionic": null, "e_electronic": null, "n": null, "e_ij_max": null, "weighted_surface_energy_EV_PER_ANG2": null, "weighted_surface_energy": null, "weighted_work_function": null, "surface_anisotropy": null, "shape_factor": null, "has_reconstructed": null, "possible_species": null, "has_props": null, "theoretical": null, "database_IDs": null, "fields_not_requested": ["builder_meta", "nsites", "elements", "nelements", "composition", "composition_reduced", "chemsys", "symmetry", "property_name", "deprecated", "deprecation_reasons", "last_updated", "origins", "warnings", "task_ids", "uncorrected_energy_per_atom", "equilibrium_reaction_energy_per_atom", "decomposes_to", "xas", "grain_boundaries", "cbm", "vbm", "is_gap_direct", "is_metal", "es_source_calc_id", "bandstructure", "dos", "dos_energy_up", "dos_energy_down", "is_magnetic", "ordering", "total_magnetization_normalized_vol", "total_magnetization_normalized_formula_units", "num_magnetic_sites", "num_unique_magnetic_sites", "types_of_magnetic_species", "bulk_modulus", "shear_modulus", "universal_anisotropy", "homogeneous_poisson", "e_total", "e_ionic", "e_electronic", "n", "e_ij_max", "weighted_surface_energy_EV_PER_ANG2", "weighted_surface_energy", "weighted_work_function", "surface_anisotropy", "shape_factor", "has_reconstructed", "possible_species", "has_props", "theoretical", "database_IDs"]}