{"builder_meta": null, "nsites": null, "elements": null, "nelements": null, "composition": null, "composition_reduced": null, "formula_pretty": "Tm3In", "formula_anonymous": "AB3", "chemsys": null, "volume": 217.3089871696007, "density": 9.5000704219738, "density_atomic": 27.163623396200087, "symmetry": null, "property_name": null, "material_id": "mp-1187834", "deprecated": null, "deprecation_reasons": null, "last_updated": null, "origins": null, "warnings": null, "structure": {"@module": "pymatgen.core.structure", "@class": "Structure", "charge": 0, "lattice": {"matrix": [[3.36652364, -5.83099216, 0.0], [3.36652465, 5.83099217, -0.0], [-0.0, 0.0, 5.53507488]], "pbc": [true, true, true], "a": 6.733049159827984, "b": 6.7330496734881535, "c": 5.53507488, "alpha": 90.0, "beta": 90.0, "gamma": 120.0000110706297, "volume": 217.3089871696007}, "properties": {}, "sites": [{"species": [{"element": "Tm", "occu": 1}], "abc": [0.8297506, 0.1702494, 0.75], "properties": {"magmom": -0.38}, "label": "Tm", "xyz": [3.366523811951894, -3.8455463250080983, 4.15130616]}, {"species": [{"element": "Tm", "occu": 1}], "abc": [0.34049981, 0.1702494, 0.75], "properties": {"magmom": -0.38}, "label": "Tm", "xyz": [1.7194494615282185, -0.9927288042442917, 4.15130616]}, {"species": [{"element": "Tm", "occu": 1}], "abc": [0.8297506, 0.65950019, 0.75], "properties": {"magmom": -0.38}, "label": "Tm", "xyz": [5.013598656518868, -0.9927287993517839, 4.15130616]}, {"species": [{"element": "Tm", "occu": 1}], "abc": [0.1702494, 0.8297506, 0.25], "properties": {"magmom": -0.38}, "label": "Tm", "xyz": [3.366524478048106, 3.8455463350080983, 1.38376872]}, {"species": [{"element": "Tm", "occu": 1}], "abc": [0.65950019, 0.8297506, 0.25], "properties": {"magmom": -0.38}, "label": "Tm", "xyz": [5.013598828471782, 0.9927288142442916, 1.38376872]}, {"species": [{"element": "Tm", "occu": 1}], "abc": [0.1702494, 0.34049981, 0.25], "properties": {"magmom": -0.38}, "label": "Tm", "xyz": [1.7194496334811324, 0.9927288093517839, 1.38376872]}, {"species": [{"element": "In", "occu": 1}], "abc": [0.666667, 0.333333, 0.25], "properties": {"magmom": 0.049}, "label": "In", "xyz": [3.36652397666633, -1.94366793732811, 1.38376872]}, {"species": [{"element": "In", "occu": 1}], "abc": [0.333333, 0.666667, 0.75], "properties": {"magmom": 0.049}, "label": "In", "xyz": [3.36652431333367, 1.94366794732811, 4.15130616]}]}, "task_ids": null, "uncorrected_energy_per_atom": null, "energy_per_atom": -32.32140783875, "formation_energy_per_atom": -0.335974026249999, "energy_above_hull": 0.007114376250001, "is_stable": false, "equilibrium_reaction_energy_per_atom": null, "decomposes_to": null, "xas": null, "grain_boundaries": null, "band_gap": 0.0, "cbm": null, "vbm": null, "efermi": 4.24176378, "is_gap_direct": null, "is_metal": null, "es_source_calc_id": null, "bandstructure": null, "dos": null, "dos_energy_up": null, "dos_energy_down": null, "is_magnetic": null, "ordering": null, "total_magnetization": 2.4400667, "total_magnetization_normalized_vol": null, "total_magnetization_normalized_formula_units": null, "num_magnetic_sites": null, "num_unique_magnetic_sites": null, "types_of_magnetic_species": null, "bulk_modulus": null, "shear_modulus": null, "universal_anisotropy": null, "homogeneous_poisson": null, "e_total": null, "e_ionic": null, "e_electronic": null, "n": null, "e_ij_max": null, "weighted_surface_energy_EV_PER_ANG2": null, "weighted_surface_energy": null, "weighted_work_function": null, "surface_anisotropy": null, "shape_factor": null, "has_reconstructed": null, "possible_species": null, "has_props": null, "theoretical": null, "database_IDs": null, "fields_not_requested": ["builder_meta", "nsites", "elements", "nelements", "composition", "composition_reduced", "chemsys", "symmetry", "property_name", "deprecated", "deprecation_reasons", "last_updated", "origins", "warnings", "task_ids", "uncorrected_energy_per_atom", "equilibrium_reaction_energy_per_atom", "decomposes_to", "xas", "grain_boundaries", "cbm", "vbm", "is_gap_direct", "is_metal", "es_source_calc_id", "bandstructure", "dos", "dos_energy_up", "dos_energy_down", "is_magnetic", "ordering", "total_magnetization_normalized_vol", "total_magnetization_normalized_formula_units", "num_magnetic_sites", "num_unique_magnetic_sites", "types_of_magnetic_species", "bulk_modulus", "shear_modulus", "universal_anisotropy", "homogeneous_poisson", "e_total", "e_ionic", "e_electronic", "n", "e_ij_max", "weighted_surface_energy_EV_PER_ANG2", "weighted_surface_energy", "weighted_work_function", "surface_anisotropy", "shape_factor", "has_reconstructed", "possible_species", "has_props", "theoretical", "database_IDs"]}