{"builder_meta": null, "nsites": null, "elements": null, "nelements": null, "composition": null, "composition_reduced": null, "formula_pretty": "Tm3Lu", "formula_anonymous": "AB3", "chemsys": null, "volume": 239.45034037231596, "density": 9.455865489906111, "density_atomic": 29.931292546539495, "symmetry": null, "property_name": null, "material_id": "mp-972416", "deprecated": null, "deprecation_reasons": null, "last_updated": null, "origins": null, "warnings": null, "structure": {"@module": "pymatgen.core.structure", "@class": "Structure", "charge": 0, "lattice": {"matrix": [[7.10535752, -2e-08, 0.0], [-3.5526798, 6.1534193, -0.0], [0.0, 0.0, 5.47662513]], "pbc": [true, true, true], "a": 7.10535752, "b": 7.105357333937579, "c": 5.47662513, "alpha": 90.0, "beta": 90.0, "gamma": 120.00001071116587, "volume": 239.45034037231596}, "properties": {}, "sites": [{"species": [{"element": "Tm", "occu": 1}], "abc": [0.83272218, 0.16727782, 0.749997999999999], "properties": {"magmom": -0.0}, "label": "Tm", "xyz": [5.322504271631757, 1.0293305493954825, 4.107457894249735]}, {"species": [{"element": "Tm", "occu": 1}], "abc": [0.33455564, 0.16727782, 0.749997999999999], "properties": {"magmom": -0.0}, "label": "Tm", "xyz": [1.7828529004303768, 1.0293305593588133, 4.107457894249735]}, {"species": [{"element": "Tm", "occu": 1}], "abc": [0.83272218, 0.66544336, 0.749997999999999], "properties": {"magmom": -0.0}, "label": "Tm", "xyz": [3.5526816206176655, 4.094751997826405, 4.107457894249735]}, {"species": [{"element": "Tm", "occu": 1}], "abc": [0.16727782, 0.83272218, 0.249999], "properties": {"magmom": -0.0}, "label": "Tm", "xyz": [-1.7698265516317573, 5.124088730604518, 1.36915080587487]}, {"species": [{"element": "Tm", "occu": 1}], "abc": [0.16727782, 0.33455664, 0.249999], "properties": {"magmom": -0.0}, "label": "Tm", "xyz": [-3.900617665530959e-06, 2.058667282173596, 1.36915080587487]}, {"species": [{"element": "Tm", "occu": 1}], "abc": [0.66544336, 0.83272218, 0.249999], "properties": {"magmom": -0.0}, "label": "Tm", "xyz": [1.7698177142121034, 5.124088720641208, 1.36915080587487]}, {"species": [{"element": "Lu", "occu": 1}], "abc": [0.666666, 0.333331, 0.249999], "properties": {"magmom": -0.0}, "label": "Lu", "xyz": [3.5526819660145197, 2.05112539535498, 1.36915080587487]}, {"species": [{"element": "Lu", "occu": 1}], "abc": [0.333333999999999, 0.666667, 0.749997999999999], "properties": {"magmom": -0.0}, "label": "Lu", "xyz": [2.8593450727143477e-06, 4.102281577806421, 4.107457894249735]}]}, "task_ids": null, "uncorrected_energy_per_atom": null, "energy_per_atom": -35.8597751125, "formation_energy_per_atom": 0.000981150833325, "energy_above_hull": 0.000981150833325, "is_stable": false, "equilibrium_reaction_energy_per_atom": null, "decomposes_to": null, "xas": null, "grain_boundaries": null, "band_gap": 0.0, "cbm": null, "vbm": null, "efermi": 2.94394078, "is_gap_direct": null, "is_metal": null, "es_source_calc_id": null, "bandstructure": null, "dos": null, "dos_energy_up": null, "dos_energy_down": null, "is_magnetic": null, "ordering": null, "total_magnetization": 7.690000000000001e-05, "total_magnetization_normalized_vol": null, "total_magnetization_normalized_formula_units": null, "num_magnetic_sites": null, "num_unique_magnetic_sites": null, "types_of_magnetic_species": null, "bulk_modulus": null, "shear_modulus": null, "universal_anisotropy": null, "homogeneous_poisson": null, "e_total": null, "e_ionic": null, "e_electronic": null, "n": null, "e_ij_max": null, "weighted_surface_energy_EV_PER_ANG2": null, "weighted_surface_energy": null, "weighted_work_function": null, "surface_anisotropy": null, "shape_factor": null, "has_reconstructed": null, "possible_species": null, "has_props": null, "theoretical": null, "database_IDs": null, "fields_not_requested": ["builder_meta", "nsites", "elements", "nelements", "composition", "composition_reduced", "chemsys", "symmetry", "property_name", "deprecated", "deprecation_reasons", "last_updated", "origins", "warnings", "task_ids", "uncorrected_energy_per_atom", "equilibrium_reaction_energy_per_atom", "decomposes_to", "xas", "grain_boundaries", "cbm", "vbm", "is_gap_direct", "is_metal", "es_source_calc_id", "bandstructure", "dos", "dos_energy_up", "dos_energy_down", "is_magnetic", "ordering", "total_magnetization_normalized_vol", "total_magnetization_normalized_formula_units", "num_magnetic_sites", "num_unique_magnetic_sites", "types_of_magnetic_species", "bulk_modulus", "shear_modulus", "universal_anisotropy", "homogeneous_poisson", "e_total", "e_ionic", "e_electronic", "n", "e_ij_max", "weighted_surface_energy_EV_PER_ANG2", "weighted_surface_energy", "weighted_work_function", "surface_anisotropy", "shape_factor", "has_reconstructed", "possible_species", "has_props", "theoretical", "database_IDs"]}