{
  "builder_meta": null,
  "nsites": null,
  "elements": null,
  "nelements": null,
  "composition": null,
  "composition_reduced": null,
  "formula_pretty": "Tm3Ni",
  "formula_anonymous": "AB3",
  "chemsys": null,
  "volume": 390.64424918541357,
  "density": 9.615175462383522,
  "density_atomic": 24.415265574088348,
  "symmetry": null,
  "property_name": null,
  "material_id": "mp-1208031",
  "deprecated": null,
  "deprecation_reasons": null,
  "last_updated": null,
  "origins": null,
  "warnings": null,
  "structure": {
    "@module": "pymatgen.core.structure",
    "@class": "Structure",
    "charge": 0,
    "lattice": {
      "matrix": [
        [0.0, 0.0, 6.21058126],
        [6.68267719, 0.0, 0.0],
        [0.0, 9.41236378, 0.0]
      ],
      "pbc": [true, true, true],
      "a": 6.21058126,
      "b": 6.68267719,
      "c": 9.41236378,
      "alpha": 90.0,
      "beta": 90.0,
      "gamma": 90.0,
      "volume": 390.64424918541357
    },
    "properties": {},
    "sites": [
      {
        "species": [{ "element": "Tm", "occu": 1 }],
        "abc": [0.63809411, 0.03521892, 0.25],
        "properties": { "magmom": 0.093 },
        "label": "Tm",
        "xyz": [0.2353566733404348, 2.353090945, 3.962935321682379]
      },
      {
        "species": [{ "element": "Tm", "occu": 1 }],
        "abc": [0.36190589, 0.9647810800000001, 0.75],
        "properties": { "magmom": 0.093 },
        "label": "Tm",
        "xyz": [6.447320516659565, 7.059272835, 2.2476459383176213]
      },
      {
        "species": [{ "element": "Tm", "occu": 1 }],
        "abc": [0.13809411, 0.46478108, 0.75],
        "properties": { "magmom": 0.093 },
        "label": "Tm",
        "xyz": [3.105981921659565, 7.059272835, 0.8576446916823786]
      },
      {
        "species": [{ "element": "Tm", "occu": 1 }],
        "abc": [0.8619058900000001, 0.53521892, 0.25],
        "properties": { "magmom": 0.093 },
        "label": "Tm",
        "xyz": [3.5766952683404347, 2.353090945, 5.352936568317621]
      },
      {
        "species": [{ "element": "Tm", "occu": 1 }],
        "abc": [0.18290901, 0.17784574, 0.06678463],
        "properties": { "magmom": 0.07100000000000001 },
        "label": "Tm",
        "xyz": [1.1884856700366706, 0.6286012324727014, 1.1359712697911526]
      },
      {
        "species": [{ "element": "Tm", "occu": 1 }],
        "abc": [0.8170909900000001, 0.82215426, 0.93321537],
        "properties": { "magmom": 0.07100000000000001 },
        "label": "Tm",
        "xyz": [5.494191519963329, 8.783762547527298, 5.074609990208848]
      },
      {
        "species": [{ "element": "Tm", "occu": 1 }],
        "abc": [0.68290901, 0.32215426, 0.93321537],
        "properties": { "magmom": 0.07100000000000001 },
        "label": "Tm",
        "xyz": [2.1528529249633297, 8.783762547527298, 4.241261899791152]
      },
      {
        "species": [{ "element": "Tm", "occu": 1 }],
        "abc": [0.8170909900000001, 0.82215426, 0.56678463],
        "properties": { "magmom": 0.07100000000000001 },
        "label": "Tm",
        "xyz": [5.494191519963329, 5.334783122472701, 5.074609990208848]
      },
      {
        "species": [{ "element": "Tm", "occu": 1 }],
        "abc": [0.31709099, 0.67784574, 0.06678463],
        "properties": { "magmom": 0.07100000000000001 },
        "label": "Tm",
        "xyz": [4.5298242650366705, 0.6286012324727014, 1.9693193602088475]
      },
      {
        "species": [{ "element": "Tm", "occu": 1 }],
        "abc": [0.18290901, 0.17784574, 0.43321537],
        "properties": { "magmom": 0.07100000000000001 },
        "label": "Tm",
        "xyz": [1.1884856700366706, 4.077580657527299, 1.1359712697911526]
      },
      {
        "species": [{ "element": "Tm", "occu": 1 }],
        "abc": [0.31709099, 0.67784574, 0.43321537],
        "properties": { "magmom": 0.07100000000000001 },
        "label": "Tm",
        "xyz": [4.5298242650366705, 4.077580657527299, 1.9693193602088475]
      },
      {
        "species": [{ "element": "Tm", "occu": 1 }],
        "abc": [0.68290901, 0.32215426, 0.56678463],
        "properties": { "magmom": 0.07100000000000001 },
        "label": "Tm",
        "xyz": [2.1528529249633297, 5.334783122472701, 4.241261899791152]
      },
      {
        "species": [{ "element": "Ni", "occu": 1 }],
        "abc": [0.45237153, 0.39443728, 0.25],
        "properties": { "magmom": 0.066 },
        "label": "Ni",
        "xyz": [2.635897013941643, 2.353090945, 2.809490146775528]
      },
      {
        "species": [{ "element": "Ni", "occu": 1 }],
        "abc": [0.54762847, 0.60556272, 0.75],
        "properties": { "magmom": 0.066 },
        "label": "Ni",
        "xyz": [4.046780176058356, 7.059272835, 3.401091113224472]
      },
      {
        "species": [{ "element": "Ni", "occu": 1 }],
        "abc": [0.95237153, 0.10556272, 0.75],
        "properties": { "magmom": 0.066 },
        "label": "Ni",
        "xyz": [0.7054415810583567, 7.059272835, 5.914780776775527]
      },
      {
        "species": [{ "element": "Ni", "occu": 1 }],
        "abc": [0.04762847, 0.89443728, 0.25],
        "properties": { "magmom": 0.066 },
        "label": "Ni",
        "xyz": [5.977235608941643, 2.353090945, 0.29580048322447217]
      }
    ]
  },
  "task_ids": null,
  "uncorrected_energy_per_atom": null,
  "energy_per_atom": -5.077072242499998,
  "formation_energy_per_atom": -0.270161962500003,
  "energy_above_hull": 0.0,
  "is_stable": true,
  "equilibrium_reaction_energy_per_atom": null,
  "decomposes_to": null,
  "xas": null,
  "grain_boundaries": null,
  "band_gap": 0.0,
  "cbm": null,
  "vbm": null,
  "efermi": 3.56170352,
  "is_gap_direct": null,
  "is_metal": null,
  "es_source_calc_id": null,
  "bandstructure": null,
  "dos": null,
  "dos_energy_up": null,
  "dos_energy_down": null,
  "is_magnetic": null,
  "ordering": null,
  "total_magnetization": 1.48957,
  "total_magnetization_normalized_vol": null,
  "total_magnetization_normalized_formula_units": null,
  "num_magnetic_sites": null,
  "num_unique_magnetic_sites": null,
  "types_of_magnetic_species": null,
  "bulk_modulus": null,
  "shear_modulus": null,
  "universal_anisotropy": null,
  "homogeneous_poisson": null,
  "e_total": null,
  "e_ionic": null,
  "e_electronic": null,
  "n": null,
  "e_ij_max": null,
  "weighted_surface_energy_EV_PER_ANG2": null,
  "weighted_surface_energy": null,
  "weighted_work_function": null,
  "surface_anisotropy": null,
  "shape_factor": null,
  "has_reconstructed": null,
  "possible_species": null,
  "has_props": null,
  "theoretical": null,
  "database_IDs": null,
  "fields_not_requested": [
    "builder_meta",
    "nsites",
    "elements",
    "nelements",
    "composition",
    "composition_reduced",
    "chemsys",
    "symmetry",
    "property_name",
    "deprecated",
    "deprecation_reasons",
    "last_updated",
    "origins",
    "warnings",
    "task_ids",
    "uncorrected_energy_per_atom",
    "equilibrium_reaction_energy_per_atom",
    "decomposes_to",
    "xas",
    "grain_boundaries",
    "cbm",
    "vbm",
    "is_gap_direct",
    "is_metal",
    "es_source_calc_id",
    "bandstructure",
    "dos",
    "dos_energy_up",
    "dos_energy_down",
    "is_magnetic",
    "ordering",
    "total_magnetization_normalized_vol",
    "total_magnetization_normalized_formula_units",
    "num_magnetic_sites",
    "num_unique_magnetic_sites",
    "types_of_magnetic_species",
    "bulk_modulus",
    "shear_modulus",
    "universal_anisotropy",
    "homogeneous_poisson",
    "e_total",
    "e_ionic",
    "e_electronic",
    "n",
    "e_ij_max",
    "weighted_surface_energy_EV_PER_ANG2",
    "weighted_surface_energy",
    "weighted_work_function",
    "surface_anisotropy",
    "shape_factor",
    "has_reconstructed",
    "possible_species",
    "has_props",
    "theoretical",
    "database_IDs"
  ]
}
