{
  "builder_meta": null,
  "nsites": null,
  "elements": null,
  "nelements": null,
  "composition": null,
  "composition_reduced": null,
  "formula_pretty": "Tm3Os",
  "formula_anonymous": "AB3",
  "chemsys": null,
  "volume": 400.4425553731226,
  "density": 11.561707388780992,
  "density_atomic": 25.027659710820163,
  "symmetry": null,
  "property_name": null,
  "material_id": "mp-1207975",
  "deprecated": null,
  "deprecation_reasons": null,
  "last_updated": null,
  "origins": null,
  "warnings": null,
  "structure": {
    "@module": "pymatgen.core.structure",
    "@class": "Structure",
    "charge": 0,
    "lattice": {
      "matrix": [
        [7.29878257, 0.0, 0.0],
        [0.0, 8.84045003, 0.0],
        [-0.0, 0.0, 6.2060522]
      ],
      "pbc": [true, true, true],
      "a": 7.29878257,
      "b": 8.84045003,
      "c": 6.2060522,
      "alpha": 90.0,
      "beta": 90.0,
      "gamma": 90.0,
      "volume": 400.4425553731226
    },
    "properties": {},
    "sites": [
      {
        "species": [{ "element": "Tm", "occu": 1 }],
        "abc": [0.0401927, 0.25, 0.62613299],
        "properties": { "magmom": 0.0 },
        "label": "Tm",
        "xyz": [0.293357778201239, 2.2101125075, 3.885814020082078]
      },
      {
        "species": [{ "element": "Tm", "occu": 1 }],
        "abc": [0.959807299999999, 0.75, 0.37386701],
        "properties": { "magmom": 0.0 },
        "label": "Tm",
        "xyz": [7.005424791798754, 6.6303375225, 2.320238179917922]
      },
      {
        "species": [{ "element": "Tm", "occu": 1 }],
        "abc": [0.4598073, 0.75, 0.12613299],
        "properties": { "magmom": 0.0 },
        "label": "Tm",
        "xyz": [3.356033506798761, 6.6303375225, 0.782787920082078]
      },
      {
        "species": [{ "element": "Tm", "occu": 1 }],
        "abc": [0.5401927, 0.25, 0.87386701],
        "properties": { "magmom": 0.0 },
        "label": "Tm",
        "xyz": [3.942749063201239, 2.2101125075, 5.423264279917922]
      },
      {
        "species": [{ "element": "Tm", "occu": 1 }],
        "abc": [0.17342393, 0.062293430000000004, 0.1680239],
        "properties": { "magmom": 0.0 },
        "label": "Tm",
        "xyz": [1.2657835575049001, 0.5507019551123029, 1.0427650942475801]
      },
      {
        "species": [{ "element": "Tm", "occu": 1 }],
        "abc": [0.82657607, 0.93770657, 0.8319761],
        "properties": { "magmom": 0.0 },
        "label": "Tm",
        "xyz": [6.0329990124951, 8.289748074887697, 5.163287105752421]
      },
      {
        "species": [{ "element": "Tm", "occu": 1 }],
        "abc": [0.32657607, 0.93770657, 0.6680239],
        "properties": { "magmom": 0.0 },
        "label": "Tm",
        "xyz": [2.3836077274950997, 8.289748074887697, 4.14579119424758]
      },
      {
        "species": [{ "element": "Tm", "occu": 1 }],
        "abc": [0.82657607, 0.56229343, 0.8319761],
        "properties": { "magmom": 0.0 },
        "label": "Tm",
        "xyz": [6.0329990124951, 4.970926970112303, 5.163287105752421]
      },
      {
        "species": [{ "element": "Tm", "occu": 1 }],
        "abc": [0.67342393, 0.062293430000000004, 0.3319761],
        "properties": { "magmom": 0.0 },
        "label": "Tm",
        "xyz": [4.9151748425049, 0.5507019551123029, 2.06026100575242]
      },
      {
        "species": [{ "element": "Tm", "occu": 1 }],
        "abc": [0.17342393, 0.43770657, 0.1680239],
        "properties": { "magmom": 0.0 },
        "label": "Tm",
        "xyz": [1.2657835575049001, 3.869523059887697, 1.0427650942475801]
      },
      {
        "species": [{ "element": "Tm", "occu": 1 }],
        "abc": [0.67342393, 0.43770657, 0.3319761],
        "properties": { "magmom": 0.0 },
        "label": "Tm",
        "xyz": [4.9151748425049, 3.869523059887697, 2.06026100575242]
      },
      {
        "species": [{ "element": "Tm", "occu": 1 }],
        "abc": [0.32657607, 0.56229343, 0.6680239],
        "properties": { "magmom": 0.0 },
        "label": "Tm",
        "xyz": [2.3836077274950997, 4.970926970112303, 4.14579119424758]
      },
      {
        "species": [{ "element": "Os", "occu": 1 }],
        "abc": [0.38268579, 0.25, 0.4648597],
        "properties": { "magmom": -0.0 },
        "label": "Os",
        "xyz": [2.7931403738386806, 2.2101125075, 2.88494356387634]
      },
      {
        "species": [{ "element": "Os", "occu": 1 }],
        "abc": [0.61731421, 0.75, 0.5351403],
        "properties": { "magmom": -0.0 },
        "label": "Os",
        "xyz": [4.50564219616132, 6.6303375225, 3.32110863612366]
      },
      {
        "species": [{ "element": "Os", "occu": 1 }],
        "abc": [0.11731421, 0.75, 0.9648597],
        "properties": { "magmom": -0.0 },
        "label": "Os",
        "xyz": [0.8562509111613197, 6.6303375225, 5.98796966387634]
      },
      {
        "species": [{ "element": "Os", "occu": 1 }],
        "abc": [0.88268579, 0.25, 0.0351403],
        "properties": { "magmom": -0.0 },
        "label": "Os",
        "xyz": [6.44253165883868, 2.2101125075, 0.21808253612366]
      }
    ]
  },
  "task_ids": null,
  "uncorrected_energy_per_atom": null,
  "energy_per_atom": -39.9564761125,
  "formation_energy_per_atom": -0.369382682500003,
  "energy_above_hull": 0.0,
  "is_stable": true,
  "equilibrium_reaction_energy_per_atom": null,
  "decomposes_to": null,
  "xas": null,
  "grain_boundaries": null,
  "band_gap": 0.0,
  "cbm": null,
  "vbm": null,
  "efermi": 3.71572154,
  "is_gap_direct": null,
  "is_metal": null,
  "es_source_calc_id": null,
  "bandstructure": null,
  "dos": null,
  "dos_energy_up": null,
  "dos_energy_down": null,
  "is_magnetic": null,
  "ordering": null,
  "total_magnetization": 1.3e-6,
  "total_magnetization_normalized_vol": null,
  "total_magnetization_normalized_formula_units": null,
  "num_magnetic_sites": null,
  "num_unique_magnetic_sites": null,
  "types_of_magnetic_species": null,
  "bulk_modulus": null,
  "shear_modulus": null,
  "universal_anisotropy": null,
  "homogeneous_poisson": null,
  "e_total": null,
  "e_ionic": null,
  "e_electronic": null,
  "n": null,
  "e_ij_max": null,
  "weighted_surface_energy_EV_PER_ANG2": null,
  "weighted_surface_energy": null,
  "weighted_work_function": null,
  "surface_anisotropy": null,
  "shape_factor": null,
  "has_reconstructed": null,
  "possible_species": null,
  "has_props": null,
  "theoretical": null,
  "database_IDs": null,
  "fields_not_requested": [
    "builder_meta",
    "nsites",
    "elements",
    "nelements",
    "composition",
    "composition_reduced",
    "chemsys",
    "symmetry",
    "property_name",
    "deprecated",
    "deprecation_reasons",
    "last_updated",
    "origins",
    "warnings",
    "task_ids",
    "uncorrected_energy_per_atom",
    "equilibrium_reaction_energy_per_atom",
    "decomposes_to",
    "xas",
    "grain_boundaries",
    "cbm",
    "vbm",
    "is_gap_direct",
    "is_metal",
    "es_source_calc_id",
    "bandstructure",
    "dos",
    "dos_energy_up",
    "dos_energy_down",
    "is_magnetic",
    "ordering",
    "total_magnetization_normalized_vol",
    "total_magnetization_normalized_formula_units",
    "num_magnetic_sites",
    "num_unique_magnetic_sites",
    "types_of_magnetic_species",
    "bulk_modulus",
    "shear_modulus",
    "universal_anisotropy",
    "homogeneous_poisson",
    "e_total",
    "e_ionic",
    "e_electronic",
    "n",
    "e_ij_max",
    "weighted_surface_energy_EV_PER_ANG2",
    "weighted_surface_energy",
    "weighted_work_function",
    "surface_anisotropy",
    "shape_factor",
    "has_reconstructed",
    "possible_species",
    "has_props",
    "theoretical",
    "database_IDs"
  ]
}
