{"builder_meta": null, "nsites": null, "elements": null, "nelements": null, "composition": null, "composition_reduced": null, "formula_pretty": "Tm3Pt", "formula_anonymous": "AB3", "chemsys": null, "volume": 416.54475202604607, "density": 11.192172401839228, "density_atomic": 26.03404700162788, "symmetry": null, "property_name": null, "material_id": "mp-1189442", "deprecated": null, "deprecation_reasons": null, "last_updated": null, "origins": null, "warnings": null, "structure": {"@module": "pymatgen.core.structure", "@class": "Structure", "charge": 0, "lattice": {"matrix": [[6.3699779, 0.0, 0.0], [-0.0, 6.93500384, 0.0], [0.0, 0.0, 9.42924751]], "pbc": [true, true, true], "a": 6.3699779, "b": 6.93500384, "c": 9.42924751, "alpha": 90.0, "beta": 90.0, "gamma": 90.0, "volume": 416.54475202604607}, "properties": {}, "sites": [{"species": [{"element": "Tm", "occu": 1}], "abc": [0.31763644, 0.67745784, 0.06146825], "properties": {"magmom": 0.07200000000000001}, "label": "Tm", "xyz": [2.023337103034676, 4.698172721838105, 0.5795993432565575]}, {"species": [{"element": "Tm", "occu": 1}], "abc": [0.18236356, 0.17745684, 0.43853175], "properties": {"magmom": 0.07200000000000001}, "label": "Tm", "xyz": [1.161651846965324, 1.2306638668342658, 4.1350244117434425]}, {"species": [{"element": "Tm", "occu": 1}], "abc": [0.68236356, 0.32254216, 0.56146825], "properties": {"magmom": 0.07200000000000001}, "label": "Tm", "xyz": [4.346640796965324, 2.2368311181618945, 5.294223098256557]}, {"species": [{"element": "Tm", "occu": 1}], "abc": [0.81763644, 0.82254316, 0.93853175], "properties": {"magmom": 0.07200000000000001}, "label": "Tm", "xyz": [5.208326053034677, 5.704339973165735, 8.849648166743442]}, {"species": [{"element": "Tm", "occu": 1}], "abc": [0.68236356, 0.32254216, 0.93853175], "properties": {"magmom": 0.07200000000000001}, "label": "Tm", "xyz": [4.346640796965324, 2.2368311181618945, 8.849648166743442]}, {"species": [{"element": "Tm", "occu": 1}], "abc": [0.81763644, 0.82254316, 0.56146825], "properties": {"magmom": 0.07200000000000001}, "label": "Tm", "xyz": [5.208326053034677, 5.704339973165735, 5.294223098256557]}, {"species": [{"element": "Tm", "occu": 1}], "abc": [0.31763644, 0.67745784, 0.43853175], "properties": {"magmom": 0.07200000000000001}, "label": "Tm", "xyz": [2.023337103034676, 4.698172721838105, 4.1350244117434425]}, {"species": [{"element": "Tm", "occu": 1}], "abc": [0.18236356, 0.17745684, 0.06146825], "properties": {"magmom": 0.07200000000000001}, "label": "Tm", "xyz": [1.161651846965324, 1.2306638668342658, 0.5795993432565575]}, {"species": [{"element": "Tm", "occu": 1}], "abc": [0.86980809, 0.52703411, 0.25], "properties": {"magmom": 0.081}, "label": "Tm", "xyz": [5.540658310541211, 3.6549835766609826, 2.3573118775]}, {"species": [{"element": "Tm", "occu": 1}], "abc": [0.63019191, 0.02703411, 0.25], "properties": {"magmom": 0.081}, "label": "Tm", "xyz": [4.014308539458789, 0.1874816566609824, 2.3573118775]}, {"species": [{"element": "Tm", "occu": 1}], "abc": [0.13019191, 0.47296589, 0.75], "properties": {"magmom": 0.081}, "label": "Tm", "xyz": [0.829319589458789, 3.2800202633390176, 7.0719356325]}, {"species": [{"element": "Tm", "occu": 1}], "abc": [0.36980809000000003, 0.97296589, 0.75], "properties": {"magmom": 0.081}, "label": "Tm", "xyz": [2.3556693605412113, 6.747522183339018, 7.0719356325]}, {"species": [{"element": "Pt", "occu": 1}], "abc": [0.04746795, 0.88783183, 0.25], "properties": {"magmom": 0.0}, "label": "Pt", "xyz": [0.30236979245830503, 6.157117150324227, 2.3573118775]}, {"species": [{"element": "Pt", "occu": 1}], "abc": [0.45253205, 0.38783183, 0.25], "properties": {"magmom": 0.0}, "label": "Pt", "xyz": [2.8826191575416953, 2.689615230324227, 2.3573118775]}, {"species": [{"element": "Pt", "occu": 1}], "abc": [0.9525320500000001, 0.11216817, 0.75], "properties": {"magmom": 0.0}, "label": "Pt", "xyz": [6.067608107541695, 0.7778866896757728, 7.0719356325]}, {"species": [{"element": "Pt", "occu": 1}], "abc": [0.54746795, 0.61216817, 0.75], "properties": {"magmom": 0.0}, "label": "Pt", "xyz": [3.4873587424583055, 4.245388609675773, 7.0719356325]}]}, "task_ids": null, "uncorrected_energy_per_atom": null, "energy_per_atom": -40.03667058125, "formation_energy_per_atom": -0.823955138750001, "energy_above_hull": 0.002794548124995, "is_stable": false, "equilibrium_reaction_energy_per_atom": null, "decomposes_to": null, "xas": null, "grain_boundaries": null, "band_gap": 0.0, "cbm": null, "vbm": null, "efermi": 3.76065449, "is_gap_direct": null, "is_metal": null, "es_source_calc_id": null, "bandstructure": null, "dos": null, "dos_energy_up": null, "dos_energy_down": null, "is_magnetic": null, "ordering": null, "total_magnetization": 1.364131, "total_magnetization_normalized_vol": null, "total_magnetization_normalized_formula_units": null, "num_magnetic_sites": null, "num_unique_magnetic_sites": null, "types_of_magnetic_species": null, "bulk_modulus": null, "shear_modulus": null, "universal_anisotropy": null, "homogeneous_poisson": null, "e_total": null, "e_ionic": null, "e_electronic": null, "n": null, "e_ij_max": null, "weighted_surface_energy_EV_PER_ANG2": null, "weighted_surface_energy": null, "weighted_work_function": null, "surface_anisotropy": null, "shape_factor": null, "has_reconstructed": null, "possible_species": null, "has_props": null, "theoretical": null, "database_IDs": null, "fields_not_requested": ["builder_meta", "nsites", "elements", "nelements", "composition", "composition_reduced", "chemsys", "symmetry", "property_name", "deprecated", "deprecation_reasons", "last_updated", "origins", "warnings", "task_ids", "uncorrected_energy_per_atom", "equilibrium_reaction_energy_per_atom", "decomposes_to", "xas", "grain_boundaries", "cbm", "vbm", "is_gap_direct", "is_metal", "es_source_calc_id", "bandstructure", "dos", "dos_energy_up", "dos_energy_down", "is_magnetic", "ordering", "total_magnetization_normalized_vol", "total_magnetization_normalized_formula_units", "num_magnetic_sites", "num_unique_magnetic_sites", "types_of_magnetic_species", "bulk_modulus", "shear_modulus", "universal_anisotropy", "homogeneous_poisson", "e_total", "e_ionic", "e_electronic", "n", "e_ij_max", "weighted_surface_energy_EV_PER_ANG2", "weighted_surface_energy", "weighted_work_function", "surface_anisotropy", "shape_factor", "has_reconstructed", "possible_species", "has_props", "theoretical", "database_IDs"]}