{
  "builder_meta": null,
  "nsites": null,
  "elements": null,
  "nelements": null,
  "composition": null,
  "composition_reduced": null,
  "formula_pretty": "Tm3Pd4",
  "formula_anonymous": "A3B4",
  "chemsys": null,
  "volume": 274.6126800187481,
  "density": 11.277147405831373,
  "density_atomic": 19.615191429910578,
  "symmetry": null,
  "property_name": null,
  "material_id": "mp-1104675",
  "deprecated": null,
  "deprecation_reasons": null,
  "last_updated": null,
  "origins": null,
  "warnings": null,
  "structure": {
    "@module": "pymatgen.core.structure",
    "@class": "Structure",
    "charge": 0,
    "lattice": {
      "matrix": [
        [-0.0, -0.0, -5.6681196400000005],
        [-0.00012511, -7.47954997, 1.88937288],
        [-6.47741788, 3.739883449999999, 1.88937288]
      ],
      "pbc": [true, true, true],
      "a": 5.6681196400000005,
      "b": 7.714492701990132,
      "c": 7.714492886211451,
      "alpha": 114.20653555077753,
      "beta": 104.17664091055613,
      "gamma": 104.17664125617492,
      "volume": 274.61268001874816
    },
    "properties": {},
    "sites": [
      {
        "species": [{ "element": "Tm", "occu": 1 }],
        "abc": [0.40526323000000003, 0.12983246, 0.38147469],
        "properties": { "magmom": -0.0 },
        "label": "Tm",
        "xyz": [-2.470987221112528, 0.4555825074268539, -1.3310306107727454]
      },
      {
        "species": [{ "element": "Tm", "occu": 1 }],
        "abc": [0.02378854, 0.61852531, 0.74835777],
        "properties": { "magmom": -0.0 },
        "label": "Tm",
        "xyz": [-4.847503383736462, -1.827520125152835, 2.447715530701945]
      },
      {
        "species": [{ "element": "Tm", "occu": 1 }],
        "abc": [0.27543078, 0.25164223, 0.8701675400000001],
        "properties": { "magmom": -0.0 },
        "label": "Tm",
        "xyz": [-5.636470265151011, 1.372154547725979, 0.5583423423785185]
      },
      {
        "species": [{ "element": "Tm", "occu": 1 }],
        "abc": [0.59473677, 0.8701675400000001, 0.61852531],
        "properties": { "magmom": -0.0 },
        "label": "Tm",
        "xyz": [-4.0065557688874724, -4.195249027426856, -0.5583432692272552]
      },
      {
        "species": [{ "element": "Tm", "occu": 1 }],
        "abc": [0.97621146, 0.38147469, 0.25164223],
        "properties": { "magmom": -0.0 },
        "label": "Tm",
        "xyz": [-1.6300396062635385, -1.912146394847166, -4.337089410701945]
      },
      {
        "species": [{ "element": "Tm", "occu": 1 }],
        "abc": [0.72456922, 0.74835777, 0.12983246],
        "properties": { "magmom": -0.0 },
        "label": "Tm",
        "xyz": [-0.8410727248489895, -5.11182106772598, -2.447716222378519]
      },
      {
        "species": [{ "element": "Pd", "occu": 1 }],
        "abc": [0.0, 0.0, -0.0],
        "properties": { "magmom": -0.0 },
        "label": "Pd",
        "xyz": [0.0, 0.0, 0.0]
      },
      {
        "species": [{ "element": "Pd", "occu": 1 }],
        "abc": [0.5, 0.0, -0.0],
        "properties": { "magmom": 0.0 },
        "label": "Pd",
        "xyz": [0.0, 0.0, -2.8340598200000002]
      },
      {
        "species": [{ "element": "Pd", "occu": 1 }],
        "abc": [0.22916521, 0.68159, 0.16542379000000001],
        "properties": { "magmom": 0.0 },
        "label": "Pd",
        "xyz": [-1.0716042888482653, -4.479320769595025, 0.3013890562062907]
      },
      {
        "species": [{ "element": "Pd", "occu": 1 }],
        "abc": [0.06374242000000001, 0.83457621, 0.51616721],
        "properties": { "magmom": 0.0 },
        "label": "Pd",
        "xyz": [-3.3435351289533477, -4.31184926035654, 2.1907583228833207]
      },
      {
        "species": [{ "element": "Pd", "occu": 1 }],
        "abc": [0.54757521, 0.48383279, 0.31841],
        "properties": { "magmom": 0.0 },
        "label": "Pd",
        "xyz": [-2.062535159491157, -2.4280352406150167, -1.5879860315765895]
      },
      {
        "species": [{ "element": "Pd", "occu": 1 }],
        "abc": [0.77083479, 0.31841, 0.83457621],
        "properties": { "magmom": 0.0 },
        "label": "Pd",
        "xyz": [-5.405938701151735, 0.7396542495950236, -2.1907629362062906]
      },
      {
        "species": [{ "element": "Pd", "occu": 1 }],
        "abc": [0.93625758, 0.16542379000000001, 0.48383279],
        "properties": { "magmom": 0.0 },
        "label": "Pd",
        "xyz": [-3.134007861046652, 0.5721827403565387, -4.080132202883321]
      },
      {
        "species": [{ "element": "Pd", "occu": 1 }],
        "abc": [0.45242479, 0.51616721, 0.68159],
        "properties": { "magmom": 0.0 },
        "label": "Pd",
        "xyz": [-4.415007830508843, -1.3116312793849838, -0.30138784842341115]
      }
    ]
  },
  "task_ids": null,
  "uncorrected_energy_per_atom": null,
  "energy_per_atom": -29.180286252142857,
  "formation_energy_per_atom": -1.008149207857144,
  "energy_above_hull": 0.0,
  "is_stable": true,
  "equilibrium_reaction_energy_per_atom": null,
  "decomposes_to": null,
  "xas": null,
  "grain_boundaries": null,
  "band_gap": 0.0,
  "cbm": null,
  "vbm": null,
  "efermi": 4.45335227,
  "is_gap_direct": null,
  "is_metal": null,
  "es_source_calc_id": null,
  "bandstructure": null,
  "dos": null,
  "dos_energy_up": null,
  "dos_energy_down": null,
  "is_magnetic": null,
  "ordering": null,
  "total_magnetization": 0.0,
  "total_magnetization_normalized_vol": null,
  "total_magnetization_normalized_formula_units": null,
  "num_magnetic_sites": null,
  "num_unique_magnetic_sites": null,
  "types_of_magnetic_species": null,
  "bulk_modulus": null,
  "shear_modulus": null,
  "universal_anisotropy": null,
  "homogeneous_poisson": null,
  "e_total": null,
  "e_ionic": null,
  "e_electronic": null,
  "n": null,
  "e_ij_max": null,
  "weighted_surface_energy_EV_PER_ANG2": null,
  "weighted_surface_energy": null,
  "weighted_work_function": null,
  "surface_anisotropy": null,
  "shape_factor": null,
  "has_reconstructed": null,
  "possible_species": null,
  "has_props": null,
  "theoretical": null,
  "database_IDs": null,
  "fields_not_requested": [
    "builder_meta",
    "nsites",
    "elements",
    "nelements",
    "composition",
    "composition_reduced",
    "chemsys",
    "symmetry",
    "property_name",
    "deprecated",
    "deprecation_reasons",
    "last_updated",
    "origins",
    "warnings",
    "task_ids",
    "uncorrected_energy_per_atom",
    "equilibrium_reaction_energy_per_atom",
    "decomposes_to",
    "xas",
    "grain_boundaries",
    "cbm",
    "vbm",
    "is_gap_direct",
    "is_metal",
    "es_source_calc_id",
    "bandstructure",
    "dos",
    "dos_energy_up",
    "dos_energy_down",
    "is_magnetic",
    "ordering",
    "total_magnetization_normalized_vol",
    "total_magnetization_normalized_formula_units",
    "num_magnetic_sites",
    "num_unique_magnetic_sites",
    "types_of_magnetic_species",
    "bulk_modulus",
    "shear_modulus",
    "universal_anisotropy",
    "homogeneous_poisson",
    "e_total",
    "e_ionic",
    "e_electronic",
    "n",
    "e_ij_max",
    "weighted_surface_energy_EV_PER_ANG2",
    "weighted_surface_energy",
    "weighted_work_function",
    "surface_anisotropy",
    "shape_factor",
    "has_reconstructed",
    "possible_species",
    "has_props",
    "theoretical",
    "database_IDs"
  ]
}
