{"builder_meta": null, "nsites": null, "elements": null, "nelements": null, "composition": null, "composition_reduced": null, "formula_pretty": "Tm3Pt4", "formula_anonymous": "A3B4", "chemsys": null, "volume": 274.15571346305205, "density": 15.592189943785739, "density_atomic": 19.582550961646575, "symmetry": null, "property_name": null, "material_id": "mp-1105001", "deprecated": null, "deprecation_reasons": null, "last_updated": null, "origins": null, "warnings": null, "structure": {"@module": "pymatgen.core.structure", "@class": "Structure", "charge": 0, "lattice": {"matrix": [[1e-08, 0.0, -5.65459439], [-0.00013088, -7.48225663, 1.88486547], [-6.47975906, 3.7412419100000003, 1.88486547]], "pbc": [true, true, true], "a": 5.65459439, "b": 7.716014653582953, "c": 7.716014926423539, "alpha": 114.23569402120957, "beta": 104.13926771746806, "gamma": 104.13926814009115, "volume": 274.15571346305205}, "properties": {}, "sites": [{"species": [{"element": "Tm", "occu": 1}], "abc": [0.405180899999999, 0.12665936, 0.37870387], "properties": {"magmom": 0.0}, "label": "Tm", "xyz": [-2.45392640581479, 0.469124953811635, -1.3385919420404775]}, {"species": [{"element": "Tm", "occu": 1}], "abc": [0.02647803, 0.6212961300000001, 0.7479554900000001], "properties": {"magmom": 0.0}, "label": "Tm", "xyz": [-4.846652677776954, -1.8504146618832555, 2.43113257838331]}, {"species": [{"element": "Tm", "occu": 1}], "abc": [0.27852154, 0.25204451, 0.87334064], "properties": {"magmom": 0.0}, "label": "Tm", "xyz": [-5.659069909306452, 1.3815168980716213, 0.54627327210761]}, {"species": [{"element": "Tm", "occu": 1}], "abc": [0.594819099999999, 0.87334064, 0.6212961300000001], "properties": {"magmom": 0.0}, "label": "Tm", "xyz": [-4.02596352418521, -4.210139673811635, -0.5462715079595115]}, {"species": [{"element": "Tm", "occu": 1}], "abc": [0.9735219700000001, 0.37870387, 0.25204451], "properties": {"magmom": 0.0}, "label": "Tm", "xyz": [-1.6332372522230465, -1.890600058116744, -4.31599602838331]}, {"species": [{"element": "Tm", "occu": 1}], "abc": [0.72147846, 0.7479554900000001, 0.12665936], "properties": {"magmom": 0.0}, "label": "Tm", "xyz": [-0.8208200206935482, -5.122531618071622, -2.4311367221076097]}, {"species": [{"element": "Pt", "occu": 1}], "abc": [-0.0, -0.0, -0.0], "properties": {"magmom": 0.0}, "label": "Pt", "xyz": [0.0, 0.0, 0.0]}, {"species": [{"element": "Pt", "occu": 1}], "abc": [0.5, -0.0, -0.0], "properties": {"magmom": 0.0}, "label": "Pt", "xyz": [5e-09, 0.0, -2.827297195]}, {"species": [{"element": "Pt", "occu": 1}], "abc": [0.2284157, 0.67686913, 0.16590599], "properties": {"magmom": -0.0}, "label": "Pt", "xyz": [-1.075119428158347, -4.443814092676791, 0.29691958685518366]}, {"species": [{"element": "Pt", "occu": 1}], "abc": [0.06251071, 0.83409401, 0.51096513], "properties": {"magmom": -0.0}, "label": "Pt", "xyz": [-3.3110400960604998, -4.329261277461188, 2.1817828180129792]}, {"species": [{"element": "Pt", "occu": 1}], "abc": [0.55154657, 0.48903487, 0.32313087], "properties": {"magmom": -0.0}, "label": "Pt", "xyz": [-2.0938741818165023, -2.4501736450999267, -1.5879489813027443]}, {"species": [{"element": "Pt", "occu": 1}], "abc": [0.7715843, 0.32313087, 0.83409401], "properties": {"magmom": -0.0}, "label": "Pt", "xyz": [-5.404770501841654, 0.7027993726767914, -2.181783036855183]}, {"species": [{"element": "Pt", "occu": 1}], "abc": [0.93748929, 0.16590599, 0.48903487], "properties": {"magmom": -0.0}, "label": "Pt", "xyz": [-3.1688498339395004, 0.5882465574611881, -4.066646268012979]}, {"species": [{"element": "Pt", "occu": 1}], "abc": [0.44845343, 0.51096513, 0.67686913], "properties": {"magmom": -0.0}, "label": "Pt", "xyz": [-4.386015748183498, -1.2908410749000732, -0.29691446869725535]}]}, "task_ids": null, "uncorrected_energy_per_atom": null, "energy_per_atom": -45.86178503357143, "formation_energy_per_atom": -1.38835468071429, "energy_above_hull": 0.0, "is_stable": true, "equilibrium_reaction_energy_per_atom": null, "decomposes_to": null, "xas": null, "grain_boundaries": null, "band_gap": 0.0, "cbm": null, "vbm": null, "efermi": 5.12920518, "is_gap_direct": null, "is_metal": null, "es_source_calc_id": null, "bandstructure": null, "dos": null, "dos_energy_up": null, "dos_energy_down": null, "is_magnetic": null, "ordering": null, "total_magnetization": 0.0, "total_magnetization_normalized_vol": null, "total_magnetization_normalized_formula_units": null, "num_magnetic_sites": null, "num_unique_magnetic_sites": null, "types_of_magnetic_species": null, "bulk_modulus": null, "shear_modulus": null, "universal_anisotropy": null, "homogeneous_poisson": null, "e_total": null, "e_ionic": null, "e_electronic": null, "n": null, "e_ij_max": null, "weighted_surface_energy_EV_PER_ANG2": null, "weighted_surface_energy": null, "weighted_work_function": null, "surface_anisotropy": null, "shape_factor": null, "has_reconstructed": null, "possible_species": null, "has_props": null, "theoretical": null, "database_IDs": null, "fields_not_requested": ["builder_meta", "nsites", "elements", "nelements", "composition", "composition_reduced", "chemsys", "symmetry", "property_name", "deprecated", "deprecation_reasons", "last_updated", "origins", "warnings", "task_ids", "uncorrected_energy_per_atom", "equilibrium_reaction_energy_per_atom", "decomposes_to", "xas", "grain_boundaries", "cbm", "vbm", "is_gap_direct", "is_metal", "es_source_calc_id", "bandstructure", "dos", "dos_energy_up", "dos_energy_down", "is_magnetic", "ordering", "total_magnetization_normalized_vol", "total_magnetization_normalized_formula_units", "num_magnetic_sites", "num_unique_magnetic_sites", "types_of_magnetic_species", "bulk_modulus", "shear_modulus", "universal_anisotropy", "homogeneous_poisson", "e_total", "e_ionic", "e_electronic", "n", "e_ij_max", "weighted_surface_energy_EV_PER_ANG2", "weighted_surface_energy", "weighted_work_function", "surface_anisotropy", "shape_factor", "has_reconstructed", "possible_species", "has_props", "theoretical", "database_IDs"]}