{
  "builder_meta": null,
  "nsites": null,
  "elements": null,
  "nelements": null,
  "composition": null,
  "composition_reduced": null,
  "formula_pretty": "Tm3Ru",
  "formula_anonymous": "AB3",
  "chemsys": null,
  "volume": 399.7733792984596,
  "density": 10.099684490280183,
  "density_atomic": 24.985836206153724,
  "symmetry": null,
  "property_name": null,
  "material_id": "mp-1207837",
  "deprecated": null,
  "deprecation_reasons": null,
  "last_updated": null,
  "origins": null,
  "warnings": null,
  "structure": {
    "@module": "pymatgen.core.structure",
    "@class": "Structure",
    "charge": 0,
    "lattice": {
      "matrix": [
        [0.0, 0.0, 6.19960283],
        [7.20780502, 0.0, 0.0],
        [0.0, 8.94637243, 0.0]
      ],
      "pbc": [true, true, true],
      "a": 6.19960283,
      "b": 7.20780502,
      "c": 8.94637243,
      "alpha": 90.0,
      "beta": 90.0,
      "gamma": 90.0,
      "volume": 399.7733792984596
    },
    "properties": {},
    "sites": [
      {
        "species": [{ "element": "Tm", "occu": 1 }],
        "abc": [0.62926976, 0.04255395, 0.25],
        "properties": { "magmom": -0.0 },
        "label": "Tm",
        "xyz": [0.306720574430829, 2.2365931075, 3.9012225849294206]
      },
      {
        "species": [{ "element": "Tm", "occu": 1 }],
        "abc": [0.37073024, 0.95744605, 0.75],
        "properties": { "magmom": -0.0 },
        "label": "Tm",
        "xyz": [6.901084445569172, 6.7097793225, 2.2983802450705793]
      },
      {
        "species": [{ "element": "Tm", "occu": 1 }],
        "abc": [0.12926976, 0.45744605, 0.75],
        "properties": { "magmom": -0.0 },
        "label": "Tm",
        "xyz": [3.297181935569171, 6.7097793225, 0.8014211699294208]
      },
      {
        "species": [{ "element": "Tm", "occu": 1 }],
        "abc": [0.87073024, 0.5425539500000001, 0.25],
        "properties": { "magmom": -0.0 },
        "label": "Tm",
        "xyz": [3.9106230844308296, 2.2365931075, 5.398181660070579]
      },
      {
        "species": [{ "element": "Tm", "occu": 1 }],
        "abc": [0.16935865, 0.17548777000000002, 0.0639164],
        "properties": { "magmom": 0.0 },
        "label": "Tm",
        "xyz": [1.2648816295546055, 0.571819918784852, 1.0499563658249795]
      },
      {
        "species": [{ "element": "Tm", "occu": 1 }],
        "abc": [0.8306413500000001, 0.8245122300000001, 0.9360835999999991],
        "properties": { "magmom": 0.0 },
        "label": "Tm",
        "xyz": [5.9429233904453955, 8.37455251121514, 5.149646464175021]
      },
      {
        "species": [{ "element": "Tm", "occu": 1 }],
        "abc": [0.66935865, 0.32451223, 0.9360835999999991],
        "properties": { "magmom": 0.0 },
        "label": "Tm",
        "xyz": [2.339020880445395, 8.37455251121514, 4.14975778082498]
      },
      {
        "species": [{ "element": "Tm", "occu": 1 }],
        "abc": [0.8306413500000001, 0.8245122300000001, 0.5639164],
        "properties": { "magmom": 0.0 },
        "label": "Tm",
        "xyz": [5.9429233904453955, 5.045006133784852, 5.149646464175021]
      },
      {
        "species": [{ "element": "Tm", "occu": 1 }],
        "abc": [0.33064135, 0.67548777, 0.0639164],
        "properties": { "magmom": 0.0 },
        "label": "Tm",
        "xyz": [4.868784139554606, 0.571819918784852, 2.0498450491750204]
      },
      {
        "species": [{ "element": "Tm", "occu": 1 }],
        "abc": [0.16935865, 0.17548777000000002, 0.436083599999999],
        "properties": { "magmom": 0.0 },
        "label": "Tm",
        "xyz": [1.2648816295546055, 3.9013662962151394, 1.0499563658249795]
      },
      {
        "species": [{ "element": "Tm", "occu": 1 }],
        "abc": [0.33064135, 0.67548777, 0.436083599999999],
        "properties": { "magmom": 0.0 },
        "label": "Tm",
        "xyz": [4.868784139554606, 3.9013662962151394, 2.0498450491750204]
      },
      {
        "species": [{ "element": "Tm", "occu": 1 }],
        "abc": [0.66935865, 0.32451223, 0.5639164],
        "properties": { "magmom": 0.0 },
        "label": "Tm",
        "xyz": [2.339020880445395, 5.045006133784852, 4.14975778082498]
      },
      {
        "species": [{ "element": "Ru", "occu": 1 }],
        "abc": [0.46664199, 0.38519648, 0.25],
        "properties": { "magmom": -0.0 },
        "label": "Ru",
        "xyz": [2.77642112223033, 2.2365931075, 2.892995001800832]
      },
      {
        "species": [{ "element": "Ru", "occu": 1 }],
        "abc": [0.53335801, 0.61480352, 0.75],
        "properties": { "magmom": -0.0 },
        "label": "Ru",
        "xyz": [4.431383897769671, 6.7097793225, 3.3066078281991684]
      },
      {
        "species": [{ "element": "Ru", "occu": 1 }],
        "abc": [0.9666419900000001, 0.11480352, 0.75],
        "properties": { "magmom": -0.0 },
        "label": "Ru",
        "xyz": [0.8274813877696705, 6.7097793225, 5.992796416800832]
      },
      {
        "species": [{ "element": "Ru", "occu": 1 }],
        "abc": [0.03335801, 0.8851964800000001, 0.25],
        "properties": { "magmom": -0.0 },
        "label": "Ru",
        "xyz": [6.38032363223033, 2.2365931075, 0.2068064131991683]
      }
    ]
  },
  "task_ids": null,
  "uncorrected_energy_per_atom": null,
  "energy_per_atom": -6.047736573750001,
  "formation_energy_per_atom": -0.367259828750006,
  "energy_above_hull": 0.0,
  "is_stable": true,
  "equilibrium_reaction_energy_per_atom": null,
  "decomposes_to": null,
  "xas": null,
  "grain_boundaries": null,
  "band_gap": 0.0,
  "cbm": null,
  "vbm": null,
  "efermi": 3.72681331,
  "is_gap_direct": null,
  "is_metal": null,
  "es_source_calc_id": null,
  "bandstructure": null,
  "dos": null,
  "dos_energy_up": null,
  "dos_energy_down": null,
  "is_magnetic": null,
  "ordering": null,
  "total_magnetization": 2e-7,
  "total_magnetization_normalized_vol": null,
  "total_magnetization_normalized_formula_units": null,
  "num_magnetic_sites": null,
  "num_unique_magnetic_sites": null,
  "types_of_magnetic_species": null,
  "bulk_modulus": null,
  "shear_modulus": null,
  "universal_anisotropy": null,
  "homogeneous_poisson": null,
  "e_total": null,
  "e_ionic": null,
  "e_electronic": null,
  "n": null,
  "e_ij_max": null,
  "weighted_surface_energy_EV_PER_ANG2": null,
  "weighted_surface_energy": null,
  "weighted_work_function": null,
  "surface_anisotropy": null,
  "shape_factor": null,
  "has_reconstructed": null,
  "possible_species": null,
  "has_props": null,
  "theoretical": null,
  "database_IDs": null,
  "fields_not_requested": [
    "builder_meta",
    "nsites",
    "elements",
    "nelements",
    "composition",
    "composition_reduced",
    "chemsys",
    "symmetry",
    "property_name",
    "deprecated",
    "deprecation_reasons",
    "last_updated",
    "origins",
    "warnings",
    "task_ids",
    "uncorrected_energy_per_atom",
    "equilibrium_reaction_energy_per_atom",
    "decomposes_to",
    "xas",
    "grain_boundaries",
    "cbm",
    "vbm",
    "is_gap_direct",
    "is_metal",
    "es_source_calc_id",
    "bandstructure",
    "dos",
    "dos_energy_up",
    "dos_energy_down",
    "is_magnetic",
    "ordering",
    "total_magnetization_normalized_vol",
    "total_magnetization_normalized_formula_units",
    "num_magnetic_sites",
    "num_unique_magnetic_sites",
    "types_of_magnetic_species",
    "bulk_modulus",
    "shear_modulus",
    "universal_anisotropy",
    "homogeneous_poisson",
    "e_total",
    "e_ionic",
    "e_electronic",
    "n",
    "e_ij_max",
    "weighted_surface_energy_EV_PER_ANG2",
    "weighted_surface_energy",
    "weighted_work_function",
    "surface_anisotropy",
    "shape_factor",
    "has_reconstructed",
    "possible_species",
    "has_props",
    "theoretical",
    "database_IDs"
  ]
}
