{
  "builder_meta": null,
  "nsites": null,
  "elements": null,
  "nelements": null,
  "composition": null,
  "composition_reduced": null,
  "formula_pretty": "Tm3Ru2",
  "formula_anonymous": "A2B3",
  "chemsys": null,
  "volume": 229.2667628601186,
  "density": 10.26949496217561,
  "density_atomic": 22.926676286011862,
  "symmetry": null,
  "property_name": null,
  "material_id": "mp-1205565",
  "deprecated": null,
  "deprecation_reasons": null,
  "last_updated": null,
  "origins": null,
  "warnings": null,
  "structure": {
    "@module": "pymatgen.core.structure",
    "@class": "Structure",
    "charge": 0,
    "lattice": {
      "matrix": [
        [0.0, 0.0, -4.666886],
        [-3.765838, -6.522623, 0.0],
        [-3.765838, 6.522623, 0.0]
      ],
      "pbc": [true, true, true],
      "a": 4.666886,
      "b": 7.531676217308668,
      "c": 7.531676217308668,
      "alpha": 120.00000190887464,
      "beta": 90.0,
      "gamma": 90.0,
      "volume": 229.2667628601186
    },
    "properties": {},
    "sites": [
      {
        "species": [{ "element": "Tm", "occu": 1 }],
        "abc": [0.75, 0.613632, 0.694434999999999],
        "properties": { "magmom": -0.001 },
        "label": "Tm",
        "xyz": [-4.925968415145996, 0.5270475062689943, -3.5001645]
      },
      {
        "species": [{ "element": "Tm", "occu": 1 }],
        "abc": [0.25, 0.386368, 0.305565],
        "properties": { "magmom": -0.001 },
        "label": "Tm",
        "xyz": [-2.6057075848539997, -0.5270475062690001, -1.1667215]
      },
      {
        "species": [{ "element": "Tm", "occu": 1 }],
        "abc": [0.75, 0.080803, 0.386368],
        "properties": { "magmom": 0.0 },
        "label": "Tm",
        "xyz": [-1.759290304298, 1.993085296995, -3.5001645]
      },
      {
        "species": [{ "element": "Tm", "occu": 1 }],
        "abc": [0.25, 0.919196999999999, 0.613632],
        "properties": { "magmom": 0.0 },
        "label": "Tm",
        "xyz": [-5.7723856957019954, -1.9930852969949946, -1.1667215]
      },
      {
        "species": [{ "element": "Tm", "occu": 1 }],
        "abc": [0.75, 0.305565, 0.919196999999999],
        "properties": { "magmom": 0.0 },
        "label": "Tm",
        "xyz": [-4.612255280555996, 4.0024901967359945, -3.5001645]
      },
      {
        "species": [{ "element": "Tm", "occu": 1 }],
        "abc": [0.25, 0.694434999999999, 0.080803],
        "properties": { "magmom": 0.0 },
        "label": "Tm",
        "xyz": [-2.9194207194439965, -4.0024901967359945, -1.1667215]
      },
      {
        "species": [{ "element": "Ru", "occu": 1 }],
        "abc": [0.75, 0.666667, 0.333333],
        "properties": { "magmom": 0.0 },
        "label": "Ru",
        "xyz": [-3.7658380000000005, -2.174212015082, -3.5001645]
      },
      {
        "species": [{ "element": "Ru", "occu": 1 }],
        "abc": [0.25, 0.333333, 0.666667],
        "properties": { "magmom": 0.0 },
        "label": "Ru",
        "xyz": [-3.7658380000000005, 2.174212015082, -1.1667215]
      },
      {
        "species": [{ "element": "Ru", "occu": 1 }],
        "abc": [0.0, 0.0, 0.0],
        "properties": { "magmom": -0.0 },
        "label": "Ru",
        "xyz": [0.0, 0.0, 0.0]
      },
      {
        "species": [{ "element": "Ru", "occu": 1 }],
        "abc": [0.5, 0.0, 0.0],
        "properties": { "magmom": -0.0 },
        "label": "Ru",
        "xyz": [0.0, 0.0, -2.333443]
      }
    ]
  },
  "task_ids": null,
  "uncorrected_energy_per_atom": null,
  "energy_per_atom": -6.721827023,
  "formation_energy_per_atom": -0.322565119000004,
  "energy_above_hull": 0.073771369,
  "is_stable": false,
  "equilibrium_reaction_energy_per_atom": null,
  "decomposes_to": null,
  "xas": null,
  "grain_boundaries": null,
  "band_gap": 0.0,
  "cbm": null,
  "vbm": null,
  "efermi": 4.11307988,
  "is_gap_direct": null,
  "is_metal": null,
  "es_source_calc_id": null,
  "bandstructure": null,
  "dos": null,
  "dos_energy_up": null,
  "dos_energy_down": null,
  "is_magnetic": null,
  "ordering": null,
  "total_magnetization": 0.0005757,
  "total_magnetization_normalized_vol": null,
  "total_magnetization_normalized_formula_units": null,
  "num_magnetic_sites": null,
  "num_unique_magnetic_sites": null,
  "types_of_magnetic_species": null,
  "bulk_modulus": null,
  "shear_modulus": null,
  "universal_anisotropy": null,
  "homogeneous_poisson": null,
  "e_total": null,
  "e_ionic": null,
  "e_electronic": null,
  "n": null,
  "e_ij_max": null,
  "weighted_surface_energy_EV_PER_ANG2": null,
  "weighted_surface_energy": null,
  "weighted_work_function": null,
  "surface_anisotropy": null,
  "shape_factor": null,
  "has_reconstructed": null,
  "possible_species": null,
  "has_props": null,
  "theoretical": null,
  "database_IDs": null,
  "fields_not_requested": [
    "builder_meta",
    "nsites",
    "elements",
    "nelements",
    "composition",
    "composition_reduced",
    "chemsys",
    "symmetry",
    "property_name",
    "deprecated",
    "deprecation_reasons",
    "last_updated",
    "origins",
    "warnings",
    "task_ids",
    "uncorrected_energy_per_atom",
    "equilibrium_reaction_energy_per_atom",
    "decomposes_to",
    "xas",
    "grain_boundaries",
    "cbm",
    "vbm",
    "is_gap_direct",
    "is_metal",
    "es_source_calc_id",
    "bandstructure",
    "dos",
    "dos_energy_up",
    "dos_energy_down",
    "is_magnetic",
    "ordering",
    "total_magnetization_normalized_vol",
    "total_magnetization_normalized_formula_units",
    "num_magnetic_sites",
    "num_unique_magnetic_sites",
    "types_of_magnetic_species",
    "bulk_modulus",
    "shear_modulus",
    "universal_anisotropy",
    "homogeneous_poisson",
    "e_total",
    "e_ionic",
    "e_electronic",
    "n",
    "e_ij_max",
    "weighted_surface_energy_EV_PER_ANG2",
    "weighted_surface_energy",
    "weighted_work_function",
    "surface_anisotropy",
    "shape_factor",
    "has_reconstructed",
    "possible_species",
    "has_props",
    "theoretical",
    "database_IDs"
  ]
}
