{
  "builder_meta": null,
  "nsites": null,
  "elements": null,
  "nelements": null,
  "composition": null,
  "composition_reduced": null,
  "formula_pretty": "Tm3Sb",
  "formula_anonymous": "AB3",
  "chemsys": null,
  "volume": 902.5700545664918,
  "density": 9.251384289908975,
  "density_atomic": 28.205314205202868,
  "symmetry": null,
  "property_name": null,
  "material_id": "mp-17861",
  "deprecated": null,
  "deprecation_reasons": null,
  "last_updated": null,
  "origins": null,
  "warnings": null,
  "structure": {
    "@module": "pymatgen.core.structure",
    "@class": "Structure",
    "charge": 0,
    "lattice": {
      "matrix": [
        [6.09569709, 3.1020000000000005e-5, 4.39e-5],
        [6.201e-5, 12.16818026, 0.00025022],
        [8.787000000000001e-5, -0.00030604, 12.16835602]
      ],
      "pbc": [true, true, true],
      "a": 6.095697090237007,
      "b": 12.168180262730699,
      "c": 12.168356024165789,
      "alpha": 90.00026281427567,
      "beta": 89.99917363084757,
      "gamma": 89.99941643893423,
      "volume": 902.5700545664916
    },
    "properties": {},
    "sites": [
      {
        "species": [{ "element": "Tm", "occu": 1 }],
        "abc": [0.26667866, 0.42416658, 0.53556432],
        "properties": { "magmom": 0.0 },
        "label": "Tm",
        "xyz": [1.6256656943335237, 5.161179773975252, 6.517055159524028]
      },
      {
        "species": [{ "element": "Tm", "occu": 1 }],
        "abc": [0.76667743, 0.46443634, 0.92417066],
        "properties": { "magmom": 0.0 },
        "label": "Tm",
        "xyz": [4.673543385593017, 5.65108605355974, 11.245787482518544]
      },
      {
        "species": [{ "element": "Tm", "occu": 1 }],
        "abc": [0.76667538, 0.03556153, 0.57582583],
        "properties": { "magmom": 0.001 },
        "label": "Tm",
        "xyz": [4.673473685826802, 0.4325666638946722, 7.006896260207214]
      },
      {
        "species": [{ "element": "Tm", "occu": 1 }],
        "abc": [0.26667976, 0.07582778, 0.96443612],
        "properties": { "magmom": 0.0 },
        "label": "Tm",
        "xyz": [1.6256884840764003, 0.9223992121316131, 11.735632747576018]
      },
      {
        "species": [{ "element": "Tm", "occu": 1 }],
        "abc": [0.73332134, 0.57583342, 0.46443568],
        "properties": { "magmom": 0.0 },
        "label": "Tm",
        "xyz": [4.4701812756664765, 7.006725466024749, 5.651594980475972]
      },
      {
        "species": [{ "element": "Tm", "occu": 1 }],
        "abc": [0.23332257, 0.53556366, 0.07582934],
        "properties": { "magmom": 0.0 },
        "label": "Tm",
        "xyz": [1.4223035844069838, 6.516819186440259, 0.9228626574814549]
      },
      {
        "species": [{ "element": "Tm", "occu": 1 }],
        "abc": [0.23332462, 0.96443847, 0.42417417],
        "properties": { "magmom": 0.001 },
        "label": "Tm",
        "xyz": [1.4223732841731982, 11.735338576105327, 5.161753879792784]
      },
      {
        "species": [{ "element": "Tm", "occu": 1 }],
        "abc": [0.7333202400000001, 0.92417222, 0.03556388],
        "properties": { "magmom": 0.0 },
        "label": "Tm",
        "xyz": [4.4701584859236, 11.245506027868386, 0.43301739242398196]
      },
      {
        "species": [{ "element": "Tm", "occu": 1 }],
        "abc": [0.96276702, 0.3952386, 0.28116589000000003],
        "properties": { "magmom": 0.0 },
        "label": "Tm",
        "xyz": [5.8687853369543115, 4.80927834753402, 3.4214678122748277]
      },
      {
        "species": [{ "element": "Tm", "occu": 1 }],
        "abc": [0.4627671, 0.71883604, 0.8952405600000001],
        "properties": { "magmom": 0.0 },
        "label": "Tm",
        "xyz": [2.8210113046285863, 8.74666688771903, 10.893806040253791]
      },
      {
        "species": [{ "element": "Tm", "occu": 1 }],
        "abc": [0.46276963, 0.78117112, 0.6047578100000001],
        "properties": { "magmom": 0.0 },
        "label": "Tm",
        "xyz": [2.8210050674212925, 9.505260277099842, 7.35912411817992]
      },
      {
        "species": [{ "element": "Tm", "occu": 1 }],
        "abc": [0.96276765, 0.10475552, 0.21883734],
        "properties": { "magmom": 0.0 },
        "label": "Tm",
        "xyz": [5.868765687577999, 1.2746469426630047, 2.662959141015836]
      },
      {
        "species": [{ "element": "Tm", "occu": 1 }],
        "abc": [0.03723298, 0.6047614, 0.71883411],
        "properties": { "magmom": 0.0 },
        "label": "Tm",
        "xyz": [0.2270616330456879, 7.3586268924659795, 8.747182327725172]
      },
      {
        "species": [{ "element": "Tm", "occu": 1 }],
        "abc": [0.5372329, 0.28116396, 0.10475944],
        "properties": { "magmom": 0.0 },
        "label": "Tm",
        "xyz": [3.2748356653714135, 3.42123835228097, 1.2748440997462098]
      },
      {
        "species": [{ "element": "Tm", "occu": 1 }],
        "abc": [0.53723037, 0.21882888, 0.39524219],
        "properties": { "magmom": 0.0 },
        "label": "Tm",
        "xyz": [3.274841902578707, 2.6626449629001585, 4.80952602182008]
      },
      {
        "species": [{ "element": "Tm", "occu": 1 }],
        "abc": [0.03723235, 0.89524448, 0.78116266],
        "properties": { "magmom": 0.0 },
        "label": "Tm",
        "xyz": [0.22708128242200046, 10.893258297336995, 9.505690998984162]
      },
      {
        "species": [{ "element": "Tm", "occu": 1 }],
        "abc": [0.78759999, 0.16680399, 0.85867287],
        "properties": { "magmom": 0.0 },
        "label": "Tm",
        "xyz": [4.801056762227536, 2.0294626615137927, 10.448713500209115]
      },
      {
        "species": [{ "element": "Tm", "occu": 1 }],
        "abc": [0.28760037, 0.14131913000000002, 0.66680213],
        "properties": { "magmom": 0.0 },
        "label": "Tm",
        "xyz": [1.7531920935943377, 1.719401501265986, 8.113933699263272]
      },
      {
        "species": [{ "element": "Tm", "occu": 1 }],
        "abc": [0.28760268, 0.35867371000000003, 0.83319236],
        "properties": { "magmom": 0.0 },
        "label": "Tm",
        "xyz": [1.7532342735216313, 4.364160289048244, 10.138683642717375]
      },
      {
        "species": [{ "element": "Tm", "occu": 1 }],
        "abc": [0.78760073, 0.33318699, 0.64132296],
        "properties": { "magmom": 0.0 },
        "label": "Tm",
        "xyz": [4.801052491916621, 4.054107515502784, 7.803964046800904]
      },
      {
        "species": [{ "element": "Tm", "occu": 1 }],
        "abc": [0.21240001, 0.83319601, 0.14132713],
        "properties": { "magmom": 0.0 },
        "label": "Tm",
        "xyz": [1.294790207772464, 10.138442578486206, 1.7199366397908835]
      },
      {
        "species": [{ "element": "Tm", "occu": 1 }],
        "abc": [0.7123996300000001, 0.85868087, 0.33319787],
        "properties": { "magmom": 0.0 },
        "label": "Tm",
        "xyz": [4.342654876405662, 10.448503738734015, 4.054716440736725]
      },
      {
        "species": [{ "element": "Tm", "occu": 1 }],
        "abc": [0.71239732, 0.64132629, 0.16680764],
        "properties": { "magmom": 0.0 },
        "label": "Tm",
        "xyz": [4.342612696478368, 7.803744950951756, 2.0299664972826243]
      },
      {
        "species": [{ "element": "Tm", "occu": 1 }],
        "abc": [0.21239927, 0.66681301, 0.35867704],
        "properties": { "magmom": 0.0 },
        "label": "Tm",
        "xyz": [1.2947944780833793, 8.113797724497218, 4.364686093199095]
      },
      {
        "species": [{ "element": "Sb", "occu": 1 }],
        "abc": [0.040706650000000004, 0.29291627, 0.050545730000000004],
        "properties": { "magmom": -0.0 },
        "label": "Sb",
        "xyz": [0.2481580131398463, 3.5642437681519037, 0.615133518461809]
      },
      {
        "species": [{ "element": "Sb", "occu": 1 }],
        "abc": [0.54071159, 0.94944514, 0.79291076],
        "properties": { "magmom": -0.0 },
        "label": "Sb",
        "xyz": [3.2961426138538856, 11.552793720965468, 9.648681727170509]
      },
      {
        "species": [{ "element": "Sb", "occu": 1 }],
        "abc": [0.54070792, 0.55054893, 0.70708457],
        "properties": { "magmom": -0.0 },
        "label": "Sb",
        "xyz": [3.296087965544268, 6.6989789987879975, 8.604218279439564]
      },
      {
        "species": [{ "element": "Sb", "occu": 1 }],
        "abc": [0.04070078, 0.20709073, 0.44944172],
        "properties": { "magmom": -0.0 },
        "label": "Sb",
        "xyz": [0.24815196034683387, 2.5197810482091967, 5.469020464207857]
      },
      {
        "species": [{ "element": "Sb", "occu": 1 }],
        "abc": [0.95929335, 0.70708373, 0.94945427],
        "properties": { "magmom": -0.0 },
        "label": "Sb",
        "xyz": [5.8476889568601536, 8.603661471848095, 11.553516621538192]
      },
      {
        "species": [{ "element": "Sb", "occu": 1 }],
        "abc": [0.45928841000000004, 0.05055486, 0.20708924],
        "properties": { "magmom": -0.0 },
        "label": "Sb",
        "xyz": [2.7997043561461146, 0.6151115190345322, 2.519968412829493]
      },
      {
        "species": [{ "element": "Sb", "occu": 1 }],
        "abc": [0.45929208, 0.44945107, 0.29291543000000003],
        "properties": { "magmom": -0.0 },
        "label": "Sb",
        "xyz": [2.7997590044557317, 5.468926241212003, 3.564431860560436]
      },
      {
        "species": [{ "element": "Sb", "occu": 1 }],
        "abc": [0.95929922, 0.79290927, 0.5505582800000001],
        "properties": { "magmom": -0.0 },
        "label": "Sb",
        "xyz": [5.847695009653166, 9.648124191790805, 6.699629675792144]
      }
    ]
  },
  "task_ids": null,
  "uncorrected_energy_per_atom": null,
  "energy_per_atom": -33.4248146596875,
  "formation_energy_per_atom": -0.657449509687502,
  "energy_above_hull": 0.010218935312501001,
  "is_stable": false,
  "equilibrium_reaction_energy_per_atom": null,
  "decomposes_to": null,
  "xas": null,
  "grain_boundaries": null,
  "band_gap": 0.0,
  "cbm": null,
  "vbm": null,
  "efermi": 4.40027009,
  "is_gap_direct": null,
  "is_metal": null,
  "es_source_calc_id": null,
  "bandstructure": null,
  "dos": null,
  "dos_energy_up": null,
  "dos_energy_down": null,
  "is_magnetic": null,
  "ordering": null,
  "total_magnetization": 0.0103404,
  "total_magnetization_normalized_vol": null,
  "total_magnetization_normalized_formula_units": null,
  "num_magnetic_sites": null,
  "num_unique_magnetic_sites": null,
  "types_of_magnetic_species": null,
  "bulk_modulus": null,
  "shear_modulus": null,
  "universal_anisotropy": null,
  "homogeneous_poisson": null,
  "e_total": null,
  "e_ionic": null,
  "e_electronic": null,
  "n": null,
  "e_ij_max": null,
  "weighted_surface_energy_EV_PER_ANG2": null,
  "weighted_surface_energy": null,
  "weighted_work_function": null,
  "surface_anisotropy": null,
  "shape_factor": null,
  "has_reconstructed": null,
  "possible_species": null,
  "has_props": null,
  "theoretical": null,
  "database_IDs": null,
  "fields_not_requested": [
    "builder_meta",
    "nsites",
    "elements",
    "nelements",
    "composition",
    "composition_reduced",
    "chemsys",
    "symmetry",
    "property_name",
    "deprecated",
    "deprecation_reasons",
    "last_updated",
    "origins",
    "warnings",
    "task_ids",
    "uncorrected_energy_per_atom",
    "equilibrium_reaction_energy_per_atom",
    "decomposes_to",
    "xas",
    "grain_boundaries",
    "cbm",
    "vbm",
    "is_gap_direct",
    "is_metal",
    "es_source_calc_id",
    "bandstructure",
    "dos",
    "dos_energy_up",
    "dos_energy_down",
    "is_magnetic",
    "ordering",
    "total_magnetization_normalized_vol",
    "total_magnetization_normalized_formula_units",
    "num_magnetic_sites",
    "num_unique_magnetic_sites",
    "types_of_magnetic_species",
    "bulk_modulus",
    "shear_modulus",
    "universal_anisotropy",
    "homogeneous_poisson",
    "e_total",
    "e_ionic",
    "e_electronic",
    "n",
    "e_ij_max",
    "weighted_surface_energy_EV_PER_ANG2",
    "weighted_surface_energy",
    "weighted_work_function",
    "surface_anisotropy",
    "shape_factor",
    "has_reconstructed",
    "possible_species",
    "has_props",
    "theoretical",
    "database_IDs"
  ]
}
