{"builder_meta": null, "nsites": null, "elements": null, "nelements": null, "composition": null, "composition_reduced": null, "formula_pretty": "Tm3Sc", "formula_anonymous": "AB3", "chemsys": null, "volume": 230.7752342188006, "density": 7.9403374233179775, "density_atomic": 28.846904277350074, "symmetry": null, "property_name": null, "material_id": "mp-1187674", "deprecated": null, "deprecation_reasons": null, "last_updated": null, "origins": null, "warnings": null, "structure": {"@module": "pymatgen.core.structure", "@class": "Structure", "charge": 0, "lattice": {"matrix": [[3.5043335, -6.06968381, -0.0], [3.50433242, 6.06968276, -0.0], [-0.0, 0.0, 5.42485096]], "pbc": [true, true, true], "a": 7.00866712239912, "b": 7.008665673072462, "c": 5.42485096, "alpha": 90.0, "beta": 90.0, "gamma": 120.00000450966641, "volume": 230.7752342188006}, "properties": {}, "sites": [{"species": [{"element": "Tm", "occu": 1}], "abc": [0.16854877000000001, 0.83145123, 0.25], "properties": {"magmom": -0.0}, "label": "Tm", "xyz": [3.5043326020326715, 4.023607456047381, 1.35621274]}, {"species": [{"element": "Tm", "occu": 1}], "abc": [0.66290146, 0.83145123, 0.25], "properties": {"magmom": -0.0}, "label": "Tm", "xyz": [5.236709294414787, 1.0230429371244325, 1.35621274]}, {"species": [{"element": "Tm", "occu": 1}], "abc": [0.16854877000000001, 0.33709854, 0.25], "properties": {"magmom": -0.0}, "label": "Tm", "xyz": [1.7719564435514619, 1.0230434561947566, 1.35621274]}, {"species": [{"element": "Tm", "occu": 1}], "abc": [0.83145123, 0.16854877000000001, 0.75], "properties": {"magmom": -0.0}, "label": "Tm", "xyz": [3.5043333179673284, -4.023608506047381, 4.0686382199999995]}, {"species": [{"element": "Tm", "occu": 1}], "abc": [0.33709854, 0.16854877000000001, 0.75], "properties": {"magmom": -0.0}, "label": "Tm", "xyz": [1.7719566255852135, -1.023043987124432, 4.0686382199999995]}, {"species": [{"element": "Tm", "occu": 1}], "abc": [0.83145123, 0.66290146, 0.75], "properties": {"magmom": -0.0}, "label": "Tm", "xyz": [5.236709476448539, -1.023044506194756, 4.0686382199999995]}, {"species": [{"element": "Sc", "occu": 1}], "abc": [0.333333, 0.666667, 0.75], "properties": {"magmom": -0.0}, "label": "Sc", "xyz": [3.5043327799996398, 2.0232312831221897, 4.0686382199999995]}, {"species": [{"element": "Sc", "occu": 1}], "abc": [0.666667, 0.333333, 0.25], "properties": {"magmom": -0.0}, "label": "Sc", "xyz": [3.50433314000036, -2.02323233312219, 1.35621274]}]}, "task_ids": null, "uncorrected_energy_per_atom": null, "energy_per_atom": -29.16841421375, "formation_energy_per_atom": 0.021993842499995003, "energy_above_hull": 0.021993842499995003, "is_stable": false, "equilibrium_reaction_energy_per_atom": null, "decomposes_to": null, "xas": null, "grain_boundaries": null, "band_gap": 0.0, "cbm": null, "vbm": null, "efermi": 3.125664109999999, "is_gap_direct": null, "is_metal": null, "es_source_calc_id": null, "bandstructure": null, "dos": null, "dos_energy_up": null, "dos_energy_down": null, "is_magnetic": null, "ordering": null, "total_magnetization": 0.002595799999999, "total_magnetization_normalized_vol": null, "total_magnetization_normalized_formula_units": null, "num_magnetic_sites": null, "num_unique_magnetic_sites": null, "types_of_magnetic_species": null, "bulk_modulus": null, "shear_modulus": null, "universal_anisotropy": null, "homogeneous_poisson": null, "e_total": null, "e_ionic": null, "e_electronic": null, "n": null, "e_ij_max": null, "weighted_surface_energy_EV_PER_ANG2": null, "weighted_surface_energy": null, "weighted_work_function": null, "surface_anisotropy": null, "shape_factor": null, "has_reconstructed": null, "possible_species": null, "has_props": null, "theoretical": null, "database_IDs": null, "fields_not_requested": ["builder_meta", "nsites", "elements", "nelements", "composition", "composition_reduced", "chemsys", "symmetry", "property_name", "deprecated", "deprecation_reasons", "last_updated", "origins", "warnings", "task_ids", "uncorrected_energy_per_atom", "equilibrium_reaction_energy_per_atom", "decomposes_to", "xas", "grain_boundaries", "cbm", "vbm", "is_gap_direct", "is_metal", "es_source_calc_id", "bandstructure", "dos", "dos_energy_up", "dos_energy_down", "is_magnetic", "ordering", "total_magnetization_normalized_vol", "total_magnetization_normalized_formula_units", "num_magnetic_sites", "num_unique_magnetic_sites", "types_of_magnetic_species", "bulk_modulus", "shear_modulus", "universal_anisotropy", "homogeneous_poisson", "e_total", "e_ionic", "e_electronic", "n", "e_ij_max", "weighted_surface_energy_EV_PER_ANG2", "weighted_surface_energy", "weighted_work_function", "surface_anisotropy", "shape_factor", "has_reconstructed", "possible_species", "has_props", "theoretical", "database_IDs"]}