{"builder_meta": null, "nsites": null, "elements": null, "nelements": null, "composition": null, "composition_reduced": null, "formula_pretty": "Tm3Si", "formula_anonymous": "AB3", "chemsys": null, "volume": 189.92507868342668, "density": 9.353189608057024, "density_atomic": 23.740634835428335, "symmetry": null, "property_name": null, "material_id": "mp-979933", "deprecated": null, "deprecation_reasons": null, "last_updated": null, "origins": null, "warnings": null, "structure": {"@module": "pymatgen.core.structure", "@class": "Structure", "charge": 0, "lattice": {"matrix": [[3.259091, -5.6449110000000005, 0.0], [3.259091, 5.6449110000000005, 0.0], [0.0, 0.0, 5.161771]], "pbc": [true, true, true], "a": 6.518181828102221, "b": 6.518181828102221, "c": 5.161771, "alpha": 90.0, "beta": 90.0, "gamma": 119.9999982552396, "volume": 189.9250786834267}, "properties": {}, "sites": [{"species": [{"element": "Tm", "occu": 1}], "abc": [0.17444199999999901, 0.348885, 0.25], "properties": {"magmom": 0.001}, "label": "Tm", "xyz": [1.705570315756997, 0.9847152095730056, 1.29044275]}, {"species": [{"element": "Tm", "occu": 1}], "abc": [0.651115, 0.825558, 0.25], "properties": {"magmom": 0.001}, "label": "Tm", "xyz": [4.8126116842430005, 0.9847152095729998, 1.29044275]}, {"species": [{"element": "Tm", "occu": 1}], "abc": [0.17444199999999901, 0.825558, 0.25], "properties": {"magmom": 0.002}, "label": "Tm", "xyz": [3.259090999999997, 3.6754918706760056, 1.29044275]}, {"species": [{"element": "Tm", "occu": 1}], "abc": [0.825558, 0.651115, 0.75], "properties": {"magmom": 0.001}, "label": "Tm", "xyz": [4.8126116842430005, -0.9847152095729998, 3.87132825]}, {"species": [{"element": "Tm", "occu": 1}], "abc": [0.348885, 0.17444199999999901, 0.75], "properties": {"magmom": 0.001}, "label": "Tm", "xyz": [1.705570315756997, -0.9847152095730056, 3.87132825]}, {"species": [{"element": "Tm", "occu": 1}], "abc": [0.825558, 0.17444199999999901, 0.75], "properties": {"magmom": 0.002}, "label": "Tm", "xyz": [3.259090999999997, -3.6754918706760056, 3.87132825]}, {"species": [{"element": "Si", "occu": 1}], "abc": [0.333333, 0.666667, 0.75], "properties": {"magmom": -0.0}, "label": "Si", "xyz": [3.2590909999999997, 1.8816407632740004, 3.87132825]}, {"species": [{"element": "Si", "occu": 1}], "abc": [0.666667, 0.333333, 0.25], "properties": {"magmom": -0.0}, "label": "Si", "xyz": [3.2590909999999997, -1.8816407632740004, 1.29044275]}]}, "task_ids": null, "uncorrected_energy_per_atom": null, "energy_per_atom": -28.829842793055555, "formation_energy_per_atom": -0.295615426805557, "energy_above_hull": 0.23060276277777803, "is_stable": false, "equilibrium_reaction_energy_per_atom": null, "decomposes_to": null, "xas": null, "grain_boundaries": null, "band_gap": 0.0, "cbm": null, "vbm": null, "efermi": 4.43913391, "is_gap_direct": null, "is_metal": null, "es_source_calc_id": null, "bandstructure": null, "dos": null, "dos_energy_up": null, "dos_energy_down": null, "is_magnetic": null, "ordering": null, "total_magnetization": 0.0119898, "total_magnetization_normalized_vol": null, "total_magnetization_normalized_formula_units": null, "num_magnetic_sites": null, "num_unique_magnetic_sites": null, "types_of_magnetic_species": null, "bulk_modulus": null, "shear_modulus": null, "universal_anisotropy": null, "homogeneous_poisson": null, "e_total": null, "e_ionic": null, "e_electronic": null, "n": null, "e_ij_max": null, "weighted_surface_energy_EV_PER_ANG2": null, "weighted_surface_energy": null, "weighted_work_function": null, "surface_anisotropy": null, "shape_factor": null, "has_reconstructed": null, "possible_species": null, "has_props": null, "theoretical": null, "database_IDs": null, "fields_not_requested": ["builder_meta", "nsites", "elements", "nelements", "composition", "composition_reduced", "chemsys", "symmetry", "property_name", "deprecated", "deprecation_reasons", "last_updated", "origins", "warnings", "task_ids", "uncorrected_energy_per_atom", "equilibrium_reaction_energy_per_atom", "decomposes_to", "xas", "grain_boundaries", "cbm", "vbm", "is_gap_direct", "is_metal", "es_source_calc_id", "bandstructure", "dos", "dos_energy_up", "dos_energy_down", "is_magnetic", "ordering", "total_magnetization_normalized_vol", "total_magnetization_normalized_formula_units", "num_magnetic_sites", "num_unique_magnetic_sites", "types_of_magnetic_species", "bulk_modulus", "shear_modulus", "universal_anisotropy", "homogeneous_poisson", "e_total", "e_ionic", "e_electronic", "n", "e_ij_max", "weighted_surface_energy_EV_PER_ANG2", "weighted_surface_energy", "weighted_work_function", "surface_anisotropy", "shape_factor", "has_reconstructed", "possible_species", "has_props", "theoretical", "database_IDs"]}