{
  "builder_meta": null,
  "nsites": null,
  "elements": null,
  "nelements": null,
  "composition": null,
  "composition_reduced": null,
  "formula_pretty": "Tm3Tl",
  "formula_anonymous": "AB3",
  "chemsys": null,
  "volume": 217.9537720688159,
  "density": 10.836720183107301,
  "density_atomic": 27.24422150860199,
  "symmetry": null,
  "property_name": null,
  "material_id": "mp-1187672",
  "deprecated": null,
  "deprecation_reasons": null,
  "last_updated": null,
  "origins": null,
  "warnings": null,
  "structure": {
    "@module": "pymatgen.core.structure",
    "@class": "Structure",
    "charge": 0,
    "lattice": {
      "matrix": [
        [3.36561536, -5.82941077, 0.0],
        [3.36561538, 5.8294118, -0.0],
        [-0.0, 0.0, 5.55450311]
      ],
      "pbc": [true, true, true],
      "a": 6.731225495915281,
      "b": 6.731226397921242,
      "c": 5.55450311,
      "alpha": 90.0,
      "beta": 90.0,
      "gamma": 119.9999528900415,
      "volume": 217.9537720688159
    },
    "properties": {},
    "sites": [
      {
        "species": [{ "element": "Tm", "occu": 1 }],
        "abc": [0.1694514, 0.3389028, 0.25],
        "properties": { "magmom": 0.517 },
        "label": "Tm",
        "xyz": [1.7109247106185679, 0.9878021652214619, 1.3886257775]
      },
      {
        "species": [{ "element": "Tm", "occu": 1 }],
        "abc": [0.661097199999999, 0.8305486, 0.25],
        "properties": { "magmom": 0.517 },
        "label": "Tm",
        "xyz": [5.020306032770456, 0.9878026716166408, 1.3886257775]
      },
      {
        "species": [{ "element": "Tm", "occu": 1 }],
        "abc": [0.1694504, 0.8305486, 0.25],
        "properties": { "magmom": 0.517 },
        "label": "Tm",
        "xyz": [3.365612010995612, 3.8538138225726715, 1.3886257775]
      },
      {
        "species": [{ "element": "Tm", "occu": 1 }],
        "abc": [0.8305486, 0.661097199999999, 0.75],
        "properties": { "magmom": 0.517 },
        "label": "Tm",
        "xyz": [5.020306029381429, -0.9878011352214671, 4.1658773325]
      },
      {
        "species": [{ "element": "Tm", "occu": 1 }],
        "abc": [0.3389028, 0.1694514, 0.75],
        "properties": { "magmom": 0.517 },
        "label": "Tm",
        "xyz": [1.71092470722954, -0.9878016416166361, 4.1658773325]
      },
      {
        "species": [{ "element": "Tm", "occu": 1 }],
        "abc": [0.8305496, 0.1694514, 0.75],
        "properties": { "magmom": 0.517 },
        "label": "Tm",
        "xyz": [3.365618729004388, -3.8538127925726715, 4.1658773325]
      },
      {
        "species": [{ "element": "Tl", "occu": 1 }],
        "abc": [0.333333, 0.666667, 0.75],
        "properties": { "magmom": -0.037 },
        "label": "Tl",
        "xyz": [3.36561537333334, 1.94314149627419, 4.1658773325]
      },
      {
        "species": [{ "element": "Tl", "occu": 1 }],
        "abc": [0.666667, 0.333333, 0.25],
        "properties": { "magmom": -0.037 },
        "label": "Tl",
        "xyz": [3.3656153666666597, -1.94314046627419, 1.3886257775]
      }
    ]
  },
  "task_ids": null,
  "uncorrected_energy_per_atom": null,
  "energy_per_atom": -39.86618321125,
  "formation_energy_per_atom": -0.23057084874999803,
  "energy_above_hull": 0.05095193958333501,
  "is_stable": false,
  "equilibrium_reaction_energy_per_atom": null,
  "decomposes_to": null,
  "xas": null,
  "grain_boundaries": null,
  "band_gap": 0.0,
  "cbm": null,
  "vbm": null,
  "efermi": 4.27510861,
  "is_gap_direct": null,
  "is_metal": null,
  "es_source_calc_id": null,
  "bandstructure": null,
  "dos": null,
  "dos_energy_up": null,
  "dos_energy_down": null,
  "is_magnetic": null,
  "ordering": null,
  "total_magnetization": 3.3639431,
  "total_magnetization_normalized_vol": null,
  "total_magnetization_normalized_formula_units": null,
  "num_magnetic_sites": null,
  "num_unique_magnetic_sites": null,
  "types_of_magnetic_species": null,
  "bulk_modulus": null,
  "shear_modulus": null,
  "universal_anisotropy": null,
  "homogeneous_poisson": null,
  "e_total": null,
  "e_ionic": null,
  "e_electronic": null,
  "n": null,
  "e_ij_max": null,
  "weighted_surface_energy_EV_PER_ANG2": null,
  "weighted_surface_energy": null,
  "weighted_work_function": null,
  "surface_anisotropy": null,
  "shape_factor": null,
  "has_reconstructed": null,
  "possible_species": null,
  "has_props": null,
  "theoretical": null,
  "database_IDs": null,
  "fields_not_requested": [
    "builder_meta",
    "nsites",
    "elements",
    "nelements",
    "composition",
    "composition_reduced",
    "chemsys",
    "symmetry",
    "property_name",
    "deprecated",
    "deprecation_reasons",
    "last_updated",
    "origins",
    "warnings",
    "task_ids",
    "uncorrected_energy_per_atom",
    "equilibrium_reaction_energy_per_atom",
    "decomposes_to",
    "xas",
    "grain_boundaries",
    "cbm",
    "vbm",
    "is_gap_direct",
    "is_metal",
    "es_source_calc_id",
    "bandstructure",
    "dos",
    "dos_energy_up",
    "dos_energy_down",
    "is_magnetic",
    "ordering",
    "total_magnetization_normalized_vol",
    "total_magnetization_normalized_formula_units",
    "num_magnetic_sites",
    "num_unique_magnetic_sites",
    "types_of_magnetic_species",
    "bulk_modulus",
    "shear_modulus",
    "universal_anisotropy",
    "homogeneous_poisson",
    "e_total",
    "e_ionic",
    "e_electronic",
    "n",
    "e_ij_max",
    "weighted_surface_energy_EV_PER_ANG2",
    "weighted_surface_energy",
    "weighted_work_function",
    "surface_anisotropy",
    "shape_factor",
    "has_reconstructed",
    "possible_species",
    "has_props",
    "theoretical",
    "database_IDs"
  ]
}
