{"builder_meta": null, "nsites": null, "elements": null, "nelements": null, "composition": null, "composition_reduced": null, "formula_pretty": "Tm4Al", "formula_anonymous": "AB4", "chemsys": null, "volume": 334.0907221671716, "density": 6.98547575888218, "density_atomic": 33.409072216717156, "symmetry": null, "property_name": null, "material_id": "mp-1208015", "deprecated": null, "deprecation_reasons": null, "last_updated": null, "origins": null, "warnings": null, "structure": {"@module": "pymatgen.core.structure", "@class": "Structure", "charge": 0, "lattice": {"matrix": [[-5.507377, -5.507377, 0.0], [-5.507377, 0.0, -5.507377], [0.0, -5.507377, -5.507377]], "pbc": [true, true, true], "a": 7.788607246501649, "b": 7.788607246501649, "c": 7.788607246501649, "alpha": 60.00000000000001, "beta": 60.00000000000001, "gamma": 60.00000000000001, "volume": 334.0907221671716}, "properties": {}, "sites": [{"species": [{"element": "Tm", "occu": 1}], "abc": [0.605866, 0.605866, 0.605866], "properties": {"magmom": 0.085}, "label": "Tm", "xyz": [-6.673464946964, -6.673464946964, -6.673464946964]}, {"species": [{"element": "Tm", "occu": 1}], "abc": [0.182401999999999, 0.605866, 0.605866], "properties": {"magmom": 0.085}, "label": "Tm", "xyz": [-4.341289053035995, -4.341289053035995, -6.673464946964]}, {"species": [{"element": "Tm", "occu": 1}], "abc": [0.605866, 0.182401999999999, 0.605866], "properties": {"magmom": 0.085}, "label": "Tm", "xyz": [-4.341289053035995, -6.673464946964, -4.341289053035995]}, {"species": [{"element": "Tm", "occu": 1}], "abc": [0.567597999999999, 0.144133999999999, 0.144133999999999], "properties": {"magmom": 0.085}, "label": "Tm", "xyz": [-3.919776446963989, -3.919776446963989, -1.5876005530359891]}, {"species": [{"element": "Tm", "occu": 1}], "abc": [0.144133999999999, 0.144133999999999, 0.144133999999999], "properties": {"magmom": 0.085}, "label": "Tm", "xyz": [-1.5876005530359891, -1.5876005530359891, -1.5876005530359891]}, {"species": [{"element": "Tm", "occu": 1}], "abc": [0.605866, 0.605866, 0.182401999999999], "properties": {"magmom": 0.085}, "label": "Tm", "xyz": [-6.673464946964, -4.341289053035995, -4.341289053035995]}, {"species": [{"element": "Tm", "occu": 1}], "abc": [0.144133999999999, 0.567597999999999, 0.144133999999999], "properties": {"magmom": 0.085}, "label": "Tm", "xyz": [-3.919776446963989, -1.5876005530359891, -3.919776446963989]}, {"species": [{"element": "Tm", "occu": 1}], "abc": [0.144133999999999, 0.144133999999999, 0.567597999999999], "properties": {"magmom": 0.085}, "label": "Tm", "xyz": [-1.5876005530359891, -3.919776446963989, -3.919776446963989]}, {"species": [{"element": "Al", "occu": 1}], "abc": [0.0, 0.0, 0.0], "properties": {"magmom": 0.007}, "label": "Al", "xyz": [0.0, 0.0, 0.0]}, {"species": [{"element": "Al", "occu": 1}], "abc": [0.75, 0.75, 0.75], "properties": {"magmom": 0.007}, "label": "Al", "xyz": [-8.2610655, -8.2610655, -8.2610655]}]}, "task_ids": null, "uncorrected_energy_per_atom": null, "energy_per_atom": -28.945500250333332, "formation_energy_per_atom": 0.49775804766666704, "energy_above_hull": 0.6886591351666661, "is_stable": false, "equilibrium_reaction_energy_per_atom": null, "decomposes_to": null, "xas": null, "grain_boundaries": null, "band_gap": 0.0, "cbm": null, "vbm": null, "efermi": 2.18437801, "is_gap_direct": null, "is_metal": null, "es_source_calc_id": null, "bandstructure": null, "dos": null, "dos_energy_up": null, "dos_energy_down": null, "is_magnetic": null, "ordering": null, "total_magnetization": 1.0316217, "total_magnetization_normalized_vol": null, "total_magnetization_normalized_formula_units": null, "num_magnetic_sites": null, "num_unique_magnetic_sites": null, "types_of_magnetic_species": null, "bulk_modulus": null, "shear_modulus": null, "universal_anisotropy": null, "homogeneous_poisson": null, "e_total": null, "e_ionic": null, "e_electronic": null, "n": null, "e_ij_max": null, "weighted_surface_energy_EV_PER_ANG2": null, "weighted_surface_energy": null, "weighted_work_function": null, "surface_anisotropy": null, "shape_factor": null, "has_reconstructed": null, "possible_species": null, "has_props": null, "theoretical": null, "database_IDs": null, "fields_not_requested": ["builder_meta", "nsites", "elements", "nelements", "composition", "composition_reduced", "chemsys", "symmetry", "property_name", "deprecated", "deprecation_reasons", "last_updated", "origins", "warnings", "task_ids", "uncorrected_energy_per_atom", "equilibrium_reaction_energy_per_atom", "decomposes_to", "xas", "grain_boundaries", "cbm", "vbm", "is_gap_direct", "is_metal", "es_source_calc_id", "bandstructure", "dos", "dos_energy_up", "dos_energy_down", "is_magnetic", "ordering", "total_magnetization_normalized_vol", "total_magnetization_normalized_formula_units", "num_magnetic_sites", "num_unique_magnetic_sites", "types_of_magnetic_species", "bulk_modulus", "shear_modulus", "universal_anisotropy", "homogeneous_poisson", "e_total", "e_ionic", "e_electronic", "n", "e_ij_max", "weighted_surface_energy_EV_PER_ANG2", "weighted_surface_energy", "weighted_work_function", "surface_anisotropy", "shape_factor", "has_reconstructed", "possible_species", "has_props", "theoretical", "database_IDs"]}