{"builder_meta": null, "nsites": null, "elements": null, "nelements": null, "composition": null, "composition_reduced": null, "formula_pretty": "Tm4Co3", "formula_anonymous": "A3B4", "chemsys": null, "volume": 420.8419522152245, "density": 10.091698548304473, "density_atomic": 20.04009296262974, "symmetry": null, "property_name": null, "material_id": "mp-1217007", "deprecated": null, "deprecation_reasons": null, "last_updated": null, "origins": null, "warnings": null, "structure": {"@module": "pymatgen.core.structure", "@class": "Structure", "charge": 0, "lattice": {"matrix": [[1.0700000000000001e-05, 1.143e-05, -4.01083097], [-11.00771447, 0.00036539, 4.893e-05], [-5.50396447, 9.53225902, -1.009e-05]], "pbc": [true, true, true], "a": 4.010830970030558, "b": 11.007714476173126, "c": 11.007160710714437, "alpha": 59.99578934457588, "beta": 89.99988250800092, "gamma": 90.00040753033655, "volume": 420.8419522152245}, "properties": {}, "sites": [{"species": [{"element": "Tm", "occu": 1}], "abc": [0.7493404300000001, 0.61990543, 0.8662434999999991], "properties": {"magmom": -0.269}, "label": "Tm", "xyz": [-11.591507400268409, 8.257492488597544, -3.0054562121413424]}, {"species": [{"element": "Tm", "occu": 1}], "abc": [0.74933522, 0.5139117400000001, 0.61990462], "properties": {"magmom": -0.269}, "label": "Tm", "xyz": [-9.068918682082876, 5.909287748646916, -3.0054380164239407]}, {"species": [{"element": "Tm", "occu": 1}], "abc": [0.74931773, 0.86628328, 0.51381755], "properties": {"magmom": -0.27}, "label": "Tm", "xyz": [-12.363824517937797, 4.898167071571134, -3.0053495550322866]}, {"species": [{"element": "Tm", "occu": 1}], "abc": [0.25065957, 0.38009457, 0.1337565], "properties": {"magmom": -0.269}, "label": "Tm", "xyz": [-4.920160839731584, 1.2751433514024475, -1.0053359178586576]}, {"species": [{"element": "Tm", "occu": 1}], "abc": [0.25066478000000003, 0.48608826, 0.38009538], "properties": {"magmom": -0.269}, "label": "Tm", "xyz": [-7.442749557917125, 3.623348091353084, -1.005354113576059]}, {"species": [{"element": "Tm", "occu": 1}], "abc": [0.25068227, 0.13371672, 0.48618245], "properties": {"magmom": -0.27}, "label": "Tm", "xyz": [-4.1478437220622, 4.6344687684288655, -1.0054425749677127]}, {"species": [{"element": "Tm", "occu": 1}], "abc": [0.75010834, 0.77731435, 0.24811065000000002], "properties": {"magmom": -0.15}, "label": "Tm", "xyz": [-9.922038594303013, 2.365347578049236, -3.008522230372603]}, {"species": [{"element": "Tm", "occu": 1}], "abc": [0.75013964, 0.9746050900000001, 0.77729112], "properties": {"magmom": -0.15}, "label": "Tm", "xyz": [-15.00634923256101, 7.409704974835822, -3.0086434553769976]}, {"species": [{"element": "Tm", "occu": 1}], "abc": [0.75008091, 0.24817232, 0.9745805999999991], "properties": {"magmom": -0.149}, "label": "Tm", "xyz": [-8.09585900760301, 9.290053968175808, -3.0084454342804188]}, {"species": [{"element": "Tm", "occu": 1}], "abc": [0.24989166000000002, 0.22268565, 0.75188935], "properties": {"magmom": -0.15}, "label": "Tm", "xyz": [-6.589629645696988, 7.167288261950763, -1.0022698996273973]}, {"species": [{"element": "Tm", "occu": 1}], "abc": [0.24986036, 0.02539491, 0.22270888], "properties": {"magmom": -0.15}, "label": "Tm", "xyz": [-1.505319007438989, 2.1229308651641774, -1.002148674623002]}, {"species": [{"element": "Tm", "occu": 1}], "abc": [0.24991909, 0.75182768, 0.025419399999999003], "properties": {"magmom": -0.149}, "label": "Tm", "xyz": [-8.415809232396978, 0.24258187182417237, -1.002346695719581]}, {"species": [{"element": "Co", "occu": 1}], "abc": [0.75042686, 0.33327439000000003, 0.33338757], "properties": {"magmom": 0.846}, "label": "Co", "xyz": [-5.50353463573566, 3.1780670237967534, -3.0098223475725328]}, {"species": [{"element": "Co", "occu": 1}], "abc": [0.24957314, 0.66672561, 0.66661243], "properties": {"magmom": 0.846}, "label": "Co", "xyz": [-11.00813360426434, 6.354568816203247, -1.0009697824274673]}, {"species": [{"element": "Co", "occu": 1}], "abc": [0.74864726, 0.28367938, 0.55959079], "properties": {"magmom": 0.5}, "label": "Co", "xyz": [-6.2026214314401775, 5.334276566133266, -3.00268938185265]}, {"species": [{"element": "Co", "occu": 1}], "abc": [0.74859794, 0.15666538, 0.28376322], "properties": {"magmom": 0.499}, "label": "Co", "xyz": [-3.286342441148884, 2.7049703138268963, -3.002494999364048]}, {"species": [{"element": "Co", "occu": 1}], "abc": [0.74858272, 0.5595183, 0.15668721], "properties": {"magmom": 0.499}, "label": "Co", "xyz": [-7.021410514048126, 1.4937960695332608, -3.0024129607263683]}, {"species": [{"element": "Co", "occu": 1}], "abc": [0.25135274, 0.71632062, 0.44040921], "properties": {"magmom": 0.5}, "label": "Co", "xyz": [-10.309046808559822, 4.198359273866735, -1.00810274814735]}, {"species": [{"element": "Co", "occu": 1}], "abc": [0.25140206, 0.84333462, 0.71623678], "properties": {"magmom": 0.499}, "label": "Co", "xyz": [-13.225325798851117, 6.827665526173103, -1.0082971306359518]}, {"species": [{"element": "Co", "occu": 1}], "abc": [0.25141728, 0.4404817, 0.84331279], "properties": {"magmom": 0.499}, "label": "Co", "xyz": [-9.490257725951874, 8.03883977046674, -1.0083791692736317]}, {"species": [{"element": "Co", "occu": 1}], "abc": [0.5, 0.0, -0.0], "properties": {"magmom": -1.1360000000000001}, "label": "Co", "xyz": [5.3500000000000004e-06, 5.715e-06, -2.005415485]}]}, "task_ids": null, "uncorrected_energy_per_atom": null, "energy_per_atom": -5.829968264285715, "formation_energy_per_atom": -0.21136025285714802, "energy_above_hull": 0.0, "is_stable": true, "equilibrium_reaction_energy_per_atom": null, "decomposes_to": null, "xas": null, "grain_boundaries": null, "band_gap": 0.0, "cbm": null, "vbm": null, "efermi": 3.64881452, "is_gap_direct": null, "is_metal": null, "es_source_calc_id": null, "bandstructure": null, "dos": null, "dos_energy_up": null, "dos_energy_down": null, "is_magnetic": null, "ordering": null, "total_magnetization": 0.623232799999999, "total_magnetization_normalized_vol": null, "total_magnetization_normalized_formula_units": null, "num_magnetic_sites": null, "num_unique_magnetic_sites": null, "types_of_magnetic_species": null, "bulk_modulus": null, "shear_modulus": null, "universal_anisotropy": null, "homogeneous_poisson": null, "e_total": null, "e_ionic": null, "e_electronic": null, "n": null, "e_ij_max": null, "weighted_surface_energy_EV_PER_ANG2": null, "weighted_surface_energy": null, "weighted_work_function": null, "surface_anisotropy": null, "shape_factor": null, "has_reconstructed": null, "possible_species": null, "has_props": null, "theoretical": null, "database_IDs": null, "fields_not_requested": ["builder_meta", "nsites", "elements", "nelements", "composition", "composition_reduced", "chemsys", "symmetry", "property_name", "deprecated", "deprecation_reasons", "last_updated", "origins", "warnings", "task_ids", "uncorrected_energy_per_atom", "equilibrium_reaction_energy_per_atom", "decomposes_to", "xas", "grain_boundaries", "cbm", "vbm", "is_gap_direct", "is_metal", "es_source_calc_id", "bandstructure", "dos", "dos_energy_up", "dos_energy_down", "is_magnetic", "ordering", "total_magnetization_normalized_vol", "total_magnetization_normalized_formula_units", "num_magnetic_sites", "num_unique_magnetic_sites", "types_of_magnetic_species", "bulk_modulus", "shear_modulus", "universal_anisotropy", "homogeneous_poisson", "e_total", "e_ionic", "e_electronic", "n", "e_ij_max", "weighted_surface_energy_EV_PER_ANG2", "weighted_surface_energy", "weighted_work_function", "surface_anisotropy", "shape_factor", "has_reconstructed", "possible_species", "has_props", "theoretical", "database_IDs"]}