{
  "builder_meta": null,
  "nsites": null,
  "elements": null,
  "nelements": null,
  "composition": null,
  "composition_reduced": null,
  "formula_pretty": "Tm4C7",
  "formula_anonymous": "A4B7",
  "chemsys": null,
  "volume": 299.9966149893358,
  "density": 8.411408759236647,
  "density_atomic": 13.636209772242536,
  "symmetry": null,
  "property_name": null,
  "material_id": "mp-1207978",
  "deprecated": null,
  "deprecation_reasons": null,
  "last_updated": null,
  "origins": null,
  "warnings": null,
  "structure": {
    "@module": "pymatgen.core.structure",
    "@class": "Structure",
    "charge": 0,
    "lattice": {
      "matrix": [
        [-3.50728417, 0.0, 0.92088429],
        [0.03645477, 0.0, -6.32857939],
        [0.0, -13.53619227, 0.0]
      ],
      "pbc": [true, true, true],
      "a": 3.6261646576929447,
      "b": 6.328684385066814,
      "c": 13.53619227,
      "alpha": 90.0,
      "beta": 90.0,
      "gamma": 105.04173921493337,
      "volume": 299.9966149893358
    },
    "properties": {},
    "sites": [
      {
        "species": [{ "element": "Tm", "occu": 1 }],
        "abc": [0.94351862, 0.83899626, 0.8388037500000001],
        "properties": { "magmom": 0.0 },
        "label": "Tm",
        "xyz": [-3.278602504337085, -11.354208836797014, -4.440782964842601]
      },
      {
        "species": [{ "element": "Tm", "occu": 1 }],
        "abc": [0.056481380000000005, 0.16100374, 0.16119625],
        "properties": { "magmom": 0.0 },
        "label": "Tm",
        "xyz": [-0.19222689566291484, -2.181983433202988, -0.9669121351573985]
      },
      {
        "species": [{ "element": "Tm", "occu": 1 }],
        "abc": [0.056481380000000005, 0.6610037400000001, 0.33880375],
        "properties": { "magmom": 0.0 },
        "label": "Tm",
        "xyz": [-0.17399951066291483, -4.586112701797013, -4.131201830157399]
      },
      {
        "species": [{ "element": "Tm", "occu": 1 }],
        "abc": [0.94351862, 0.33899626, 0.66119625],
        "properties": { "magmom": 0.0 },
        "label": "Tm",
        "xyz": [-3.296829889337085, -8.95007956820299, -1.2764932698426015]
      },
      {
        "species": [{ "element": "Tm", "occu": 1 }],
        "abc": [0.63346674, 0.75969009, 0.55480205],
        "properties": { "magmom": -0.0 },
        "label": "Tm",
        "xyz": [-2.1940535419212766, -7.509907220590154, -4.22440947725773]
      },
      {
        "species": [{ "element": "Tm", "occu": 1 }],
        "abc": [0.36653326, 0.24030991000000002, 0.44519795],
        "properties": { "magmom": -0.0 },
        "label": "Tm",
        "xyz": [-1.2767758580787236, -6.0262850494098466, -1.1832856227422694]
      },
      {
        "species": [{ "element": "Tm", "occu": 1 }],
        "abc": [0.36653326, 0.74030991, 0.05480205],
        "properties": { "magmom": -0.0 },
        "label": "Tm",
        "xyz": [-1.2585484730787238, -0.7418110855901535, -4.34757531774227]
      },
      {
        "species": [{ "element": "Tm", "occu": 1 }],
        "abc": [0.63346674, 0.25969009, 0.9451979500000001],
        "properties": { "magmom": -0.0 },
        "label": "Tm",
        "xyz": [-2.2122809269212764, -12.794381184409849, -1.0601197822577304]
      },
      {
        "species": [{ "element": "C", "occu": 1 }],
        "abc": [0.73267433, 0.95029303, 0.3962263],
        "properties": { "magmom": -0.0 },
        "label": "C",
        "xyz": [-2.5350543655331035, -5.363395379230701, -5.3392966039353755]
      },
      {
        "species": [{ "element": "C", "occu": 1 }],
        "abc": [0.26732567, 0.04970697, 0.6037737],
        "properties": { "magmom": -0.0 },
        "label": "C",
        "xyz": [-0.935775034466897, -8.172796890769298, -0.068398496064624]
      },
      {
        "species": [{ "element": "C", "occu": 1 }],
        "abc": [0.26732567, 0.54970697, 0.896226299999999],
        "properties": { "magmom": -0.0 },
        "label": "C",
        "xyz": [-0.917547649466897, -12.131491514230689, -3.2326881910646237]
      },
      {
        "species": [{ "element": "C", "occu": 1 }],
        "abc": [0.73267433, 0.45029303, 0.1037737],
        "properties": { "magmom": -0.0 },
        "label": "C",
        "xyz": [-2.5532817505331034, -1.404700755769299, -2.1750069089353756]
      },
      {
        "species": [{ "element": "C", "occu": 1 }],
        "abc": [0.53456035, 0.57557312, 0.71457799],
        "properties": { "magmom": 0.0 },
        "label": "C",
        "xyz": [-1.8538726677568773, -9.672665064550138, -3.1502919562980956]
      },
      {
        "species": [{ "element": "C", "occu": 1 }],
        "abc": [0.46543965, 0.42442688, 0.28542201],
        "properties": { "magmom": 0.0 },
        "label": "C",
        "xyz": [-1.6169567322431229, -3.863527205449863, -2.2574031437019046]
      },
      {
        "species": [{ "element": "C", "occu": 1 }],
        "abc": [0.46543965, 0.9244268800000001, 0.21457799],
        "properties": { "magmom": 0.0 },
        "label": "C",
        "xyz": [-1.5987293472431228, -2.9045689295501376, -5.4216928387019045]
      },
      {
        "species": [{ "element": "C", "occu": 1 }],
        "abc": [0.53456035, 0.07557312000000001, 0.78542201],
        "properties": { "magmom": 0.0 },
        "label": "C",
        "xyz": [-1.8721000527568774, -10.631623340449863, 0.013997738701904683]
      },
      {
        "species": [{ "element": "C", "occu": 1 }],
        "abc": [0.622012799999999, 0.9549169, 0.30297269],
        "properties": { "magmom": -0.0 },
        "label": "C",
        "xyz": [-2.14676437101876, -4.101096584399106, -5.47046559680378]
      },
      {
        "species": [{ "element": "C", "occu": 1 }],
        "abc": [0.377987199999999, 0.0450831, 0.6970273100000001],
        "properties": { "magmom": -0.0 },
        "label": "C",
        "xyz": [-1.3240650289812337, -9.435095685600896, 0.06277049680377811]
      },
      {
        "species": [{ "element": "C", "occu": 1 }],
        "abc": [0.377987199999999, 0.545083099999999, 0.80297269],
        "properties": { "magmom": -0.0 },
        "label": "C",
        "xyz": [-1.3058376439812336, -10.869192719399107, -3.1015191981962156]
      },
      {
        "species": [{ "element": "C", "occu": 1 }],
        "abc": [0.622012799999999, 0.454916899999999, 0.19702731],
        "properties": { "magmom": -0.0 },
        "label": "C",
        "xyz": [-2.1649917560187597, -2.666999550600894, -2.3061759018037735]
      },
      {
        "species": [{ "element": "C", "occu": 1 }],
        "abc": [-0.0, -0.0, -0.0],
        "properties": { "magmom": -0.0 },
        "label": "C",
        "xyz": [0.0, 0.0, 0.0]
      },
      {
        "species": [{ "element": "C", "occu": 1 }],
        "abc": [-0.0, 0.5, 0.5],
        "properties": { "magmom": -0.0 },
        "label": "C",
        "xyz": [0.018227385, -6.768096135, -3.164289695]
      }
    ]
  },
  "task_ids": null,
  "uncorrected_energy_per_atom": null,
  "energy_per_atom": -7.8136158554545485,
  "formation_energy_per_atom": -0.310828185681824,
  "energy_above_hull": 0.0,
  "is_stable": true,
  "equilibrium_reaction_energy_per_atom": null,
  "decomposes_to": null,
  "xas": null,
  "grain_boundaries": null,
  "band_gap": 0.3698,
  "cbm": null,
  "vbm": null,
  "efermi": 4.01823032,
  "is_gap_direct": null,
  "is_metal": null,
  "es_source_calc_id": null,
  "bandstructure": null,
  "dos": null,
  "dos_energy_up": null,
  "dos_energy_down": null,
  "is_magnetic": null,
  "ordering": null,
  "total_magnetization": 1e-7,
  "total_magnetization_normalized_vol": null,
  "total_magnetization_normalized_formula_units": null,
  "num_magnetic_sites": null,
  "num_unique_magnetic_sites": null,
  "types_of_magnetic_species": null,
  "bulk_modulus": null,
  "shear_modulus": null,
  "universal_anisotropy": null,
  "homogeneous_poisson": null,
  "e_total": null,
  "e_ionic": null,
  "e_electronic": null,
  "n": null,
  "e_ij_max": null,
  "weighted_surface_energy_EV_PER_ANG2": null,
  "weighted_surface_energy": null,
  "weighted_work_function": null,
  "surface_anisotropy": null,
  "shape_factor": null,
  "has_reconstructed": null,
  "possible_species": null,
  "has_props": null,
  "theoretical": null,
  "database_IDs": null,
  "fields_not_requested": [
    "builder_meta",
    "nsites",
    "elements",
    "nelements",
    "composition",
    "composition_reduced",
    "chemsys",
    "symmetry",
    "property_name",
    "deprecated",
    "deprecation_reasons",
    "last_updated",
    "origins",
    "warnings",
    "task_ids",
    "uncorrected_energy_per_atom",
    "equilibrium_reaction_energy_per_atom",
    "decomposes_to",
    "xas",
    "grain_boundaries",
    "cbm",
    "vbm",
    "is_gap_direct",
    "is_metal",
    "es_source_calc_id",
    "bandstructure",
    "dos",
    "dos_energy_up",
    "dos_energy_down",
    "is_magnetic",
    "ordering",
    "total_magnetization_normalized_vol",
    "total_magnetization_normalized_formula_units",
    "num_magnetic_sites",
    "num_unique_magnetic_sites",
    "types_of_magnetic_species",
    "bulk_modulus",
    "shear_modulus",
    "universal_anisotropy",
    "homogeneous_poisson",
    "e_total",
    "e_ionic",
    "e_electronic",
    "n",
    "e_ij_max",
    "weighted_surface_energy_EV_PER_ANG2",
    "weighted_surface_energy",
    "weighted_work_function",
    "surface_anisotropy",
    "shape_factor",
    "has_reconstructed",
    "possible_species",
    "has_props",
    "theoretical",
    "database_IDs"
  ]
}
