{"builder_meta": null, "nsites": null, "elements": null, "nelements": null, "composition": null, "composition_reduced": null, "formula_pretty": "Tm4Co", "formula_anonymous": "AB4", "chemsys": null, "volume": 286.9008072502321, "density": 8.504321098782146, "density_atomic": 28.69008072502321, "symmetry": null, "property_name": null, "material_id": "mp-1208139", "deprecated": null, "deprecation_reasons": null, "last_updated": null, "origins": null, "warnings": null, "structure": {"@module": "pymatgen.core.structure", "@class": "Structure", "charge": 0, "lattice": {"matrix": [[0.0, 5.234806, 5.234806], [5.234806, 0.0, 5.234806], [5.234806, 5.234806, 0.0]], "pbc": [true, true, true], "a": 7.403133641592052, "b": 7.403133641592052, "c": 7.403133641592052, "alpha": 59.99999999999999, "beta": 59.99999999999999, "gamma": 59.99999999999999, "volume": 286.9008072502321}, "properties": {}, "sites": [{"species": [{"element": "Tm", "occu": 1}], "abc": [0.385675, 0.385675, 0.385675], "properties": {"magmom": 0.043000000000000003}, "label": "Tm", "xyz": [4.0378676081, 4.0378676081, 4.0378676081]}, {"species": [{"element": "Tm", "occu": 1}], "abc": [0.385675, 0.385675, 0.842976], "properties": {"magmom": 0.043000000000000003}, "label": "Tm", "xyz": [6.431749626705999, 6.431749626705999, 4.0378676081]}, {"species": [{"element": "Tm", "occu": 1}], "abc": [0.385675, 0.842976, 0.385675], "properties": {"magmom": 0.039}, "label": "Tm", "xyz": [6.431749626705999, 4.0378676081, 6.431749626705999]}, {"species": [{"element": "Tm", "occu": 1}], "abc": [0.864325, 0.864325, 0.407024], "properties": {"magmom": 0.043000000000000003}, "label": "Tm", "xyz": [6.655265373294, 6.655265373294, 9.0491473919]}, {"species": [{"element": "Tm", "occu": 1}], "abc": [0.864325, 0.864325, 0.864325], "properties": {"magmom": 0.043000000000000003}, "label": "Tm", "xyz": [9.0491473919, 9.0491473919, 9.0491473919]}, {"species": [{"element": "Tm", "occu": 1}], "abc": [0.842976, 0.385675, 0.385675], "properties": {"magmom": 0.045}, "label": "Tm", "xyz": [4.0378676081, 6.431749626705999, 6.431749626705999]}, {"species": [{"element": "Tm", "occu": 1}], "abc": [0.864325, 0.407024, 0.864325], "properties": {"magmom": 0.039}, "label": "Tm", "xyz": [6.655265373294, 9.0491473919, 6.655265373294]}, {"species": [{"element": "Tm", "occu": 1}], "abc": [0.407024, 0.864325, 0.864325], "properties": {"magmom": 0.044}, "label": "Tm", "xyz": [9.0491473919, 6.655265373294, 6.655265373294]}, {"species": [{"element": "Co", "occu": 1}], "abc": [0.0, 0.0, 0.0], "properties": {"magmom": 0.007}, "label": "Co", "xyz": [0.0, 0.0, 0.0]}, {"species": [{"element": "Co", "occu": 1}], "abc": [0.25, 0.25, 0.25], "properties": {"magmom": 0.007}, "label": "Co", "xyz": [2.617403, 2.617403, 2.617403]}]}, "task_ids": null, "uncorrected_energy_per_atom": null, "energy_per_atom": -4.70110104, "formation_energy_per_atom": 0.311583487999993, "energy_above_hull": 0.41021827266666305, "is_stable": false, "equilibrium_reaction_energy_per_atom": null, "decomposes_to": null, "xas": null, "grain_boundaries": null, "band_gap": 0.0, "cbm": null, "vbm": null, "efermi": 2.628677139999999, "is_gap_direct": null, "is_metal": null, "es_source_calc_id": null, "bandstructure": null, "dos": null, "dos_energy_up": null, "dos_energy_down": null, "is_magnetic": null, "ordering": null, "total_magnetization": 0.3980941, "total_magnetization_normalized_vol": null, "total_magnetization_normalized_formula_units": null, "num_magnetic_sites": null, "num_unique_magnetic_sites": null, "types_of_magnetic_species": null, "bulk_modulus": null, "shear_modulus": null, "universal_anisotropy": null, "homogeneous_poisson": null, "e_total": null, "e_ionic": null, "e_electronic": null, "n": null, "e_ij_max": null, "weighted_surface_energy_EV_PER_ANG2": null, "weighted_surface_energy": null, "weighted_work_function": null, "surface_anisotropy": null, "shape_factor": null, "has_reconstructed": null, "possible_species": null, "has_props": null, "theoretical": null, "database_IDs": null, "fields_not_requested": ["builder_meta", "nsites", "elements", "nelements", "composition", "composition_reduced", "chemsys", "symmetry", "property_name", "deprecated", "deprecation_reasons", "last_updated", "origins", "warnings", "task_ids", "uncorrected_energy_per_atom", "equilibrium_reaction_energy_per_atom", "decomposes_to", "xas", "grain_boundaries", "cbm", "vbm", "is_gap_direct", "is_metal", "es_source_calc_id", "bandstructure", "dos", "dos_energy_up", "dos_energy_down", "is_magnetic", "ordering", "total_magnetization_normalized_vol", "total_magnetization_normalized_formula_units", "num_magnetic_sites", "num_unique_magnetic_sites", "types_of_magnetic_species", "bulk_modulus", "shear_modulus", "universal_anisotropy", "homogeneous_poisson", "e_total", "e_ionic", "e_electronic", "n", "e_ij_max", "weighted_surface_energy_EV_PER_ANG2", "weighted_surface_energy", "weighted_work_function", "surface_anisotropy", "shape_factor", "has_reconstructed", "possible_species", "has_props", "theoretical", "database_IDs"]}