{
  "builder_meta": null,
  "nsites": null,
  "elements": null,
  "nelements": null,
  "composition": null,
  "composition_reduced": null,
  "formula_pretty": "Tm4Ir",
  "formula_anonymous": "AB4",
  "chemsys": null,
  "volume": 308.9203436516398,
  "density": 9.331021986371761,
  "density_atomic": 30.892034365163983,
  "symmetry": null,
  "property_name": null,
  "material_id": "mp-1208002",
  "deprecated": null,
  "deprecation_reasons": null,
  "last_updated": null,
  "origins": null,
  "warnings": null,
  "structure": {
    "@module": "pymatgen.core.structure",
    "@class": "Structure",
    "charge": 0,
    "lattice": {
      "matrix": [
        [-5.365442, -5.365442, 0.0],
        [-5.365442, 0.0, -5.365442],
        [0.0, -5.365442, -5.365442]
      ],
      "pbc": [true, true, true],
      "a": 7.587880844526223,
      "b": 7.587880844526223,
      "c": 7.587880844526223,
      "alpha": 59.99999999999999,
      "beta": 59.99999999999999,
      "gamma": 59.99999999999999,
      "volume": 308.9203436516398
    },
    "properties": {},
    "sites": [
      {
        "species": [{ "element": "Tm", "occu": 1 }],
        "abc": [0.611538, 0.611538, 0.611538],
        "properties": { "magmom": 0.0 },
        "label": "Tm",
        "xyz": [-6.562343339592, -6.562343339592, -6.562343339592]
      },
      {
        "species": [{ "element": "Tm", "occu": 1 }],
        "abc": [0.165387, 0.611538, 0.611538],
        "properties": { "magmom": 0.001 },
        "label": "Tm",
        "xyz": [-4.1685460258500004, -4.1685460258500004, -6.562343339592]
      },
      {
        "species": [{ "element": "Tm", "occu": 1 }],
        "abc": [0.611538, 0.165387, 0.611538],
        "properties": { "magmom": 0.001 },
        "label": "Tm",
        "xyz": [-4.1685460258500004, -6.562343339592, -4.1685460258500004]
      },
      {
        "species": [{ "element": "Tm", "occu": 1 }],
        "abc": [0.584612999999999, 0.138462, 0.138462],
        "properties": { "magmom": 0.001 },
        "label": "Tm",
        "xyz": [-3.879616974149995, -3.879616974149995, -1.485819660408]
      },
      {
        "species": [{ "element": "Tm", "occu": 1 }],
        "abc": [0.138462, 0.138462, 0.138462],
        "properties": { "magmom": 0.0 },
        "label": "Tm",
        "xyz": [-1.485819660408, -1.485819660408, -1.485819660408]
      },
      {
        "species": [{ "element": "Tm", "occu": 1 }],
        "abc": [0.611538, 0.611538, 0.165387],
        "properties": { "magmom": 0.0 },
        "label": "Tm",
        "xyz": [-6.562343339592, -4.1685460258500004, -4.1685460258500004]
      },
      {
        "species": [{ "element": "Tm", "occu": 1 }],
        "abc": [0.138462, 0.584612999999999, 0.138462],
        "properties": { "magmom": 0.001 },
        "label": "Tm",
        "xyz": [-3.879616974149995, -1.485819660408, -3.879616974149995]
      },
      {
        "species": [{ "element": "Tm", "occu": 1 }],
        "abc": [0.138462, 0.138462, 0.584612999999999],
        "properties": { "magmom": 0.0 },
        "label": "Tm",
        "xyz": [-1.485819660408, -3.879616974149995, -3.879616974149995]
      },
      {
        "species": [{ "element": "Ir", "occu": 1 }],
        "abc": [0.0, 0.0, 0.0],
        "properties": { "magmom": -0.0 },
        "label": "Ir",
        "xyz": [0.0, 0.0, 0.0]
      },
      {
        "species": [{ "element": "Ir", "occu": 1 }],
        "abc": [0.75, 0.75, 0.75],
        "properties": { "magmom": -0.0 },
        "label": "Ir",
        "xyz": [-8.048162999999999, -8.048162999999999, -8.048162999999999]
      }
    ]
  },
  "task_ids": null,
  "uncorrected_energy_per_atom": null,
  "energy_per_atom": -5.248685215,
  "formation_energy_per_atom": 0.10500280499999401,
  "energy_above_hull": 0.606614331499997,
  "is_stable": false,
  "equilibrium_reaction_energy_per_atom": null,
  "decomposes_to": null,
  "xas": null,
  "grain_boundaries": null,
  "band_gap": 0.0,
  "cbm": null,
  "vbm": null,
  "efermi": 2.85299674,
  "is_gap_direct": null,
  "is_metal": null,
  "es_source_calc_id": null,
  "bandstructure": null,
  "dos": null,
  "dos_energy_up": null,
  "dos_energy_down": null,
  "is_magnetic": null,
  "ordering": null,
  "total_magnetization": 0.006641999999999,
  "total_magnetization_normalized_vol": null,
  "total_magnetization_normalized_formula_units": null,
  "num_magnetic_sites": null,
  "num_unique_magnetic_sites": null,
  "types_of_magnetic_species": null,
  "bulk_modulus": null,
  "shear_modulus": null,
  "universal_anisotropy": null,
  "homogeneous_poisson": null,
  "e_total": null,
  "e_ionic": null,
  "e_electronic": null,
  "n": null,
  "e_ij_max": null,
  "weighted_surface_energy_EV_PER_ANG2": null,
  "weighted_surface_energy": null,
  "weighted_work_function": null,
  "surface_anisotropy": null,
  "shape_factor": null,
  "has_reconstructed": null,
  "possible_species": null,
  "has_props": null,
  "theoretical": null,
  "database_IDs": null,
  "fields_not_requested": [
    "builder_meta",
    "nsites",
    "elements",
    "nelements",
    "composition",
    "composition_reduced",
    "chemsys",
    "symmetry",
    "property_name",
    "deprecated",
    "deprecation_reasons",
    "last_updated",
    "origins",
    "warnings",
    "task_ids",
    "uncorrected_energy_per_atom",
    "equilibrium_reaction_energy_per_atom",
    "decomposes_to",
    "xas",
    "grain_boundaries",
    "cbm",
    "vbm",
    "is_gap_direct",
    "is_metal",
    "es_source_calc_id",
    "bandstructure",
    "dos",
    "dos_energy_up",
    "dos_energy_down",
    "is_magnetic",
    "ordering",
    "total_magnetization_normalized_vol",
    "total_magnetization_normalized_formula_units",
    "num_magnetic_sites",
    "num_unique_magnetic_sites",
    "types_of_magnetic_species",
    "bulk_modulus",
    "shear_modulus",
    "universal_anisotropy",
    "homogeneous_poisson",
    "e_total",
    "e_ionic",
    "e_electronic",
    "n",
    "e_ij_max",
    "weighted_surface_energy_EV_PER_ANG2",
    "weighted_surface_energy",
    "weighted_work_function",
    "surface_anisotropy",
    "shape_factor",
    "has_reconstructed",
    "possible_species",
    "has_props",
    "theoretical",
    "database_IDs"
  ]
}
