{
  "builder_meta": null,
  "nsites": null,
  "elements": null,
  "nelements": null,
  "composition": null,
  "composition_reduced": null,
  "formula_pretty": "Tm4Pt",
  "formula_anonymous": "AB4",
  "chemsys": null,
  "volume": 321.7651635949041,
  "density": 8.98812045824795,
  "density_atomic": 32.17651635949041,
  "symmetry": null,
  "property_name": null,
  "material_id": "mp-1208017",
  "deprecated": null,
  "deprecation_reasons": null,
  "last_updated": null,
  "origins": null,
  "warnings": null,
  "structure": {
    "@module": "pymatgen.core.structure",
    "@class": "Structure",
    "charge": 0,
    "lattice": {
      "matrix": [
        [-5.438799, -5.438799, 0.0],
        [-5.438799, 0.0, -5.438799],
        [0.0, -5.438799, -5.438799]
      ],
      "pbc": [true, true, true],
      "a": 7.691623308821228,
      "b": 7.691623308821228,
      "c": 7.691623308821228,
      "alpha": 60.00000000000001,
      "beta": 60.00000000000001,
      "gamma": 60.00000000000001,
      "volume": 321.7651635949041
    },
    "properties": {},
    "sites": [
      {
        "species": [{ "element": "Tm", "occu": 1 }],
        "abc": [0.610223, 0.610223, 0.610223],
        "properties": { "magmom": 0.023 },
        "label": "Tm",
        "xyz": [-6.637760484354, -6.637760484354, -6.637760484354]
      },
      {
        "species": [{ "element": "Tm", "occu": 1 }],
        "abc": [0.169331999999999, 0.610223, 0.610223],
        "properties": { "magmom": 0.023 },
        "label": "Tm",
        "xyz": [-4.2398429544449945, -4.2398429544449945, -6.637760484354]
      },
      {
        "species": [{ "element": "Tm", "occu": 1 }],
        "abc": [0.610223, 0.169331999999999, 0.610223],
        "properties": { "magmom": 0.023 },
        "label": "Tm",
        "xyz": [-4.2398429544449945, -6.637760484354, -4.2398429544449945]
      },
      {
        "species": [{ "element": "Tm", "occu": 1 }],
        "abc": [0.580668, 0.139776999999999, 0.139776999999999],
        "properties": { "magmom": 0.023 },
        "label": "Tm",
        "xyz": [-3.918355545554995, -3.918355545554995, -1.5204380156459893]
      },
      {
        "species": [{ "element": "Tm", "occu": 1 }],
        "abc": [0.139776999999999, 0.139776999999999, 0.139776999999999],
        "properties": { "magmom": 0.023 },
        "label": "Tm",
        "xyz": [-1.5204380156459893, -1.5204380156459893, -1.5204380156459893]
      },
      {
        "species": [{ "element": "Tm", "occu": 1 }],
        "abc": [0.610223, 0.610223, 0.169331999999999],
        "properties": { "magmom": 0.023 },
        "label": "Tm",
        "xyz": [-6.637760484354, -4.2398429544449945, -4.2398429544449945]
      },
      {
        "species": [{ "element": "Tm", "occu": 1 }],
        "abc": [0.139776999999999, 0.580668, 0.139776999999999],
        "properties": { "magmom": 0.023 },
        "label": "Tm",
        "xyz": [-3.918355545554995, -1.5204380156459893, -3.918355545554995]
      },
      {
        "species": [{ "element": "Tm", "occu": 1 }],
        "abc": [0.139776999999999, 0.139776999999999, 0.580668],
        "properties": { "magmom": 0.023 },
        "label": "Tm",
        "xyz": [-1.5204380156459893, -3.918355545554995, -3.918355545554995]
      },
      {
        "species": [{ "element": "Pt", "occu": 1 }],
        "abc": [0.0, 0.0, 0.0],
        "properties": { "magmom": 0.008 },
        "label": "Pt",
        "xyz": [0.0, 0.0, 0.0]
      },
      {
        "species": [{ "element": "Pt", "occu": 1 }],
        "abc": [0.75, 0.75, 0.75],
        "properties": { "magmom": 0.008 },
        "label": "Pt",
        "xyz": [-8.158198500000001, -8.158198500000001, -8.158198500000001]
      }
    ]
  },
  "task_ids": null,
  "uncorrected_energy_per_atom": null,
  "energy_per_atom": -38.49852183966667,
  "formation_energy_per_atom": -0.10413982766667101,
  "energy_above_hull": 0.5572599218333281,
  "is_stable": false,
  "equilibrium_reaction_energy_per_atom": null,
  "decomposes_to": null,
  "xas": null,
  "grain_boundaries": null,
  "band_gap": 0.0,
  "cbm": null,
  "vbm": null,
  "efermi": 2.546072279999999,
  "is_gap_direct": null,
  "is_metal": null,
  "es_source_calc_id": null,
  "bandstructure": null,
  "dos": null,
  "dos_energy_up": null,
  "dos_energy_down": null,
  "is_magnetic": null,
  "ordering": null,
  "total_magnetization": 0.1854669,
  "total_magnetization_normalized_vol": null,
  "total_magnetization_normalized_formula_units": null,
  "num_magnetic_sites": null,
  "num_unique_magnetic_sites": null,
  "types_of_magnetic_species": null,
  "bulk_modulus": null,
  "shear_modulus": null,
  "universal_anisotropy": null,
  "homogeneous_poisson": null,
  "e_total": null,
  "e_ionic": null,
  "e_electronic": null,
  "n": null,
  "e_ij_max": null,
  "weighted_surface_energy_EV_PER_ANG2": null,
  "weighted_surface_energy": null,
  "weighted_work_function": null,
  "surface_anisotropy": null,
  "shape_factor": null,
  "has_reconstructed": null,
  "possible_species": null,
  "has_props": null,
  "theoretical": null,
  "database_IDs": null,
  "fields_not_requested": [
    "builder_meta",
    "nsites",
    "elements",
    "nelements",
    "composition",
    "composition_reduced",
    "chemsys",
    "symmetry",
    "property_name",
    "deprecated",
    "deprecation_reasons",
    "last_updated",
    "origins",
    "warnings",
    "task_ids",
    "uncorrected_energy_per_atom",
    "equilibrium_reaction_energy_per_atom",
    "decomposes_to",
    "xas",
    "grain_boundaries",
    "cbm",
    "vbm",
    "is_gap_direct",
    "is_metal",
    "es_source_calc_id",
    "bandstructure",
    "dos",
    "dos_energy_up",
    "dos_energy_down",
    "is_magnetic",
    "ordering",
    "total_magnetization_normalized_vol",
    "total_magnetization_normalized_formula_units",
    "num_magnetic_sites",
    "num_unique_magnetic_sites",
    "types_of_magnetic_species",
    "bulk_modulus",
    "shear_modulus",
    "universal_anisotropy",
    "homogeneous_poisson",
    "e_total",
    "e_ionic",
    "e_electronic",
    "n",
    "e_ij_max",
    "weighted_surface_energy_EV_PER_ANG2",
    "weighted_surface_energy",
    "weighted_work_function",
    "surface_anisotropy",
    "shape_factor",
    "has_reconstructed",
    "possible_species",
    "has_props",
    "theoretical",
    "database_IDs"
  ]
}
