{"builder_meta": null, "nsites": null, "elements": null, "nelements": null, "composition": null, "composition_reduced": null, "formula_pretty": "Tm5Bi3", "formula_anonymous": "A3B5", "chemsys": null, "volume": 899.9216921575853, "density": 10.86169898251198, "density_atomic": 28.12255287992454, "symmetry": null, "property_name": null, "material_id": "mp-1208046", "deprecated": null, "deprecation_reasons": null, "last_updated": null, "origins": null, "warnings": null, "structure": {"@module": "pymatgen.core.structure", "@class": "Structure", "charge": 0, "lattice": {"matrix": [[8.12699855, -0.0, 0.0], [-0.0, 9.34584651, 0.0], [0.0, 0.0, 11.84829596]], "pbc": [true, true, true], "a": 8.12699855, "b": 9.34584651, "c": 11.84829596, "alpha": 90.0, "beta": 90.0, "gamma": 90.0, "volume": 899.9216921575853}, "properties": {}, "sites": [{"species": [{"element": "Tm", "occu": 1}], "abc": [0.02387311, 0.25, 0.51124757], "properties": {"magmom": 0.008}, "label": "Tm", "xyz": [0.1940167303539905, 2.3364616275, 6.057412518190817]}, {"species": [{"element": "Tm", "occu": 1}], "abc": [0.97612689, 0.75, 0.48875243], "properties": {"magmom": 0.008}, "label": "Tm", "xyz": [7.932981819646009, 7.009384882499999, 5.790883441809183]}, {"species": [{"element": "Tm", "occu": 1}], "abc": [0.47612689, 0.75, 0.01124757], "properties": {"magmom": 0.008}, "label": "Tm", "xyz": [3.8694825446460097, 7.009384882499999, 0.1332645381908172]}, {"species": [{"element": "Tm", "occu": 1}], "abc": [0.52387311, 0.25, 0.98875243], "properties": {"magmom": 0.008}, "label": "Tm", "xyz": [4.257516005353991, 2.3364616275, 11.715031421809183]}, {"species": [{"element": "Tm", "occu": 1}], "abc": [0.35586403, 0.25, 0.28406435], "properties": {"magmom": 0.01}, "label": "Tm", "xyz": [2.8921064558071565, 2.3364616275, 3.3656784904850263]}, {"species": [{"element": "Tm", "occu": 1}], "abc": [0.64413597, 0.75, 0.71593565], "properties": {"magmom": 0.01}, "label": "Tm", "xyz": [5.234892094192843, 7.009384882499999, 8.482617469514974]}, {"species": [{"element": "Tm", "occu": 1}], "abc": [0.14413597, 0.75, 0.78406435], "properties": {"magmom": 0.01}, "label": "Tm", "xyz": [1.1713928191928435, 7.009384882499999, 9.289826470485025]}, {"species": [{"element": "Tm", "occu": 1}], "abc": [0.85586403, 0.25, 0.21593565], "properties": {"magmom": 0.01}, "label": "Tm", "xyz": [6.955605730807156, 2.3364616275, 2.558469489514974]}, {"species": [{"element": "Tm", "occu": 1}], "abc": [0.18611074, 0.25, 0.78315269], "properties": {"magmom": 0.005}, "label": "Tm", "xyz": [1.512521714119427, 2.3364616275, 9.279024852990132]}, {"species": [{"element": "Tm", "occu": 1}], "abc": [0.8138892600000001, 0.75, 0.21684731000000002], "properties": {"magmom": 0.005}, "label": "Tm", "xyz": [6.6144768358805734, 7.009384882499999, 2.5692711070098677]}, {"species": [{"element": "Tm", "occu": 1}], "abc": [0.31388926, 0.75, 0.28315269], "properties": {"magmom": 0.005}, "label": "Tm", "xyz": [2.550977560880573, 7.009384882499999, 3.354876872990132]}, {"species": [{"element": "Tm", "occu": 1}], "abc": [0.68611074, 0.25, 0.71684731], "properties": {"magmom": 0.005}, "label": "Tm", "xyz": [5.576020989119427, 2.3364616275, 8.493419087009867]}, {"species": [{"element": "Tm", "occu": 1}], "abc": [0.19332007, 0.06586961, 0.059599599999999], "properties": {"magmom": 0.013000000000000001}, "label": "Tm", "xyz": [1.5711119285758985, 0.615607264733561, 0.7061536998976041]}, {"species": [{"element": "Tm", "occu": 1}], "abc": [0.80667993, 0.93413039, 0.940400399999999], "properties": {"magmom": 0.013000000000000001}, "label": "Tm", "xyz": [6.555886621424102, 8.730239245266437, 11.142142260102371]}, {"species": [{"element": "Tm", "occu": 1}], "abc": [0.30667993, 0.93413039, 0.5595996], "properties": {"magmom": 0.013000000000000001}, "label": "Tm", "xyz": [2.4923873464241013, 8.730239245266437, 6.630301679897616]}, {"species": [{"element": "Tm", "occu": 1}], "abc": [0.80667993, 0.56586961, 0.940400399999999], "properties": {"magmom": 0.013000000000000001}, "label": "Tm", "xyz": [6.555886621424102, 5.288530519733561, 11.142142260102371]}, {"species": [{"element": "Tm", "occu": 1}], "abc": [0.6933200700000001, 0.06586961, 0.440400399999999], "properties": {"magmom": 0.013000000000000001}, "label": "Tm", "xyz": [5.634611203575899, 0.615607264733561, 5.217994280102372]}, {"species": [{"element": "Tm", "occu": 1}], "abc": [0.19332007, 0.43413039000000003, 0.059599599999999], "properties": {"magmom": 0.013000000000000001}, "label": "Tm", "xyz": [1.5711119285758985, 4.057315990266439, 0.7061536998976041]}, {"species": [{"element": "Tm", "occu": 1}], "abc": [0.6933200700000001, 0.43413039000000003, 0.440400399999999], "properties": {"magmom": 0.013000000000000001}, "label": "Tm", "xyz": [5.634611203575899, 4.057315990266439, 5.217994280102372]}, {"species": [{"element": "Tm", "occu": 1}], "abc": [0.30667993, 0.56586961, 0.5595996], "properties": {"magmom": 0.013000000000000001}, "label": "Tm", "xyz": [2.4923873464241013, 5.288530519733561, 6.630301679897616]}, {"species": [{"element": "Bi", "occu": 1}], "abc": [0.40570485, 0.25, 0.5420783], "properties": {"magmom": -0.003}, "label": "Bi", "xyz": [3.2971627276779674, 2.3364616275, 6.422704131893668]}, {"species": [{"element": "Bi", "occu": 1}], "abc": [0.59429515, 0.75, 0.4579217], "properties": {"magmom": -0.003}, "label": "Bi", "xyz": [4.829835822322032, 7.009384882499999, 5.425591828106332]}, {"species": [{"element": "Bi", "occu": 1}], "abc": [0.09429515000000001, 0.75, 0.0420783], "properties": {"magmom": -0.003}, "label": "Bi", "xyz": [0.7663365473220325, 7.009384882499999, 0.498556151893668]}, {"species": [{"element": "Bi", "occu": 1}], "abc": [0.90570485, 0.25, 0.9579217], "properties": {"magmom": -0.003}, "label": "Bi", "xyz": [7.360662002677968, 2.3364616275, 11.349739808106332]}, {"species": [{"element": "Bi", "occu": 1}], "abc": [0.06605019, 0.00397654, 0.32588568], "properties": {"magmom": -0.002}, "label": "Bi", "xyz": [0.5367897983572244, 0.0371641324808754, 3.861189985765853]}, {"species": [{"element": "Bi", "occu": 1}], "abc": [0.93394981, 0.99602346, 0.67411432], "properties": {"magmom": -0.002}, "label": "Bi", "xyz": [7.590208751642775, 9.308682377519125, 7.987105974234147]}, {"species": [{"element": "Bi", "occu": 1}], "abc": [0.43394981, 0.99602346, 0.8258856800000001], "properties": {"magmom": -0.002}, "label": "Bi", "xyz": [3.5267094766427753, 9.308682377519125, 9.785337965765853]}, {"species": [{"element": "Bi", "occu": 1}], "abc": [0.93394981, 0.50397654, 0.67411432], "properties": {"magmom": -0.002}, "label": "Bi", "xyz": [7.590208751642775, 4.7100873874808755, 7.987105974234147]}, {"species": [{"element": "Bi", "occu": 1}], "abc": [0.56605019, 0.00397654, 0.17411432000000002], "properties": {"magmom": -0.002}, "label": "Bi", "xyz": [4.600289073357224, 0.0371641324808754, 2.0629579942341474]}, {"species": [{"element": "Bi", "occu": 1}], "abc": [0.06605019, 0.49602346, 0.32588568], "properties": {"magmom": -0.002}, "label": "Bi", "xyz": [0.5367897983572244, 4.635759122519125, 3.861189985765853]}, {"species": [{"element": "Bi", "occu": 1}], "abc": [0.56605019, 0.49602346, 0.17411432000000002], "properties": {"magmom": -0.002}, "label": "Bi", "xyz": [4.600289073357224, 4.635759122519125, 2.0629579942341474]}, {"species": [{"element": "Bi", "occu": 1}], "abc": [0.43394981, 0.50397654, 0.8258856800000001], "properties": {"magmom": -0.002}, "label": "Bi", "xyz": [3.5267094766427753, 4.7100873874808755, 9.785337965765853]}]}, "task_ids": null, "uncorrected_energy_per_atom": null, "energy_per_atom": -44.634012199375, "formation_energy_per_atom": -0.745004363750005, "energy_above_hull": 0.0, "is_stable": true, "equilibrium_reaction_energy_per_atom": null, "decomposes_to": null, "xas": null, "grain_boundaries": null, "band_gap": 0.0, "cbm": null, "vbm": null, "efermi": 5.01897607, "is_gap_direct": null, "is_metal": null, "es_source_calc_id": null, "bandstructure": null, "dos": null, "dos_energy_up": null, "dos_energy_down": null, "is_magnetic": null, "ordering": null, "total_magnetization": 0.275391799999999, "total_magnetization_normalized_vol": null, "total_magnetization_normalized_formula_units": null, "num_magnetic_sites": null, "num_unique_magnetic_sites": null, "types_of_magnetic_species": null, "bulk_modulus": null, "shear_modulus": null, "universal_anisotropy": null, "homogeneous_poisson": null, "e_total": null, "e_ionic": null, "e_electronic": null, "n": null, "e_ij_max": null, "weighted_surface_energy_EV_PER_ANG2": null, "weighted_surface_energy": null, "weighted_work_function": null, "surface_anisotropy": null, "shape_factor": null, "has_reconstructed": null, "possible_species": null, "has_props": null, "theoretical": null, "database_IDs": null, "fields_not_requested": ["builder_meta", "nsites", "elements", "nelements", "composition", "composition_reduced", "chemsys", "symmetry", "property_name", "deprecated", "deprecation_reasons", "last_updated", "origins", "warnings", "task_ids", "uncorrected_energy_per_atom", "equilibrium_reaction_energy_per_atom", "decomposes_to", "xas", "grain_boundaries", "cbm", "vbm", "is_gap_direct", "is_metal", "es_source_calc_id", "bandstructure", "dos", "dos_energy_up", "dos_energy_down", "is_magnetic", "ordering", "total_magnetization_normalized_vol", "total_magnetization_normalized_formula_units", "num_magnetic_sites", "num_unique_magnetic_sites", "types_of_magnetic_species", "bulk_modulus", "shear_modulus", "universal_anisotropy", "homogeneous_poisson", "e_total", "e_ionic", "e_electronic", "n", "e_ij_max", "weighted_surface_energy_EV_PER_ANG2", "weighted_surface_energy", "weighted_work_function", "surface_anisotropy", "shape_factor", "has_reconstructed", "possible_species", "has_props", "theoretical", "database_IDs"]}