{"builder_meta": null, "nsites": null, "elements": null, "nelements": null, "composition": null, "composition_reduced": null, "formula_pretty": "Tm5Ge4", "formula_anonymous": "A4B5", "chemsys": null, "volume": 799.4533599600135, "density": 9.431922373741104, "density_atomic": 22.20703777666704, "symmetry": null, "property_name": null, "material_id": "mp-1196455", "deprecated": null, "deprecation_reasons": null, "last_updated": null, "origins": null, "warnings": null, "structure": {"@module": "pymatgen.core.structure", "@class": "Structure", "charge": 0, "lattice": {"matrix": [[-7.4286115, 0.0, -0.0], [0.0, 0.0, -7.5287223], [0.0, -14.29434328, 0.0]], "pbc": [true, true, true], "a": 7.4286115, "b": 7.5287223, "c": 14.29434328, "alpha": 90.0, "beta": 90.0, "gamma": 90.0, "volume": 799.4533599600135}, "properties": {}, "sites": [{"species": [{"element": "Tm", "occu": 1}], "abc": [0.3743169, 0.8389391700000001, 0.88182236], "properties": {"magmom": 0.0}, "label": "Tm", "xyz": [-2.78065482798435, -12.60507152581974, -6.316140037522492]}, {"species": [{"element": "Tm", "occu": 1}], "abc": [0.8743169, 0.66106083, 0.61817764], "properties": {"magmom": 0.0}, "label": "Tm", "xyz": [-6.494960577984349, -8.83644339418026, -4.976943412477509]}, {"species": [{"element": "Tm", "occu": 1}], "abc": [0.625683099999999, 0.16106083000000002, 0.38182236], "properties": {"magmom": 0.0}, "label": "Tm", "xyz": [-4.647956672015643, -5.457899885819741, -1.212582262477509]}, {"species": [{"element": "Tm", "occu": 1}], "abc": [0.1256831, 0.33893917, 0.11817764], "properties": {"magmom": 0.0}, "label": "Tm", "xyz": [-0.9336509220156499, -1.689271754180259, -2.551778887522491]}, {"species": [{"element": "Tm", "occu": 1}], "abc": [0.625683099999999, 0.16106083000000002, 0.11817764], "properties": {"magmom": 0.0}, "label": "Tm", "xyz": [-4.647956672015643, -1.689271754180259, -1.212582262477509]}, {"species": [{"element": "Tm", "occu": 1}], "abc": [0.1256831, 0.33893917, 0.38182236], "properties": {"magmom": 0.0}, "label": "Tm", "xyz": [-0.9336509220156499, -5.457899885819741, -2.551778887522491]}, {"species": [{"element": "Tm", "occu": 1}], "abc": [0.3743169, 0.8389391700000001, 0.61817764], "properties": {"magmom": 0.0}, "label": "Tm", "xyz": [-2.78065482798435, -8.83644339418026, -6.316140037522492]}, {"species": [{"element": "Tm", "occu": 1}], "abc": [0.8743169, 0.66106083, 0.88182236], "properties": {"magmom": 0.0}, "label": "Tm", "xyz": [-6.494960577984349, -12.60507152581974, -4.976943412477509]}, {"species": [{"element": "Tm", "occu": 1}], "abc": [0.525185799999999, 0.32286465000000003, 0.89953421], "properties": {"magmom": -0.0}, "label": "Tm", "xyz": [-3.9014012735166927, -12.85825078984361, -2.430758290336695]}, {"species": [{"element": "Tm", "occu": 1}], "abc": [0.025185799999999002, 0.17713535, 0.60046579], "properties": {"magmom": -0.0}, "label": "Tm", "xyz": [-0.1870955235166926, -8.58326413015639, -1.333602859663305]}, {"species": [{"element": "Tm", "occu": 1}], "abc": [0.474814199999999, 0.67713535, 0.39953421], "properties": {"magmom": -0.0}, "label": "Tm", "xyz": [-3.5272102264832927, -5.711079149843608, -5.097964009663305]}, {"species": [{"element": "Tm", "occu": 1}], "abc": [0.9748142, 0.82286465, 0.10046579], "properties": {"magmom": -0.0}, "label": "Tm", "xyz": [-7.241515976483299, -1.4360924901563912, -6.195119440336695]}, {"species": [{"element": "Tm", "occu": 1}], "abc": [0.474814199999999, 0.67713535, 0.10046579], "properties": {"magmom": -0.0}, "label": "Tm", "xyz": [-3.5272102264832927, -1.4360924901563912, -5.097964009663305]}, {"species": [{"element": "Tm", "occu": 1}], "abc": [0.9748142, 0.82286465, 0.39953421], "properties": {"magmom": -0.0}, "label": "Tm", "xyz": [-7.241515976483299, -5.711079149843608, -6.195119440336695]}, {"species": [{"element": "Tm", "occu": 1}], "abc": [0.525185799999999, 0.32286465000000003, 0.60046579], "properties": {"magmom": -0.0}, "label": "Tm", "xyz": [-3.9014012735166927, -8.58326413015639, -2.430758290336695]}, {"species": [{"element": "Tm", "occu": 1}], "abc": [0.025185799999999002, 0.17713535, 0.89953421], "properties": {"magmom": -0.0}, "label": "Tm", "xyz": [-0.1870955235166926, -12.85825078984361, -1.333602859663305]}, {"species": [{"element": "Tm", "occu": 1}], "abc": [0.209404999999999, 0.50160245, 0.75], "properties": {"magmom": 0.0}, "label": "Tm", "xyz": [-1.5555883911574926, -10.72075746, -3.7764255510496354]}, {"species": [{"element": "Tm", "occu": 1}], "abc": [0.709405, 0.99839755, 0.75], "properties": {"magmom": 0.0}, "label": "Tm", "xyz": [-5.2698941411575, -10.72075746, -7.516657898950365]}, {"species": [{"element": "Tm", "occu": 1}], "abc": [0.790594999999999, 0.49839755, 0.25], "properties": {"magmom": 0.0}, "label": "Tm", "xyz": [-5.873023108842493, -3.57358582, -3.752296748950365]}, {"species": [{"element": "Tm", "occu": 1}], "abc": [0.290595, 0.00160245, 0.25], "properties": {"magmom": 0.0}, "label": "Tm", "xyz": [-2.1587173588425, -3.57358582, -0.012064401049635]}, {"species": [{"element": "Ge", "occu": 1}], "abc": [0.28431672, 0.03411887, 0.04345046], "properties": {"magmom": -0.0}, "label": "Ge", "xyz": [-2.11207845583428, -0.6210957909139089, -0.25687149741980103]}, {"species": [{"element": "Ge", "occu": 1}], "abc": [0.78431672, 0.46588113000000003, 0.45654954000000003], "properties": {"magmom": -0.0}, "label": "Ge", "xyz": [-5.826384205834279, -6.526075849086092, -3.5074896525801993]}, {"species": [{"element": "Ge", "occu": 1}], "abc": [0.71568328, 0.96588113, 0.54345046], "properties": {"magmom": -0.0}, "label": "Ge", "xyz": [-5.31653304416572, -7.768267430913908, -7.271850802580199]}, {"species": [{"element": "Ge", "occu": 1}], "abc": [0.21568328, 0.53411887, 0.95654954], "properties": {"magmom": -0.0}, "label": "Ge", "xyz": [-1.60222729416572, -13.67324748908609, -4.021232647419801]}, {"species": [{"element": "Ge", "occu": 1}], "abc": [0.71568328, 0.96588113, 0.95654954], "properties": {"magmom": -0.0}, "label": "Ge", "xyz": [-5.31653304416572, -13.67324748908609, -7.271850802580199]}, {"species": [{"element": "Ge", "occu": 1}], "abc": [0.21568328, 0.53411887, 0.54345046], "properties": {"magmom": -0.0}, "label": "Ge", "xyz": [-1.60222729416572, -7.768267430913908, -4.021232647419801]}, {"species": [{"element": "Ge", "occu": 1}], "abc": [0.28431672, 0.03411887, 0.45654954000000003], "properties": {"magmom": -0.0}, "label": "Ge", "xyz": [-2.11207845583428, -6.526075849086092, -0.25687149741980103]}, {"species": [{"element": "Ge", "occu": 1}], "abc": [0.78431672, 0.46588113000000003, 0.04345046], "properties": {"magmom": -0.0}, "label": "Ge", "xyz": [-5.826384205834279, -0.6210957909139089, -3.5074896525801993]}, {"species": [{"element": "Ge", "occu": 1}], "abc": [0.57588586, 0.6183798500000001, 0.75], "properties": {"magmom": -0.0}, "label": "Ge", "xyz": [-4.27803232228339, -10.72075746, -4.655610166565656]}, {"species": [{"element": "Ge", "occu": 1}], "abc": [0.07588586, 0.88162015, 0.75], "properties": {"magmom": -0.0}, "label": "Ge", "xyz": [-0.56372657228339, -10.72075746, -6.637473283434345]}, {"species": [{"element": "Ge", "occu": 1}], "abc": [0.42411414000000003, 0.38162015, 0.25], "properties": {"magmom": -0.0}, "label": "Ge", "xyz": [-3.15057917771661, -3.57358582, -2.873112133434345]}, {"species": [{"element": "Ge", "occu": 1}], "abc": [0.92411414, 0.11837985000000001, 0.25], "properties": {"magmom": -0.0}, "label": "Ge", "xyz": [-6.86488492771661, -3.57358582, -0.891249016565655]}, {"species": [{"element": "Ge", "occu": 1}], "abc": [0.33199809, 0.13994041000000002, 0.75], "properties": {"magmom": -0.0}, "label": "Ge", "xyz": [-2.466284829352035, -10.72075746, -1.0535724854381432]}, {"species": [{"element": "Ge", "occu": 1}], "abc": [0.83199809, 0.36005959, 0.75], "properties": {"magmom": -0.0}, "label": "Ge", "xyz": [-6.180590579352035, -10.72075746, -2.710788664561857]}, {"species": [{"element": "Ge", "occu": 1}], "abc": [0.66800191, 0.86005959, 0.25], "properties": {"magmom": -0.0}, "label": "Ge", "xyz": [-4.962326670647965, -3.57358582, -6.475149814561857]}, {"species": [{"element": "Ge", "occu": 1}], "abc": [0.16800191, 0.63994041, 0.25], "properties": {"magmom": -0.0}, "label": "Ge", "xyz": [-1.2480209206479649, -3.57358582, -4.817933635438143]}]}, "task_ids": null, "uncorrected_energy_per_atom": null, "energy_per_atom": -5.381811216944444, "formation_energy_per_atom": -0.8368535702777811, "energy_above_hull": 0.0, "is_stable": true, "equilibrium_reaction_energy_per_atom": null, "decomposes_to": null, "xas": null, "grain_boundaries": null, "band_gap": 0.0, "cbm": null, "vbm": null, "efermi": 3.564181849999999, "is_gap_direct": null, "is_metal": null, "es_source_calc_id": null, "bandstructure": null, "dos": null, "dos_energy_up": null, "dos_energy_down": null, "is_magnetic": null, "ordering": null, "total_magnetization": 9e-07, "total_magnetization_normalized_vol": null, "total_magnetization_normalized_formula_units": null, "num_magnetic_sites": null, "num_unique_magnetic_sites": null, "types_of_magnetic_species": null, "bulk_modulus": null, "shear_modulus": null, "universal_anisotropy": null, "homogeneous_poisson": null, "e_total": null, "e_ionic": null, "e_electronic": null, "n": null, "e_ij_max": null, "weighted_surface_energy_EV_PER_ANG2": null, "weighted_surface_energy": null, "weighted_work_function": null, "surface_anisotropy": null, "shape_factor": null, "has_reconstructed": null, "possible_species": null, "has_props": null, "theoretical": null, "database_IDs": null, "fields_not_requested": ["builder_meta", "nsites", "elements", "nelements", "composition", "composition_reduced", "chemsys", "symmetry", "property_name", "deprecated", "deprecation_reasons", "last_updated", "origins", "warnings", "task_ids", "uncorrected_energy_per_atom", "equilibrium_reaction_energy_per_atom", "decomposes_to", "xas", "grain_boundaries", "cbm", "vbm", "is_gap_direct", "is_metal", "es_source_calc_id", "bandstructure", "dos", "dos_energy_up", "dos_energy_down", "is_magnetic", "ordering", "total_magnetization_normalized_vol", "total_magnetization_normalized_formula_units", "num_magnetic_sites", "num_unique_magnetic_sites", "types_of_magnetic_species", "bulk_modulus", "shear_modulus", "universal_anisotropy", "homogeneous_poisson", "e_total", "e_ionic", "e_electronic", "n", "e_ij_max", "weighted_surface_energy_EV_PER_ANG2", "weighted_surface_energy", "weighted_work_function", "surface_anisotropy", "shape_factor", "has_reconstructed", "possible_species", "has_props", "theoretical", "database_IDs"]}