{
  "builder_meta": null,
  "nsites": null,
  "elements": null,
  "nelements": null,
  "composition": null,
  "composition_reduced": null,
  "formula_pretty": "Tm5Ge3",
  "formula_anonymous": "A3B5",
  "chemsys": null,
  "volume": 376.2738705705868,
  "density": 9.378668509024248,
  "density_atomic": 23.517116910661674,
  "symmetry": null,
  "property_name": null,
  "material_id": "mp-1188310",
  "deprecated": null,
  "deprecation_reasons": null,
  "last_updated": null,
  "origins": null,
  "warnings": null,
  "structure": {
    "@module": "pymatgen.core.structure",
    "@class": "Structure",
    "charge": 0,
    "lattice": {
      "matrix": [
        [0.0, 0.0, -6.27987716],
        [-4.15894453, -7.20344427, 0.0],
        [-4.15893941, 7.20343947, 0.0]
      ],
      "pbc": [true, true, true],
      "a": 6.27987716,
      "b": 8.317837997617696,
      "c": 8.317831280688798,
      "alpha": 119.99960786417537,
      "beta": 90.0,
      "gamma": 90.0,
      "volume": 376.2738705705868
    },
    "properties": {},
    "sites": [
      {
        "species": [{ "element": "Tm", "occu": 1 }],
        "abc": [0.50000013, 0.33331975, 0.66667349],
        "properties": { "magmom": -0.0 },
        "label": "Tm",
        "xyz": [-4.158913002166709, 2.4012918882533176, -3.1399393963840305]
      },
      {
        "species": [{ "element": "Tm", "occu": 1 }],
        "abc": [0.50000009, 0.66665076, 0.33332702000000003],
        "properties": { "magmom": -0.0 },
        "label": "Tm",
        "xyz": [-4.158850411618202, -2.401080584927666, -3.1399391451889445]
      },
      {
        "species": [{ "element": "Tm", "occu": 1 }],
        "abc": [1.3e-7, 0.66668025, 0.33332651],
        "properties": { "magmom": -0.0 },
        "label": "Tm",
        "xyz": [-4.158970937833292, -2.4012966882533173, -8.163840308e-7]
      },
      {
        "species": [{ "element": "Tm", "occu": 1 }],
        "abc": [9e-8, 0.33334924, 0.66667298],
        "properties": { "magmom": -0.0 },
        "label": "Tm",
        "xyz": [-4.1590335283818, 2.4010757849276656, -5.651889444e-7]
      },
      {
        "species": [{ "element": "Tm", "occu": 1 }],
        "abc": [0.7500091, 0.24124021, 0.99999863],
        "properties": { "magmom": -0.0 },
        "label": "Tm",
        "xyz": [-5.1622383640485605, 5.465669192869829, -4.709965016882156]
      },
      {
        "species": [{ "element": "Tm", "occu": 1 }],
        "abc": [0.74999584, 0.75873821, 0.75874049],
        "properties": { "magmom": -0.0 },
        "label": "Tm",
        "xyz": [-6.311105854005202, 1.278189858400225e-5, -4.709881745711014]
      },
      {
        "species": [{ "element": "Tm", "occu": 1 }],
        "abc": [0.7499950400000001, 0.9999975, 0.24125524],
        "properties": { "magmom": -0.0 },
        "label": "Tm",
        "xyz": [-5.162300058143684, -5.4655587432290025, -4.7098767218092865]
      },
      {
        "species": [{ "element": "Tm", "occu": 1 }],
        "abc": [0.2500091, 0.75875979, 1.37e-6],
        "properties": { "magmom": -0.0 },
        "label": "Tm",
        "xyz": [-3.1556455759514406, -5.46567399286983, -1.570026436882156]
      },
      {
        "species": [{ "element": "Tm", "occu": 1 }],
        "abc": [0.24999584, 0.24126179, 0.24125951],
        "properties": { "magmom": -0.0 },
        "label": "Tm",
        "xyz": [-2.006778085994798, -1.7581898583474143e-5, -1.5699431657110143]
      },
      {
        "species": [{ "element": "Tm", "occu": 1 }],
        "abc": [0.24999504, 2.499999999999999e-6, 0.75874476],
        "properties": { "magmom": -0.0 },
        "label": "Tm",
        "xyz": [-3.155583881856317, 5.465553943229002, -1.5699381418092864]
      },
      {
        "species": [{ "element": "Ge", "occu": 1 }],
        "abc": [0.74997913, 0.60637836, 0.99999728],
        "properties": { "magmom": 0.0 },
        "label": "Ge",
        "xyz": [-6.680822061117176, 2.8354071538506442, -4.709776808963671]
      },
      {
        "species": [{ "element": "Ge", "occu": 1 }],
        "abc": [0.75001081, 0.3936078, 0.39362216],
        "properties": { "magmom": 0.0 },
        "label": "Ge",
        "xyz": [-3.2740437206486597, 0.00010155207334916483, -4.7099757554721]
      },
      {
        "species": [{ "element": "Ge", "occu": 1 }],
        "abc": [0.7500108600000001, 0.99998168, 0.6063729800000001],
        "properties": { "magmom": 0.0 },
        "label": "Ge",
        "xyz": [-6.680736821817353, -2.835341245227453, -4.709976069465958]
      },
      {
        "species": [{ "element": "Ge", "occu": 1 }],
        "abc": [0.24997913, 0.39362164, 2.72e-6],
        "properties": { "magmom": 0.0 },
        "label": "Ge",
        "xyz": [-1.6370618788828246, -2.8354119538506444, -1.5698382289636708]
      },
      {
        "species": [{ "element": "Ge", "occu": 1 }],
        "abc": [0.25001081, 0.606392199999999, 0.6063778400000001],
        "properties": { "magmom": 0.0 },
        "label": "Ge",
        "xyz": [
          -5.0438402193513365, -0.00010635207334264152, -1.5700371754720996
        ]
      },
      {
        "species": [{ "element": "Ge", "occu": 1 }],
        "abc": [0.25001086, 1.832e-5, 0.39362702],
        "properties": { "magmom": 0.0 },
        "label": "Ge",
        "xyz": [-1.637147118182648, 2.835336445227453, -1.5700374894659577]
      }
    ]
  },
  "task_ids": null,
  "uncorrected_energy_per_atom": null,
  "energy_per_atom": -5.332918398749999,
  "formation_energy_per_atom": -0.797719528125004,
  "energy_above_hull": 0.0,
  "is_stable": true,
  "equilibrium_reaction_energy_per_atom": null,
  "decomposes_to": null,
  "xas": null,
  "grain_boundaries": null,
  "band_gap": 0.0,
  "cbm": null,
  "vbm": null,
  "efermi": 4.23524532,
  "is_gap_direct": null,
  "is_metal": null,
  "es_source_calc_id": null,
  "bandstructure": null,
  "dos": null,
  "dos_energy_up": null,
  "dos_energy_down": null,
  "is_magnetic": null,
  "ordering": null,
  "total_magnetization": 1.2100000000000001e-5,
  "total_magnetization_normalized_vol": null,
  "total_magnetization_normalized_formula_units": null,
  "num_magnetic_sites": null,
  "num_unique_magnetic_sites": null,
  "types_of_magnetic_species": null,
  "bulk_modulus": null,
  "shear_modulus": null,
  "universal_anisotropy": null,
  "homogeneous_poisson": null,
  "e_total": null,
  "e_ionic": null,
  "e_electronic": null,
  "n": null,
  "e_ij_max": null,
  "weighted_surface_energy_EV_PER_ANG2": null,
  "weighted_surface_energy": null,
  "weighted_work_function": null,
  "surface_anisotropy": null,
  "shape_factor": null,
  "has_reconstructed": null,
  "possible_species": null,
  "has_props": null,
  "theoretical": null,
  "database_IDs": null,
  "fields_not_requested": [
    "builder_meta",
    "nsites",
    "elements",
    "nelements",
    "composition",
    "composition_reduced",
    "chemsys",
    "symmetry",
    "property_name",
    "deprecated",
    "deprecation_reasons",
    "last_updated",
    "origins",
    "warnings",
    "task_ids",
    "uncorrected_energy_per_atom",
    "equilibrium_reaction_energy_per_atom",
    "decomposes_to",
    "xas",
    "grain_boundaries",
    "cbm",
    "vbm",
    "is_gap_direct",
    "is_metal",
    "es_source_calc_id",
    "bandstructure",
    "dos",
    "dos_energy_up",
    "dos_energy_down",
    "is_magnetic",
    "ordering",
    "total_magnetization_normalized_vol",
    "total_magnetization_normalized_formula_units",
    "num_magnetic_sites",
    "num_unique_magnetic_sites",
    "types_of_magnetic_species",
    "bulk_modulus",
    "shear_modulus",
    "universal_anisotropy",
    "homogeneous_poisson",
    "e_total",
    "e_ionic",
    "e_electronic",
    "n",
    "e_ij_max",
    "weighted_surface_energy_EV_PER_ANG2",
    "weighted_surface_energy",
    "weighted_work_function",
    "surface_anisotropy",
    "shape_factor",
    "has_reconstructed",
    "possible_species",
    "has_props",
    "theoretical",
    "database_IDs"
  ]
}
