{
  "builder_meta": null,
  "nsites": null,
  "elements": null,
  "nelements": null,
  "composition": null,
  "composition_reduced": null,
  "formula_pretty": "Tm5Ga3",
  "formula_anonymous": "A3B5",
  "chemsys": null,
  "volume": 391.30684171810543,
  "density": 8.944093925315741,
  "density_atomic": 24.45667760738159,
  "symmetry": null,
  "property_name": null,
  "material_id": "mp-1207993",
  "deprecated": null,
  "deprecation_reasons": null,
  "last_updated": null,
  "origins": null,
  "warnings": null,
  "structure": {
    "@module": "pymatgen.core.structure",
    "@class": "Structure",
    "charge": 0,
    "lattice": {
      "matrix": [
        [7.2724949, 4.21659602, 0.0048800300000000005],
        [-7.2724949, 4.21659602, 0.0048800300000000005],
        [0.0, 0.19185704, 6.38053565]
      ],
      "pbc": [true, true, true],
      "a": 8.406478922896236,
      "b": 8.406478922896236,
      "c": 6.3834194836872875,
      "alpha": 89.10295419810163,
      "beta": 89.10295419810163,
      "gamma": 119.78961017333323,
      "volume": 391.30684171810543
    },
    "properties": {},
    "sites": [
      {
        "species": [{ "element": "Tm", "occu": 1 }],
        "abc": [0.8533936, 0.1466064, 0.5],
        "properties": { "magmom": -0.0 },
        "label": "Tm",
        "xyz": [5.140106307385279, 4.31252454, 3.1951478549999996]
      },
      {
        "species": [{ "element": "Tm", "occu": 1 }],
        "abc": [0.1466064, 0.8533936, 0.5],
        "properties": { "magmom": -0.0 },
        "label": "Tm",
        "xyz": [-5.140106307385279, 4.31252454, 3.1951478549999996]
      },
      {
        "species": [{ "element": "Tm", "occu": 1 }],
        "abc": [0.81452221, 0.18547779, -0.0],
        "properties": { "magmom": -0.0 },
        "label": "Tm",
        "xyz": [4.5747223363234575, 4.21659602, 0.0048800300000000005]
      },
      {
        "species": [{ "element": "Tm", "occu": 1 }],
        "abc": [0.18547779, 0.81452221, -0.0],
        "properties": { "magmom": -0.0 },
        "label": "Tm",
        "xyz": [-4.5747223363234575, 4.21659602, 0.0048800300000000005]
      },
      {
        "species": [{ "element": "Tm", "occu": 1 }],
        "abc": [0.5052602900000001, 0.74601502, 0.26495267],
        "properties": { "magmom": -0.0 },
        "label": "Tm",
        "xyz": [-1.7508875460758762, 5.326955527076563, 1.696646217548745]
      },
      {
        "species": [{ "element": "Tm", "occu": 1 }],
        "abc": [0.49473971, 0.25398498, 0.73504733],
        "properties": { "magmom": -0.0 },
        "label": "Tm",
        "xyz": [1.750887546075877, 3.2980935529234365, 4.693649492451255]
      },
      {
        "species": [{ "element": "Tm", "occu": 1 }],
        "abc": [0.25398498, 0.49473971, 0.73504733],
        "properties": { "magmom": -0.0 },
        "label": "Tm",
        "xyz": [-1.750887546075877, 3.2980935529234365, 4.693649492451255]
      },
      {
        "species": [{ "element": "Tm", "occu": 1 }],
        "abc": [0.74601502, 0.5052602900000001, 0.26495267],
        "properties": { "magmom": -0.0 },
        "label": "Tm",
        "xyz": [1.7508875460758762, 5.326955527076563, 1.696646217548745]
      },
      {
        "species": [{ "element": "Tm", "occu": 1 }],
        "abc": [0.26863399, 0.26863399, 0.22535159000000002],
        "properties": { "magmom": -0.0 },
        "label": "Tm",
        "xyz": [0.0, 2.3086773151581332, 1.440485737639623]
      },
      {
        "species": [{ "element": "Tm", "occu": 1 }],
        "abc": [0.73136601, 0.73136601, 0.7746484100000001],
        "properties": { "magmom": -0.0 },
        "label": "Tm",
        "xyz": [0.0, 6.3163717648418665, 4.949809972360378]
      },
      {
        "species": [{ "element": "Ga", "occu": 1 }],
        "abc": [0.90964977, 0.90964977, 0.18702846],
        "properties": { "magmom": -0.0 },
        "label": "Ga",
        "xyz": [0.0, 7.7071339262831895, 1.2022199929287851]
      },
      {
        "species": [{ "element": "Ga", "occu": 1 }],
        "abc": [0.09035023, 0.09035023, 0.81297154],
        "properties": { "magmom": -0.0 },
        "label": "Ga",
        "xyz": [0.0, 0.9179151537168109, 5.188075717071214]
      },
      {
        "species": [{ "element": "Ga", "occu": 1 }],
        "abc": [0.50194198, 0.09743366, 0.28946763000000003],
        "properties": { "magmom": -0.0 },
        "label": "Ga",
        "xyz": [2.941784694207568, 2.5828613407765677, 1.8498835038404788]
      },
      {
        "species": [{ "element": "Ga", "occu": 1 }],
        "abc": [0.49805802, 0.90256634, 0.71053237],
        "properties": { "magmom": -0.0 },
        "label": "Ga",
        "xyz": [-2.941784694207568, 6.042187739223432, 4.540412206159521]
      },
      {
        "species": [{ "element": "Ga", "occu": 1 }],
        "abc": [0.90256634, 0.49805802, 0.71053237],
        "properties": { "magmom": -0.0 },
        "label": "Ga",
        "xyz": [2.941784694207568, 6.042187739223432, 4.540412206159521]
      },
      {
        "species": [{ "element": "Ga", "occu": 1 }],
        "abc": [0.09743366, 0.50194198, 0.28946763000000003],
        "properties": { "magmom": -0.0 },
        "label": "Ga",
        "xyz": [-2.941784694207568, 2.5828613407765677, 1.8498835038404788]
      }
    ]
  },
  "task_ids": null,
  "uncorrected_energy_per_atom": null,
  "energy_per_atom": -26.83621143625,
  "formation_energy_per_atom": -0.594515273750001,
  "energy_above_hull": 0.011204546406247,
  "is_stable": false,
  "equilibrium_reaction_energy_per_atom": null,
  "decomposes_to": null,
  "xas": null,
  "grain_boundaries": null,
  "band_gap": 0.0,
  "cbm": null,
  "vbm": null,
  "efermi": 2.93604148,
  "is_gap_direct": null,
  "is_metal": null,
  "es_source_calc_id": null,
  "bandstructure": null,
  "dos": null,
  "dos_energy_up": null,
  "dos_energy_down": null,
  "is_magnetic": null,
  "ordering": null,
  "total_magnetization": 8.43e-5,
  "total_magnetization_normalized_vol": null,
  "total_magnetization_normalized_formula_units": null,
  "num_magnetic_sites": null,
  "num_unique_magnetic_sites": null,
  "types_of_magnetic_species": null,
  "bulk_modulus": null,
  "shear_modulus": null,
  "universal_anisotropy": null,
  "homogeneous_poisson": null,
  "e_total": null,
  "e_ionic": null,
  "e_electronic": null,
  "n": null,
  "e_ij_max": null,
  "weighted_surface_energy_EV_PER_ANG2": null,
  "weighted_surface_energy": null,
  "weighted_work_function": null,
  "surface_anisotropy": null,
  "shape_factor": null,
  "has_reconstructed": null,
  "possible_species": null,
  "has_props": null,
  "theoretical": null,
  "database_IDs": null,
  "fields_not_requested": [
    "builder_meta",
    "nsites",
    "elements",
    "nelements",
    "composition",
    "composition_reduced",
    "chemsys",
    "symmetry",
    "property_name",
    "deprecated",
    "deprecation_reasons",
    "last_updated",
    "origins",
    "warnings",
    "task_ids",
    "uncorrected_energy_per_atom",
    "equilibrium_reaction_energy_per_atom",
    "decomposes_to",
    "xas",
    "grain_boundaries",
    "cbm",
    "vbm",
    "is_gap_direct",
    "is_metal",
    "es_source_calc_id",
    "bandstructure",
    "dos",
    "dos_energy_up",
    "dos_energy_down",
    "is_magnetic",
    "ordering",
    "total_magnetization_normalized_vol",
    "total_magnetization_normalized_formula_units",
    "num_magnetic_sites",
    "num_unique_magnetic_sites",
    "types_of_magnetic_species",
    "bulk_modulus",
    "shear_modulus",
    "universal_anisotropy",
    "homogeneous_poisson",
    "e_total",
    "e_ionic",
    "e_electronic",
    "n",
    "e_ij_max",
    "weighted_surface_energy_EV_PER_ANG2",
    "weighted_surface_energy",
    "weighted_work_function",
    "surface_anisotropy",
    "shape_factor",
    "has_reconstructed",
    "possible_species",
    "has_props",
    "theoretical",
    "database_IDs"
  ]
}
