{
  "builder_meta": null,
  "nsites": null,
  "elements": null,
  "nelements": null,
  "composition": null,
  "composition_reduced": null,
  "formula_pretty": "Tm5In3",
  "formula_anonymous": "A3B5",
  "chemsys": null,
  "volume": 451.784185771767,
  "density": 8.741291363373236,
  "density_atomic": 28.236511610735437,
  "symmetry": null,
  "property_name": null,
  "material_id": "mp-1188632",
  "deprecated": null,
  "deprecation_reasons": null,
  "last_updated": null,
  "origins": null,
  "warnings": null,
  "structure": {
    "@module": "pymatgen.core.structure",
    "@class": "Structure",
    "charge": 0,
    "lattice": {
      "matrix": [
        [0.0, 0.0, -6.573058],
        [-4.448857999999999, -7.705648, 0.0],
        [-4.46541, 7.715204, 0.0]
      ],
      "pbc": [true, true, true],
      "a": 6.573058,
      "b": 8.897715920620751,
      "c": 8.914272781877163,
      "alpha": 119.93857606006995,
      "beta": 90.0,
      "gamma": 90.0,
      "volume": 451.7841857717669
    },
    "properties": {},
    "sites": [
      {
        "species": [{ "element": "Tm", "occu": 1 }],
        "abc": [0.500001, 0.333326, 0.666639],
        "properties": { "magmom": 0.007 },
        "label": "Tm",
        "xyz": [-4.459736498698, 2.5747630541079993, -3.286535573058]
      },
      {
        "species": [{ "element": "Tm", "occu": 1 }],
        "abc": [0.500001, 0.666686999999999, 0.333360999999999],
        "properties": { "magmom": -0.007 },
        "label": "Tm",
        "xyz": [-4.4545893364559905, -2.565307227532, -3.286535573058]
      },
      {
        "species": [{ "element": "Tm", "occu": 1 }],
        "abc": [1e-6, 0.666674, 0.333360999999999],
        "properties": { "magmom": -0.007 },
        "label": "Tm",
        "xyz": [-4.454531501301995, -2.565207054108008, -6.573057999999999e-6]
      },
      {
        "species": [{ "element": "Tm", "occu": 1 }],
        "abc": [1e-6, 0.333312999999999, 0.666639],
        "properties": { "magmom": 0.007 },
        "label": "Tm",
        "xyz": [-4.459678663543995, 2.574863227532007, -6.573057999999999e-6]
      },
      {
        "species": [{ "element": "Tm", "occu": 1 }],
        "abc": [0.750004999999999, 0.243321999999999, 0.0],
        "properties": { "magmom": 0.0 },
        "label": "Tm",
        "xyz": [-1.0825050262759952, -1.8749536826559925, -4.929826365289993]
      },
      {
        "species": [{ "element": "Tm", "occu": 1 }],
        "abc": [0.749996999999999, 0.756398999999999, 0.756555],
        "properties": { "magmom": -0.0 },
        "label": "Tm",
        "xyz": [-6.743440004891995, 0.008431720668007792, -4.929773780825993]
      },
      {
        "species": [{ "element": "Tm", "occu": 1 }],
        "abc": [0.749996999999999, 0.999844, 0.243445],
        "properties": { "magmom": 0.0 },
        "label": "Tm",
        "xyz": [-5.535245715601999, -5.826218081132, -4.929773780825993]
      },
      {
        "species": [{ "element": "Tm", "occu": 1 }],
        "abc": [0.250005, 0.756678, 0.0],
        "properties": { "magmom": 0.0 },
        "label": "Tm",
        "xyz": [-3.3663529737239988, -5.830694317343999, -1.6432973652899998]
      },
      {
        "species": [{ "element": "Tm", "occu": 1 }],
        "abc": [0.249997, 0.243600999999999, 0.243445],
        "properties": { "magmom": -0.0 },
        "label": "Tm",
        "xyz": [-2.170827995107995, 0.0011242793320074274, -1.6432447808259998]
      },
      {
        "species": [{ "element": "Tm", "occu": 1 }],
        "abc": [0.249997, 0.000156, 0.756555],
        "properties": { "magmom": -0.0 },
        "label": "Tm",
        "xyz": [-3.3790222843980002, 5.8357740811320005, -1.6432447808259998]
      },
      {
        "species": [{ "element": "In", "occu": 1 }],
        "abc": [0.75, 0.602013999999999, 0.0],
        "properties": { "magmom": 0.0 },
        "label": "In",
        "xyz": [-2.678274800011995, -4.638907975071993, -4.9297935]
      },
      {
        "species": [{ "element": "In", "occu": 1 }],
        "abc": [0.749999, 0.397634999999999, 0.39780000000000004],
        "properties": { "magmom": -0.0 },
        "label": "In",
        "xyz": [-3.5453617488299956, 0.005072808720008037, -4.929786926942]
      },
      {
        "species": [{ "element": "In", "occu": 1 }],
        "abc": [0.749999, 0.999836, 0.6022000000000001],
        "properties": { "magmom": 0.0 },
        "label": "In",
        "xyz": [-7.1371982892879995, -3.0582884249279987, -4.929786926942]
      },
      {
        "species": [{ "element": "In", "occu": 1 }],
        "abc": [0.25, 0.397986, 0.0],
        "properties": { "magmom": 0.0 },
        "label": "In",
        "xyz": [-1.7705831999879995, -3.066740024928, -1.6432645]
      },
      {
        "species": [{ "element": "In", "occu": 1 }],
        "abc": [0.249999, 0.602364999999999, 0.6022000000000001],
        "properties": { "magmom": 0.0 },
        "label": "In",
        "xyz": [-5.368906251169996, 0.004483191280008292, -1.6432579269419998]
      },
      {
        "species": [{ "element": "In", "occu": 1 }],
        "abc": [0.249999, 0.000164, 0.39780000000000004],
        "properties": { "magmom": -0.0 },
        "label": "In",
        "xyz": [-1.7770697107120004, 3.0678444249280004, -1.6432579269419998]
      }
    ]
  },
  "task_ids": null,
  "uncorrected_energy_per_atom": null,
  "energy_per_atom": -30.891186405624996,
  "formation_energy_per_atom": -0.47355983187499706,
  "energy_above_hull": 0.014081446041668002,
  "is_stable": false,
  "equilibrium_reaction_energy_per_atom": null,
  "decomposes_to": null,
  "xas": null,
  "grain_boundaries": null,
  "band_gap": 0.0,
  "cbm": null,
  "vbm": null,
  "efermi": 4.312165,
  "is_gap_direct": null,
  "is_metal": null,
  "es_source_calc_id": null,
  "bandstructure": null,
  "dos": null,
  "dos_energy_up": null,
  "dos_energy_down": null,
  "is_magnetic": null,
  "ordering": null,
  "total_magnetization": 0.0009383,
  "total_magnetization_normalized_vol": null,
  "total_magnetization_normalized_formula_units": null,
  "num_magnetic_sites": null,
  "num_unique_magnetic_sites": null,
  "types_of_magnetic_species": null,
  "bulk_modulus": null,
  "shear_modulus": null,
  "universal_anisotropy": null,
  "homogeneous_poisson": null,
  "e_total": null,
  "e_ionic": null,
  "e_electronic": null,
  "n": null,
  "e_ij_max": null,
  "weighted_surface_energy_EV_PER_ANG2": null,
  "weighted_surface_energy": null,
  "weighted_work_function": null,
  "surface_anisotropy": null,
  "shape_factor": null,
  "has_reconstructed": null,
  "possible_species": null,
  "has_props": null,
  "theoretical": null,
  "database_IDs": null,
  "fields_not_requested": [
    "builder_meta",
    "nsites",
    "elements",
    "nelements",
    "composition",
    "composition_reduced",
    "chemsys",
    "symmetry",
    "property_name",
    "deprecated",
    "deprecation_reasons",
    "last_updated",
    "origins",
    "warnings",
    "task_ids",
    "uncorrected_energy_per_atom",
    "equilibrium_reaction_energy_per_atom",
    "decomposes_to",
    "xas",
    "grain_boundaries",
    "cbm",
    "vbm",
    "is_gap_direct",
    "is_metal",
    "es_source_calc_id",
    "bandstructure",
    "dos",
    "dos_energy_up",
    "dos_energy_down",
    "is_magnetic",
    "ordering",
    "total_magnetization_normalized_vol",
    "total_magnetization_normalized_formula_units",
    "num_magnetic_sites",
    "num_unique_magnetic_sites",
    "types_of_magnetic_species",
    "bulk_modulus",
    "shear_modulus",
    "universal_anisotropy",
    "homogeneous_poisson",
    "e_total",
    "e_ionic",
    "e_electronic",
    "n",
    "e_ij_max",
    "weighted_surface_energy_EV_PER_ANG2",
    "weighted_surface_energy",
    "weighted_work_function",
    "surface_anisotropy",
    "shape_factor",
    "has_reconstructed",
    "possible_species",
    "has_props",
    "theoretical",
    "database_IDs"
  ]
}
