{"builder_meta": null, "nsites": null, "elements": null, "nelements": null, "composition": null, "composition_reduced": null, "formula_pretty": "Tm5Ir2", "formula_anonymous": "A2B5", "chemsys": null, "volume": 353.11942623733694, "density": 11.559697942579769, "density_atomic": 25.22281615980978, "symmetry": null, "property_name": null, "material_id": "mp-1105081", "deprecated": null, "deprecation_reasons": null, "last_updated": null, "origins": null, "warnings": null, "structure": {"@module": "pymatgen.core.structure", "@class": "Structure", "charge": 0, "lattice": {"matrix": [[0.0, 6.444629, 0.0], [0.000176, 0.0, 7.165519], [7.646712, -3.222314, -0.934373999999999]], "pbc": [true, true, true], "a": 6.444629, "b": 7.165519002161462, "c": 8.350363267392384, "alpha": 96.42333846263914, "beta": 112.69894653840691, "gamma": 90.0, "volume": 353.11942623733694}, "properties": {}, "sites": [{"species": [{"element": "Tm", "occu": 1}], "abc": [0.969762999999999, 0.919153999999999, 0.181457999999999], "properties": {"magmom": 0.002}, "label": "Tm", "xyz": [1.3877188371999924, 5.665048099114998, 6.416665813633994]}, {"species": [{"element": "Tm", "occu": 1}], "abc": [0.788304, 0.580846, 0.818542], "properties": {"magmom": 0.002}, "label": "Tm", "xyz": [6.2592571628, 2.4427274730280004, 3.3972386863660007]}, {"species": [{"element": "Tm", "occu": 1}], "abc": [0.030237, 0.080846, 0.818542], "properties": {"magmom": 0.002}, "label": "Tm", "xyz": [6.2591691628, -2.442733099115, -0.1855208136339993]}, {"species": [{"element": "Tm", "occu": 1}], "abc": [0.211696, 0.419153999999999, 0.181457999999999], "properties": {"magmom": 0.002}, "label": "Tm", "xyz": [1.3876308371999924, 0.7795875269720031, 2.833906313633994]}, {"species": [{"element": "Tm", "occu": 1}], "abc": [0.654048, 0.818712, 0.443104], "properties": {"magmom": 0.002}, "label": "Tm", "xyz": [3.38843276736, 2.787276485536, 5.452471534632]}, {"species": [{"element": "Tm", "occu": 1}], "abc": [0.210944, 0.681288, 0.556896], "properties": {"magmom": 0.002}, "label": "Tm", "xyz": [4.258543232639999, -0.4350379575679999, 4.361432965368]}, {"species": [{"element": "Tm", "occu": 1}], "abc": [0.345952, 0.181288, 0.556896], "properties": {"magmom": 0.002}, "label": "Tm", "xyz": [4.258455232639999, 0.4350385144640001, 0.7786734653680006]}, {"species": [{"element": "Tm", "occu": 1}], "abc": [0.789056, 0.318712, 0.443104], "properties": {"magmom": 0.002}, "label": "Tm", "xyz": [3.38834476736, 3.6573529575679995, 1.8697120346320006]}, {"species": [{"element": "Tm", "occu": 1}], "abc": [0.426681, 0.75, 0.0], "properties": {"magmom": 0.002}, "label": "Tm", "xyz": [0.000132, 2.749800746349, 5.37413925]}, {"species": [{"element": "Tm", "occu": 1}], "abc": [0.573319, 0.25, 0.0], "properties": {"magmom": 0.001}, "label": "Tm", "xyz": [4.4e-05, 3.694828253651, 1.79137975]}, {"species": [{"element": "Ir", "occu": 1}], "abc": [0.82811, 0.573149, 0.218258999999999], "properties": {"magmom": -0.0}, "label": "Ir", "xyz": [1.6690645886319926, 4.633562689864004, 3.9029745144650008]}, {"species": [{"element": "Ir", "occu": 1}], "abc": [0.609850999999999, 0.926851, 0.781741], "properties": {"magmom": -0.0}, "label": "Ir", "xyz": [5.977911411368, 1.4112484716049938, 5.910929985535001]}, {"species": [{"element": "Ir", "occu": 1}], "abc": [0.171891, 0.426851, 0.781741], "properties": {"magmom": -0.0}, "label": "Ir", "xyz": [5.977823411368, -1.411241245235, 2.3281704855350007]}, {"species": [{"element": "Ir", "occu": 1}], "abc": [0.390148999999999, 0.073148999999999, 0.218258999999999], "properties": {"magmom": -0.0}, "label": "Ir", "xyz": [1.6689765886319925, 1.811066528394997, 0.32021501446499395]}]}, "task_ids": null, "uncorrected_energy_per_atom": null, "energy_per_atom": -6.438558371428571, "formation_energy_per_atom": -0.7115046914285751, "energy_above_hull": 0.0, "is_stable": true, "equilibrium_reaction_energy_per_atom": null, "decomposes_to": null, "xas": null, "grain_boundaries": null, "band_gap": 0.0, "cbm": null, "vbm": null, "efermi": 4.09940575, "is_gap_direct": null, "is_metal": null, "es_source_calc_id": null, "bandstructure": null, "dos": null, "dos_energy_up": null, "dos_energy_down": null, "is_magnetic": null, "ordering": null, "total_magnetization": 0.036515399999999004, "total_magnetization_normalized_vol": null, "total_magnetization_normalized_formula_units": null, "num_magnetic_sites": null, "num_unique_magnetic_sites": null, "types_of_magnetic_species": null, "bulk_modulus": null, "shear_modulus": null, "universal_anisotropy": null, "homogeneous_poisson": null, "e_total": null, "e_ionic": null, "e_electronic": null, "n": null, "e_ij_max": null, "weighted_surface_energy_EV_PER_ANG2": null, "weighted_surface_energy": null, "weighted_work_function": null, "surface_anisotropy": null, "shape_factor": null, "has_reconstructed": null, "possible_species": null, "has_props": null, "theoretical": null, "database_IDs": null, "fields_not_requested": ["builder_meta", "nsites", "elements", "nelements", "composition", "composition_reduced", "chemsys", "symmetry", "property_name", "deprecated", "deprecation_reasons", "last_updated", "origins", "warnings", "task_ids", "uncorrected_energy_per_atom", "equilibrium_reaction_energy_per_atom", "decomposes_to", "xas", "grain_boundaries", "cbm", "vbm", "is_gap_direct", "is_metal", "es_source_calc_id", "bandstructure", "dos", "dos_energy_up", "dos_energy_down", "is_magnetic", "ordering", "total_magnetization_normalized_vol", "total_magnetization_normalized_formula_units", "num_magnetic_sites", "num_unique_magnetic_sites", "types_of_magnetic_species", "bulk_modulus", "shear_modulus", "universal_anisotropy", "homogeneous_poisson", "e_total", "e_ionic", "e_electronic", "n", "e_ij_max", "weighted_surface_energy_EV_PER_ANG2", "weighted_surface_energy", "weighted_work_function", "surface_anisotropy", "shape_factor", "has_reconstructed", "possible_species", "has_props", "theoretical", "database_IDs"]}