{"builder_meta": null, "nsites": null, "elements": null, "nelements": null, "composition": null, "composition_reduced": null, "formula_pretty": "Tm5In4", "formula_anonymous": "A4B5", "chemsys": null, "volume": 472.2991933885318, "density": 9.168969185028182, "density_atomic": 26.238844077140655, "symmetry": null, "property_name": null, "material_id": "mp-1208206", "deprecated": null, "deprecation_reasons": null, "last_updated": null, "origins": null, "warnings": null, "structure": {"@module": "pymatgen.core.structure", "@class": "Structure", "charge": 0, "lattice": {"matrix": [[0.0, 0.0, -6.55069558], [-4.56209365, -7.90187508, 0.0], [-4.5621795, 7.90192415, -0.0]], "pbc": [true, true, true], "a": 6.55069558, "b": 9.124271381940332, "c": 9.124356802677847, "alpha": 120.00029686948773, "beta": 90.0, "gamma": 90.0, "volume": 472.2991933885318}, "properties": {}, "sites": [{"species": [{"element": "Tm", "occu": 1}], "abc": [0.0, 0.666667, 0.333333], "properties": {"magmom": 0.0}, "label": "Tm", "xyz": [-4.56212226663805, -2.6339472712664103, 0.0]}, {"species": [{"element": "Tm", "occu": 1}], "abc": [-0.0, 0.333333, 0.666667], "properties": {"magmom": 0.0}, "label": "Tm", "xyz": [-4.56215088336195, 2.63399634126641, 0.0]}, {"species": [{"element": "Tm", "occu": 1}], "abc": [0.5, 0.333333, 0.666667], "properties": {"magmom": 0.0}, "label": "Tm", "xyz": [-4.56215088336195, 2.63399634126641, -3.27534779]}, {"species": [{"element": "Tm", "occu": 1}], "abc": [0.5, 0.666667, 0.333333], "properties": {"magmom": 0.0}, "label": "Tm", "xyz": [-4.56212226663805, -2.6339472712664103, -3.27534779]}, {"species": [{"element": "Tm", "occu": 1}], "abc": [0.75, 0.71103807, 0.71103807], "properties": {"magmom": 0.0}, "label": "Tm", "xyz": [-6.487705570728821, 3.4890638095141924e-05, -4.913021685]}, {"species": [{"element": "Tm", "occu": 1}], "abc": [0.25, 0.28896193000000003, 0.28896193000000003], "properties": {"magmom": 0.0}, "label": "Tm", "xyz": [-2.63656757927118, 1.4179361905064525e-05, -1.637673895]}, {"species": [{"element": "Tm", "occu": 1}], "abc": [0.75, -0.0, 0.28896193000000003], "properties": {"magmom": 0.0}, "label": "Tm", "xyz": [-1.3182961933264352, 2.28335525309761, -4.913021685]}, {"species": [{"element": "Tm", "occu": 1}], "abc": [0.25, 0.0, 0.71103807], "properties": {"magmom": 0.0}, "label": "Tm", "xyz": [-3.243883306673565, 5.61856889690239, -1.637673895]}, {"species": [{"element": "Tm", "occu": 1}], "abc": [0.75, 0.28896193000000003, 0.0], "properties": {"magmom": 0.0}, "label": "Tm", "xyz": [-1.3182713859447446, -2.2833410737357047, -4.913021685]}, {"species": [{"element": "Tm", "occu": 1}], "abc": [0.25, 0.71103807, -0.0], "properties": {"magmom": 0.0}, "label": "Tm", "xyz": [-3.243822264055255, -5.618534006264295, -1.637673895]}, {"species": [{"element": "In", "occu": 1}], "abc": [-0.0, 0.0, 0.0], "properties": {"magmom": 0.0}, "label": "In", "xyz": [0.0, 0.0, 0.0]}, {"species": [{"element": "In", "occu": 1}], "abc": [0.5, 0.0, 0.0], "properties": {"magmom": 0.0}, "label": "In", "xyz": [0.0, 0.0, -3.27534779]}, {"species": [{"element": "In", "occu": 1}], "abc": [0.75, 0.37274497, 0.37274497], "properties": {"magmom": -0.0}, "label": "In", "xyz": [-3.4010269215685556, 1.8290595678038812e-05, -4.913021685]}, {"species": [{"element": "In", "occu": 1}], "abc": [0.25, 0.62725503, 0.62725503], "properties": {"magmom": -0.0}, "label": "In", "xyz": [-5.723246228431445, 3.0779404322167636e-05, -1.637673895]}, {"species": [{"element": "In", "occu": 1}], "abc": [0.75, 0.0, 0.62725403], "properties": {"magmom": -0.0}, "label": "In", "xyz": [-2.861645476958385, 4.956513767841825, -4.913021685]}, {"species": [{"element": "In", "occu": 1}], "abc": [0.25, -0.0, 0.37274597], "properties": {"magmom": -0.0}, "label": "In", "xyz": [-1.7005340230416148, 2.9454103821581756, -1.637673895]}, {"species": [{"element": "In", "occu": 1}], "abc": [0.75, 0.62725503, -0.0], "properties": {"magmom": -0.0}, "label": "In", "xyz": [-2.8615961892935595, -4.9564908903616525, -4.913021685]}, {"species": [{"element": "In", "occu": 1}], "abc": [0.25, 0.37274497, 0.0], "properties": {"magmom": -0.0}, "label": "In", "xyz": [-1.7004974607064405, -2.9453841896383475, -1.637673895]}]}, "task_ids": null, "uncorrected_energy_per_atom": null, "energy_per_atom": -30.084580621111108, "formation_energy_per_atom": -0.5379580688888831, "energy_above_hull": 0.0, "is_stable": true, "equilibrium_reaction_energy_per_atom": null, "decomposes_to": null, "xas": null, "grain_boundaries": null, "band_gap": 0.0, "cbm": null, "vbm": null, "efermi": 5.2029248, "is_gap_direct": null, "is_metal": null, "es_source_calc_id": null, "bandstructure": null, "dos": null, "dos_energy_up": null, "dos_energy_down": null, "is_magnetic": null, "ordering": null, "total_magnetization": 0.00018769999999900002, "total_magnetization_normalized_vol": null, "total_magnetization_normalized_formula_units": null, "num_magnetic_sites": null, "num_unique_magnetic_sites": null, "types_of_magnetic_species": null, "bulk_modulus": null, "shear_modulus": null, "universal_anisotropy": null, "homogeneous_poisson": null, "e_total": null, "e_ionic": null, "e_electronic": null, "n": null, "e_ij_max": null, "weighted_surface_energy_EV_PER_ANG2": null, "weighted_surface_energy": null, "weighted_work_function": null, "surface_anisotropy": null, "shape_factor": null, "has_reconstructed": null, "possible_species": null, "has_props": null, "theoretical": null, "database_IDs": null, "fields_not_requested": ["builder_meta", "nsites", "elements", "nelements", "composition", "composition_reduced", "chemsys", "symmetry", "property_name", "deprecated", "deprecation_reasons", "last_updated", "origins", "warnings", "task_ids", "uncorrected_energy_per_atom", "equilibrium_reaction_energy_per_atom", "decomposes_to", "xas", "grain_boundaries", "cbm", "vbm", "is_gap_direct", "is_metal", "es_source_calc_id", "bandstructure", "dos", "dos_energy_up", "dos_energy_down", "is_magnetic", "ordering", "total_magnetization_normalized_vol", "total_magnetization_normalized_formula_units", "num_magnetic_sites", "num_unique_magnetic_sites", "types_of_magnetic_species", "bulk_modulus", "shear_modulus", "universal_anisotropy", "homogeneous_poisson", "e_total", "e_ionic", "e_electronic", "n", "e_ij_max", "weighted_surface_energy_EV_PER_ANG2", "weighted_surface_energy", "weighted_work_function", "surface_anisotropy", "shape_factor", "has_reconstructed", "possible_species", "has_props", "theoretical", "database_IDs"]}