{"builder_meta": null, "nsites": null, "elements": null, "nelements": null, "composition": null, "composition_reduced": null, "formula_pretty": "Tm5Mg", "formula_anonymous": "AB5", "chemsys": null, "volume": 175.69871530687226, "density": 8.212744620497032, "density_atomic": 29.283119217812043, "symmetry": null, "property_name": null, "material_id": "mp-1187658", "deprecated": null, "deprecation_reasons": null, "last_updated": null, "origins": null, "warnings": null, "structure": {"@module": "pymatgen.core.structure", "@class": "Structure", "charge": 0, "lattice": {"matrix": [[1.7653016400000001, -9.02627526, 0.0], [1.7653016400000001, 9.02627526, 0.0], [0.0, 0.0, 5.51329324]], "pbc": [true, true, true], "a": 9.197278670861003, "b": 9.197278670861003, "c": 5.51329324, "alpha": 90.0, "beta": 90.0, "gamma": 157.868260893624, "volume": 175.6987153068723}, "properties": {}, "sites": [{"species": [{"element": "Tm", "occu": 1}], "abc": [3.4590000000000006e-05, -3.4590000000000006e-05, -0.0], "properties": {"magmom": 0.137}, "label": "Tm", "xyz": [0.0, -0.0006244377224868001, 0.0]}, {"species": [{"element": "Tm", "occu": 1}], "abc": [0.67055045, 0.32944955, -0.0], "properties": {"magmom": 0.35000000000000003}, "label": "Tm", "xyz": [1.7653016400000001, -3.0788706148337344, 0.0]}, {"species": [{"element": "Tm", "occu": 1}], "abc": [0.33300713, 0.66699287, 0.0], "properties": {"magmom": 0.088}, "label": "Tm", "xyz": [1.7653016400000001, 3.0146472221547924, 0.0]}, {"species": [{"element": "Tm", "occu": 1}], "abc": [0.55333687, 0.44666313, 0.5], "properties": {"magmom": 0.301}, "label": "Tm", "xyz": [1.7653016400000001, -0.9628665402536729, 2.75664662]}, {"species": [{"element": "Tm", "occu": 1}], "abc": [0.88636926, 0.11363074000000001, 0.5], "properties": {"magmom": 0.194}, "label": "Tm", "xyz": [1.7653016400000003, -6.974950585525016, 2.75664662]}, {"species": [{"element": "Mg", "occu": 1}], "abc": [0.2233687, 0.776631299999999, 0.5], "properties": {"magmom": 0.018000000000000002}, "label": "Mg", "xyz": [1.7653016399999983, 4.993900518663267, 2.75664662]}]}, "task_ids": null, "uncorrected_energy_per_atom": null, "energy_per_atom": -29.947237873333332, "formation_energy_per_atom": 0.015186299166667002, "energy_above_hull": 0.042801100833333, "is_stable": false, "equilibrium_reaction_energy_per_atom": null, "decomposes_to": null, "xas": null, "grain_boundaries": null, "band_gap": 0.0, "cbm": null, "vbm": null, "efermi": 2.88509538, "is_gap_direct": null, "is_metal": null, "es_source_calc_id": null, "bandstructure": null, "dos": null, "dos_energy_up": null, "dos_energy_down": null, "is_magnetic": null, "ordering": null, "total_magnetization": 1.3871133, "total_magnetization_normalized_vol": null, "total_magnetization_normalized_formula_units": null, "num_magnetic_sites": null, "num_unique_magnetic_sites": null, "types_of_magnetic_species": null, "bulk_modulus": null, "shear_modulus": null, "universal_anisotropy": null, "homogeneous_poisson": null, "e_total": null, "e_ionic": null, "e_electronic": null, "n": null, "e_ij_max": null, "weighted_surface_energy_EV_PER_ANG2": null, "weighted_surface_energy": null, "weighted_work_function": null, "surface_anisotropy": null, "shape_factor": null, "has_reconstructed": null, "possible_species": null, "has_props": null, "theoretical": null, "database_IDs": null, "fields_not_requested": ["builder_meta", "nsites", "elements", "nelements", "composition", "composition_reduced", "chemsys", "symmetry", "property_name", "deprecated", "deprecation_reasons", "last_updated", "origins", "warnings", "task_ids", "uncorrected_energy_per_atom", "equilibrium_reaction_energy_per_atom", "decomposes_to", "xas", "grain_boundaries", "cbm", "vbm", "is_gap_direct", "is_metal", "es_source_calc_id", "bandstructure", "dos", "dos_energy_up", "dos_energy_down", "is_magnetic", "ordering", "total_magnetization_normalized_vol", "total_magnetization_normalized_formula_units", "num_magnetic_sites", "num_unique_magnetic_sites", "types_of_magnetic_species", "bulk_modulus", "shear_modulus", "universal_anisotropy", "homogeneous_poisson", "e_total", "e_ionic", "e_electronic", "n", "e_ij_max", "weighted_surface_energy_EV_PER_ANG2", "weighted_surface_energy", "weighted_work_function", "surface_anisotropy", "shape_factor", "has_reconstructed", "possible_species", "has_props", "theoretical", "database_IDs"]}