{
  "builder_meta": null,
  "nsites": null,
  "elements": null,
  "nelements": null,
  "composition": null,
  "composition_reduced": null,
  "formula_pretty": "Tm5Pb3",
  "formula_anonymous": "A3B5",
  "chemsys": null,
  "volume": 443.7424253446942,
  "density": 10.973935425977244,
  "density_atomic": 27.733901584043387,
  "symmetry": null,
  "property_name": null,
  "material_id": "mp-1189518",
  "deprecated": null,
  "deprecation_reasons": null,
  "last_updated": null,
  "origins": null,
  "warnings": null,
  "structure": {
    "@module": "pymatgen.core.structure",
    "@class": "Structure",
    "charge": 0.0,
    "lattice": {
      "matrix": [
        [0.0, -0.0, -6.5177377100000005],
        [-4.43320101, -7.67852989, -0.0],
        [-4.43333244, 7.67860547, 0.0]
      ],
      "pbc": [true, true, true],
      "a": 6.5177377100000005,
      "b": 8.866402453458136,
      "c": 8.866533622981999,
      "alpha": 119.99951191534254,
      "beta": 90.0,
      "gamma": 90.0,
      "volume": 443.7424253446943
    },
    "properties": {},
    "sites": [
      {
        "species": [{ "element": "Tm", "occu": 1 }],
        "abc": [0.500001799999999, 0.33333034, 0.6666746],
        "properties": { "magmom": -0.005 },
        "label": "Tm",
        "xyz": [-4.4333105310556675, 2.5596442513361994, -3.258880586927872]
      },
      {
        "species": [{ "element": "Tm", "occu": 1 }],
        "abc": [0.500001799999999, 0.66665574, 0.3333254],
        "properties": { "magmom": -0.005 },
        "label": "Tm",
        "xyz": [-4.433161208786274, -2.5594617862001314, -3.258880586927872]
      },
      {
        "species": [{ "element": "Tm", "occu": 1 }],
        "abc": [1.8e-6, 0.66666966, 0.3333254],
        "properties": { "magmom": -0.005 },
        "label": "Tm",
        "xyz": [-4.433222918944333, -2.5595686713361996, -1.1731927878e-5]
      },
      {
        "species": [{ "element": "Tm", "occu": 1 }],
        "abc": [1.8e-6, 0.33334426, 0.6666746],
        "properties": { "magmom": -0.005 },
        "label": "Tm",
        "xyz": [-4.433372241213727, 2.5595373662001304, -1.1731927878e-5]
      },
      {
        "species": [{ "element": "Tm", "occu": 1 }],
        "abc": [0.75000272, 0.23643145000000002, 1.0],
        "properties": { "magmom": -0.004 },
        "label": "Tm",
        "xyz": [-5.481480582935765, 5.863159514238959, -4.888321010746572]
      },
      {
        "species": [{ "element": "Tm", "occu": 1 }],
        "abc": [0.7500015800000001, 0.7635199300000001, 0.76353074],
        "properties": { "magmom": -0.004 },
        "label": "Tm",
        "xyz": [-6.769822923410335, 0.00014071256143921573, -4.888313580525582]
      },
      {
        "species": [{ "element": "Tm", "occu": 1 }],
        "abc": [0.7500015800000001, 0.999989199999999, 0.23646926000000001],
        "properties": { "magmom": -0.004 },
        "label": "Tm",
        "xyz": [-5.481499972849882, -5.862692808554328, -4.888313580525582]
      },
      {
        "species": [{ "element": "Tm", "occu": 1 }],
        "abc": [0.25000272, 0.76356855, 0.0],
        "properties": { "magmom": -0.004 },
        "label": "Tm",
        "xyz": [-3.385052867064236, -5.86308393423896, -1.6294521557465713]
      },
      {
        "species": [{ "element": "Tm", "occu": 1 }],
        "abc": [0.25000158, 0.23648007000000001, 0.23646926000000001],
        "properties": { "magmom": -0.004 },
        "label": "Tm",
        "xyz": [-2.096710526589665, -6.513256144025092e-5, -1.629444725525582]
      },
      {
        "species": [{ "element": "Tm", "occu": 1 }],
        "abc": [0.25000158, 1.0800000000000002e-5, 0.76353074],
        "properties": { "magmom": -0.004 },
        "label": "Tm",
        "xyz": [-3.3850334771501136, 5.862768388554335, -1.629444725525582]
      },
      {
        "species": [{ "element": "Pb", "occu": 1 }],
        "abc": [0.74998299, 0.60614541, -0.0],
        "properties": { "magmom": 0.001 },
        "label": "Pb",
        "xyz": [-2.6871644438188644, -4.654305648371305, -4.888192415781553]
      },
      {
        "species": [{ "element": "Pb", "occu": 1 }],
        "abc": [0.75000376, 0.393828399999999, 0.39384283000000003],
        "properties": { "magmom": 0.001 },
        "label": "Pb",
        "xyz": [-3.491956655147085, 0.00014056782741178608, -4.88832778919379]
      },
      {
        "species": [{ "element": "Pb", "occu": 1 }],
        "abc": [0.75000376, 0.99998556, 0.60615717],
        "properties": { "magmom": 0.001 },
        "label": "Pb",
        "xyz": [-7.120433240077011, -3.023977250786669, -4.88832778919379]
      },
      {
        "species": [{ "element": "Pb", "occu": 1 }],
        "abc": [0.24998299000000002, 0.39385459, 0.0],
        "properties": { "magmom": 0.001 },
        "label": "Pb",
        "xyz": [-1.7460365661811361, -3.024224241628695, -1.629323560781553]
      },
      {
        "species": [{ "element": "Pb", "occu": 1 }],
        "abc": [0.25000376, 0.606171599999999, 0.60615717],
        "properties": { "magmom": 0.001 },
        "label": "Pb",
        "xyz": [-5.374576794852906, -6.498782739683406e-5, -1.6294589341937897]
      },
      {
        "species": [{ "element": "Pb", "occu": 1 }],
        "abc": [0.25000376, 1.444e-5, 0.39384283000000003],
        "properties": { "magmom": 0.001 },
        "label": "Pb",
        "xyz": [-1.7461002099229896, 3.0240528307866685, -1.6294589341937897]
      }
    ]
  },
  "task_ids": null,
  "uncorrected_energy_per_atom": null,
  "energy_per_atom": -4.685955309999997,
  "formation_energy_per_atom": -0.492149233749999,
  "energy_above_hull": 0.0,
  "is_stable": true,
  "equilibrium_reaction_energy_per_atom": null,
  "decomposes_to": null,
  "xas": null,
  "grain_boundaries": null,
  "band_gap": 0.0,
  "cbm": null,
  "vbm": null,
  "efermi": 5.10046117,
  "is_gap_direct": null,
  "is_metal": null,
  "es_source_calc_id": null,
  "bandstructure": null,
  "dos": null,
  "dos_energy_up": null,
  "dos_energy_down": null,
  "is_magnetic": null,
  "ordering": null,
  "total_magnetization": 0.0618397,
  "total_magnetization_normalized_vol": null,
  "total_magnetization_normalized_formula_units": null,
  "num_magnetic_sites": null,
  "num_unique_magnetic_sites": null,
  "types_of_magnetic_species": null,
  "bulk_modulus": null,
  "shear_modulus": null,
  "universal_anisotropy": null,
  "homogeneous_poisson": null,
  "e_total": null,
  "e_ionic": null,
  "e_electronic": null,
  "n": null,
  "e_ij_max": null,
  "weighted_surface_energy_EV_PER_ANG2": null,
  "weighted_surface_energy": null,
  "weighted_work_function": null,
  "surface_anisotropy": null,
  "shape_factor": null,
  "has_reconstructed": null,
  "possible_species": null,
  "has_props": null,
  "theoretical": null,
  "database_IDs": null,
  "fields_not_requested": [
    "builder_meta",
    "nsites",
    "elements",
    "nelements",
    "composition",
    "composition_reduced",
    "chemsys",
    "symmetry",
    "property_name",
    "deprecated",
    "deprecation_reasons",
    "last_updated",
    "origins",
    "warnings",
    "task_ids",
    "uncorrected_energy_per_atom",
    "equilibrium_reaction_energy_per_atom",
    "decomposes_to",
    "xas",
    "grain_boundaries",
    "cbm",
    "vbm",
    "is_gap_direct",
    "is_metal",
    "es_source_calc_id",
    "bandstructure",
    "dos",
    "dos_energy_up",
    "dos_energy_down",
    "is_magnetic",
    "ordering",
    "total_magnetization_normalized_vol",
    "total_magnetization_normalized_formula_units",
    "num_magnetic_sites",
    "num_unique_magnetic_sites",
    "types_of_magnetic_species",
    "bulk_modulus",
    "shear_modulus",
    "universal_anisotropy",
    "homogeneous_poisson",
    "e_total",
    "e_ionic",
    "e_electronic",
    "n",
    "e_ij_max",
    "weighted_surface_energy_EV_PER_ANG2",
    "weighted_surface_energy",
    "weighted_work_function",
    "surface_anisotropy",
    "shape_factor",
    "has_reconstructed",
    "possible_species",
    "has_props",
    "theoretical",
    "database_IDs"
  ]
}
