{"builder_meta": null, "nsites": null, "elements": null, "nelements": null, "composition": null, "composition_reduced": null, "formula_pretty": "Tm5Pt3", "formula_anonymous": "A3B5", "chemsys": null, "volume": 361.1981090765467, "density": 13.147594226489277, "density_atomic": 22.57488181728417, "symmetry": null, "property_name": null, "material_id": "mp-1105869", "deprecated": null, "deprecation_reasons": null, "last_updated": null, "origins": null, "warnings": null, "structure": {"@module": "pymatgen.core.structure", "@class": "Structure", "charge": 0, "lattice": {"matrix": [[4.15389725, -7.19476054, 0.0], [4.15389725, 7.19476054, 0.0], [0.0, 0.0, 6.04287177]], "pbc": [true, true, true], "a": 8.307794026785851, "b": 8.307794026785851, "c": 6.04287177, "alpha": 90.0, "beta": 90.0, "gamma": 119.99999623153917, "volume": 361.1981090765467}, "properties": {}, "sites": [{"species": [{"element": "Tm", "occu": 1}], "abc": [0.666667, 0.333333, -0.0], "properties": {"magmom": 0.0}, "label": "Tm", "xyz": [4.15389725, -2.3982583098403603, 0.0]}, {"species": [{"element": "Tm", "occu": 1}], "abc": [0.333333, 0.666667, -0.0], "properties": {"magmom": 0.0}, "label": "Tm", "xyz": [4.15389725, 2.3982583098403603, 0.0]}, {"species": [{"element": "Tm", "occu": 1}], "abc": [0.333333, 0.666667, 0.5], "properties": {"magmom": 0.0}, "label": "Tm", "xyz": [4.15389725, 2.3982583098403603, 3.021435885]}, {"species": [{"element": "Tm", "occu": 1}], "abc": [0.666667, 0.333333, 0.5], "properties": {"magmom": 0.0}, "label": "Tm", "xyz": [4.15389725, -2.3982583098403603, 3.021435885]}, {"species": [{"element": "Tm", "occu": 1}], "abc": [0.75220615, 0.75220615, 0.75], "properties": {"magmom": 0.0}, "label": "Tm", "xyz": [6.249174115836175, 0.0, 4.5321538275]}, {"species": [{"element": "Tm", "occu": 1}], "abc": [0.24779385, -0.0, 0.75], "properties": {"magmom": 0.0}, "label": "Tm", "xyz": [1.0293101920819125, -1.782817414034679, 4.5321538275]}, {"species": [{"element": "Tm", "occu": 1}], "abc": [-0.0, 0.24779385, 0.75], "properties": {"magmom": 0.0}, "label": "Tm", "xyz": [1.0293101920819125, 1.782817414034679, 4.5321538275]}, {"species": [{"element": "Tm", "occu": 1}], "abc": [0.24779385, 0.24779385, 0.25], "properties": {"magmom": 0.0}, "label": "Tm", "xyz": [2.058620384163825, 0.0, 1.5107179425]}, {"species": [{"element": "Tm", "occu": 1}], "abc": [0.75220615, 0.0, 0.25], "properties": {"magmom": 0.0}, "label": "Tm", "xyz": [3.1245870579180877, -5.411943125965321, 1.5107179425]}, {"species": [{"element": "Tm", "occu": 1}], "abc": [0.0, 0.75220615, 0.25], "properties": {"magmom": 0.0}, "label": "Tm", "xyz": [3.1245870579180877, 5.411943125965321, 1.5107179425]}, {"species": [{"element": "Pt", "occu": 1}], "abc": [0.39440197, 0.39440197, 0.75], "properties": {"magmom": 0.0}, "label": "Pt", "xyz": [3.2766105171551647, 0.0, 4.5321538275]}, {"species": [{"element": "Pt", "occu": 1}], "abc": [0.60559803, -0.0, 0.75], "properties": {"magmom": 0.0}, "label": "Pt", "xyz": [2.5155919914224176, -4.357132809345736, 4.5321538275]}, {"species": [{"element": "Pt", "occu": 1}], "abc": [-0.0, 0.60559803, 0.75], "properties": {"magmom": 0.0}, "label": "Pt", "xyz": [2.5155919914224176, 4.357132809345736, 4.5321538275]}, {"species": [{"element": "Pt", "occu": 1}], "abc": [0.60559803, 0.60559803, 0.25], "properties": {"magmom": 0.0}, "label": "Pt", "xyz": [5.031183982844835, 0.0, 1.5107179425]}, {"species": [{"element": "Pt", "occu": 1}], "abc": [0.39440197, 0.0, 0.25], "properties": {"magmom": 0.0}, "label": "Pt", "xyz": [1.6383052585775824, -2.8376277306542637, 1.5107179425]}, {"species": [{"element": "Pt", "occu": 1}], "abc": [0.0, 0.39440197, 0.25], "properties": {"magmom": 0.0}, "label": "Pt", "xyz": [1.6383052585775824, 2.8376277306542637, 1.5107179425]}]}, "task_ids": null, "uncorrected_energy_per_atom": null, "energy_per_atom": -42.41456643375, "formation_energy_per_atom": -1.156017414999993, "energy_above_hull": 0.032597485000003, "is_stable": false, "equilibrium_reaction_energy_per_atom": null, "decomposes_to": null, "xas": null, "grain_boundaries": null, "band_gap": 0.0, "cbm": null, "vbm": null, "efermi": 4.67058601, "is_gap_direct": null, "is_metal": null, "es_source_calc_id": null, "bandstructure": null, "dos": null, "dos_energy_up": null, "dos_energy_down": null, "is_magnetic": null, "ordering": null, "total_magnetization": 7.099999999999996e-06, "total_magnetization_normalized_vol": null, "total_magnetization_normalized_formula_units": null, "num_magnetic_sites": null, "num_unique_magnetic_sites": null, "types_of_magnetic_species": null, "bulk_modulus": null, "shear_modulus": null, "universal_anisotropy": null, "homogeneous_poisson": null, "e_total": null, "e_ionic": null, "e_electronic": null, "n": null, "e_ij_max": null, "weighted_surface_energy_EV_PER_ANG2": null, "weighted_surface_energy": null, "weighted_work_function": null, "surface_anisotropy": null, "shape_factor": null, "has_reconstructed": null, "possible_species": null, "has_props": null, "theoretical": null, "database_IDs": null, "fields_not_requested": ["builder_meta", "nsites", "elements", "nelements", "composition", "composition_reduced", "chemsys", "symmetry", "property_name", "deprecated", "deprecation_reasons", "last_updated", "origins", "warnings", "task_ids", "uncorrected_energy_per_atom", "equilibrium_reaction_energy_per_atom", "decomposes_to", "xas", "grain_boundaries", "cbm", "vbm", "is_gap_direct", "is_metal", "es_source_calc_id", "bandstructure", "dos", "dos_energy_up", "dos_energy_down", "is_magnetic", "ordering", "total_magnetization_normalized_vol", "total_magnetization_normalized_formula_units", "num_magnetic_sites", "num_unique_magnetic_sites", "types_of_magnetic_species", "bulk_modulus", "shear_modulus", "universal_anisotropy", "homogeneous_poisson", "e_total", "e_ionic", "e_electronic", "n", "e_ij_max", "weighted_surface_energy_EV_PER_ANG2", "weighted_surface_energy", "weighted_work_function", "surface_anisotropy", "shape_factor", "has_reconstructed", "possible_species", "has_props", "theoretical", "database_IDs"]}