{"builder_meta": null, "nsites": null, "elements": null, "nelements": null, "composition": null, "composition_reduced": null, "formula_pretty": "Tm5Pt4", "formula_anonymous": "A4B5", "chemsys": null, "volume": 787.3279892247391, "density": 13.709090630360798, "density_atomic": 21.87022192290942, "symmetry": null, "property_name": null, "material_id": "mp-1199106", "deprecated": null, "deprecation_reasons": null, "last_updated": null, "origins": null, "warnings": null, "structure": {"@module": "pymatgen.core.structure", "@class": "Structure", "charge": 0, "lattice": {"matrix": [[-7.37463598, 0.0, 0.0], [-0.0, 0.0, -7.45549399], [0.0, -14.31985691, 0.0]], "pbc": [true, true, true], "a": 7.37463598, "b": 7.45549399, "c": 14.31985691, "alpha": 90.0, "beta": 90.0, "gamma": 90.0, "volume": 787.3279892247391}, "properties": {}, "sites": [{"species": [{"element": "Tm", "occu": 1}], "abc": [0.34803704, 0.83261378, 0.87742181], "properties": {"magmom": 0.0}, "label": "Tm", "xyz": [-2.5666464775566995, -12.564554768913206, -6.207547032781182]}, {"species": [{"element": "Tm", "occu": 1}], "abc": [0.84803704, 0.66738622, 0.62257819], "properties": {"magmom": 0.0}, "label": "Tm", "xyz": [-6.253964467556699, -8.915230596086793, -4.975693952218818]}, {"species": [{"element": "Tm", "occu": 1}], "abc": [0.65196296, 0.16738622, 0.37742181], "properties": {"magmom": 0.0}, "label": "Tm", "xyz": [-4.8079895024433, -5.404626313913208, -1.2479469572188178]}, {"species": [{"element": "Tm", "occu": 1}], "abc": [0.15196296, 0.33261378, 0.12257819], "properties": {"magmom": 0.0}, "label": "Tm", "xyz": [-1.1206715124433009, -1.755302141086793, -2.479800037781182]}, {"species": [{"element": "Tm", "occu": 1}], "abc": [0.65196296, 0.16738622, 0.12257819], "properties": {"magmom": 0.0}, "label": "Tm", "xyz": [-4.8079895024433, -1.755302141086793, -1.2479469572188178]}, {"species": [{"element": "Tm", "occu": 1}], "abc": [0.15196296, 0.33261378, 0.37742181], "properties": {"magmom": 0.0}, "label": "Tm", "xyz": [-1.1206715124433009, -5.404626313913208, -2.479800037781182]}, {"species": [{"element": "Tm", "occu": 1}], "abc": [0.34803704, 0.83261378, 0.62257819], "properties": {"magmom": 0.0}, "label": "Tm", "xyz": [-2.5666464775566995, -8.915230596086793, -6.207547032781182]}, {"species": [{"element": "Tm", "occu": 1}], "abc": [0.84803704, 0.66738622, 0.87742181], "properties": {"magmom": 0.0}, "label": "Tm", "xyz": [-6.253964467556699, -12.564554768913206, -4.975693952218818]}, {"species": [{"element": "Tm", "occu": 1}], "abc": [0.50289399, 0.32046038, 0.9069144], "properties": {"magmom": -0.0}, "label": "Tm", "xyz": [-3.7086601127797603, -12.986884437618505, -2.389190437123116]}, {"species": [{"element": "Tm", "occu": 1}], "abc": [0.00289399, 0.17953962, 0.5930856], "properties": {"magmom": -0.0}, "label": "Tm", "xyz": [-0.0213421227797602, -8.492900927381497, -1.3385565578768839]}, {"species": [{"element": "Tm", "occu": 1}], "abc": [0.49710601, 0.67953962, 0.406914399999999], "properties": {"magmom": -0.0}, "label": "Tm", "xyz": [-3.6659758672202396, -5.82695598261849, -5.066303552876883]}, {"species": [{"element": "Tm", "occu": 1}], "abc": [0.99710601, 0.82046038, 0.093085599999999], "properties": {"magmom": -0.0}, "label": "Tm", "xyz": [-7.3532938572202395, -1.3329724723814818, -6.116937432123116]}, {"species": [{"element": "Tm", "occu": 1}], "abc": [0.49710601, 0.67953962, 0.093085599999999], "properties": {"magmom": -0.0}, "label": "Tm", "xyz": [-3.6659758672202396, -1.3329724723814818, -5.066303552876883]}, {"species": [{"element": "Tm", "occu": 1}], "abc": [0.99710601, 0.82046038, 0.406914399999999], "properties": {"magmom": -0.0}, "label": "Tm", "xyz": [-7.3532938572202395, -5.82695598261849, -6.116937432123116]}, {"species": [{"element": "Tm", "occu": 1}], "abc": [0.50289399, 0.32046038, 0.5930856], "properties": {"magmom": -0.0}, "label": "Tm", "xyz": [-3.7086601127797603, -8.492900927381497, -2.389190437123116]}, {"species": [{"element": "Tm", "occu": 1}], "abc": [0.00289399, 0.17953962, 0.9069144], "properties": {"magmom": -0.0}, "label": "Tm", "xyz": [-0.0213421227797602, -12.986884437618505, -1.3385565578768839]}, {"species": [{"element": "Tm", "occu": 1}], "abc": [0.18609992, 0.48960982000000003, 0.75], "properties": {"magmom": 0.0}, "label": "Tm", "xyz": [-1.3724191659071217, -10.7398926825, -3.650283070454982]}, {"species": [{"element": "Tm", "occu": 1}], "abc": [0.68609992, 0.01039018, 0.75], "properties": {"magmom": 0.0}, "label": "Tm", "xyz": [-5.059737155907121, -10.7398926825, -0.0774639245450182]}, {"species": [{"element": "Tm", "occu": 1}], "abc": [0.81390008, 0.51039018, 0.25], "properties": {"magmom": 0.0}, "label": "Tm", "xyz": [-6.002216814092878, -3.5799642275, -3.8052109195450186]}, {"species": [{"element": "Tm", "occu": 1}], "abc": [0.31390008, 0.98960982, 0.25], "properties": {"magmom": 0.0}, "label": "Tm", "xyz": [-2.3148988240928787, -3.5799642275, -7.378030065454982]}, {"species": [{"element": "Pt", "occu": 1}], "abc": [0.31273872, 0.03289181, 0.041061810000000004], "properties": {"magmom": -0.0}, "label": "Pt", "xyz": [-2.3063342168511456, -0.5879992436656072, -0.2452246917752219]}, {"species": [{"element": "Pt", "occu": 1}], "abc": [0.81273872, 0.46710819000000003, 0.45893819], "properties": {"magmom": -0.0}, "label": "Pt", "xyz": [-5.993652206851146, -6.5719292113343935, -3.4825223032247785]}, {"species": [{"element": "Pt", "occu": 1}], "abc": [0.68726128, 0.96710819, 0.54106181], "properties": {"magmom": -0.0}, "label": "Pt", "xyz": [-5.068301763148854, -7.747927698665607, -7.2102692982247785]}, {"species": [{"element": "Pt", "occu": 1}], "abc": [0.18726128, 0.53289181, 0.95893819], "properties": {"magmom": -0.0}, "label": "Pt", "xyz": [-1.3809837731488543, -13.731857666334394, -3.9729716867752214]}, {"species": [{"element": "Pt", "occu": 1}], "abc": [0.68726128, 0.96710819, 0.95893819], "properties": {"magmom": -0.0}, "label": "Pt", "xyz": [-5.068301763148854, -13.731857666334394, -7.2102692982247785]}, {"species": [{"element": "Pt", "occu": 1}], "abc": [0.18726128, 0.53289181, 0.54106181], "properties": {"magmom": -0.0}, "label": "Pt", "xyz": [-1.3809837731488543, -7.747927698665607, -3.9729716867752214]}, {"species": [{"element": "Pt", "occu": 1}], "abc": [0.31273872, 0.03289181, 0.45893819], "properties": {"magmom": -0.0}, "label": "Pt", "xyz": [-2.3063342168511456, -6.5719292113343935, -0.2452246917752219]}, {"species": [{"element": "Pt", "occu": 1}], "abc": [0.81273872, 0.46710819000000003, 0.041061810000000004], "properties": {"magmom": -0.0}, "label": "Pt", "xyz": [-5.993652206851146, -0.5879992436656072, -3.4825223032247785]}, {"species": [{"element": "Pt", "occu": 1}], "abc": [0.55159602, 0.61184222, 0.75], "properties": {"magmom": -0.0}, "label": "Pt", "xyz": [-4.0678198555168, -10.7398926825, -4.561585994038258]}, {"species": [{"element": "Pt", "occu": 1}], "abc": [0.05159602, 0.88815778, 0.75], "properties": {"magmom": -0.0}, "label": "Pt", "xyz": [-0.3805018655167996, -10.7398926825, -6.621654990961742]}, {"species": [{"element": "Pt", "occu": 1}], "abc": [0.44840398000000004, 0.38815778, 0.25], "properties": {"magmom": -0.0}, "label": "Pt", "xyz": [-3.3068161244832006, -3.5799642275, -2.8939079959617424]}, {"species": [{"element": "Pt", "occu": 1}], "abc": [0.94840398, 0.11184222, 0.25], "properties": {"magmom": -0.0}, "label": "Pt", "xyz": [-6.9941341144832005, -3.5799642275, -0.8338389990382579]}, {"species": [{"element": "Pt", "occu": 1}], "abc": [0.32290339, 0.14349237, 0.75], "properties": {"magmom": -0.0}, "label": "Pt", "xyz": [-2.381294957957972, -10.7398926825, -1.0698065021458563]}, {"species": [{"element": "Pt", "occu": 1}], "abc": [0.82290339, 0.35650763, 0.75], "properties": {"magmom": -0.0}, "label": "Pt", "xyz": [-6.0686129479579725, -10.7398926825, -2.6579404928541437]}, {"species": [{"element": "Pt", "occu": 1}], "abc": [0.67709661, 0.85650763, 0.25], "properties": {"magmom": -0.0}, "label": "Pt", "xyz": [-4.993341022042028, -3.5799642275, -6.385687487854144]}, {"species": [{"element": "Pt", "occu": 1}], "abc": [0.17709661000000002, 0.64349237, 0.25], "properties": {"magmom": -0.0}, "label": "Pt", "xyz": [-1.3060230320420279, -3.5799642275, -4.797553497145857]}]}, "task_ids": null, "uncorrected_energy_per_atom": null, "energy_per_atom": -43.72650303694444, "formation_energy_per_atom": -1.331379809166662, "energy_above_hull": 0.001038397777776, "is_stable": false, "equilibrium_reaction_energy_per_atom": null, "decomposes_to": null, "xas": null, "grain_boundaries": null, "band_gap": 0.0, "cbm": null, "vbm": null, "efermi": 4.72138857, "is_gap_direct": null, "is_metal": null, "es_source_calc_id": null, "bandstructure": null, "dos": null, "dos_energy_up": null, "dos_energy_down": null, "is_magnetic": null, "ordering": null, "total_magnetization": 1e-06, "total_magnetization_normalized_vol": null, "total_magnetization_normalized_formula_units": null, "num_magnetic_sites": null, "num_unique_magnetic_sites": null, "types_of_magnetic_species": null, "bulk_modulus": null, "shear_modulus": null, "universal_anisotropy": null, "homogeneous_poisson": null, "e_total": null, "e_ionic": null, "e_electronic": null, "n": null, "e_ij_max": null, "weighted_surface_energy_EV_PER_ANG2": null, "weighted_surface_energy": null, "weighted_work_function": null, "surface_anisotropy": null, "shape_factor": null, "has_reconstructed": null, "possible_species": null, "has_props": null, "theoretical": null, "database_IDs": null, "fields_not_requested": ["builder_meta", "nsites", "elements", "nelements", "composition", "composition_reduced", "chemsys", "symmetry", "property_name", "deprecated", "deprecation_reasons", "last_updated", "origins", "warnings", "task_ids", "uncorrected_energy_per_atom", "equilibrium_reaction_energy_per_atom", "decomposes_to", "xas", "grain_boundaries", "cbm", "vbm", "is_gap_direct", "is_metal", "es_source_calc_id", "bandstructure", "dos", "dos_energy_up", "dos_energy_down", "is_magnetic", "ordering", "total_magnetization_normalized_vol", "total_magnetization_normalized_formula_units", "num_magnetic_sites", "num_unique_magnetic_sites", "types_of_magnetic_species", "bulk_modulus", "shear_modulus", "universal_anisotropy", "homogeneous_poisson", "e_total", "e_ionic", "e_electronic", "n", "e_ij_max", "weighted_surface_energy_EV_PER_ANG2", "weighted_surface_energy", "weighted_work_function", "surface_anisotropy", "shape_factor", "has_reconstructed", "possible_species", "has_props", "theoretical", "database_IDs"]}