{"builder_meta": null, "nsites": null, "elements": null, "nelements": null, "composition": null, "composition_reduced": null, "formula_pretty": "Tm5Pb4", "formula_anonymous": "A4B5", "chemsys": null, "volume": 1032.4420808115817, "density": 10.76617897311862, "density_atomic": 28.678946689210605, "symmetry": null, "property_name": null, "material_id": "mp-1204885", "deprecated": null, "deprecation_reasons": null, "last_updated": null, "origins": null, "warnings": null, "structure": {"@module": "pymatgen.core.structure", "@class": "Structure", "charge": 0, "lattice": {"matrix": [[-8.126116, 0.0, 0.0], [0.0, 0.0, -8.172957], [0.0, -15.545456, 0.0]], "pbc": [true, true, true], "a": 8.126116, "b": 8.172957, "c": 15.545456, "alpha": 90.0, "beta": 90.0, "gamma": 90.0, "volume": 1032.4420808115817}, "properties": {}, "sites": [{"species": [{"element": "Tm", "occu": 1}], "abc": [0.377054, 0.840866, 0.879255], "properties": {"magmom": 0.006}, "label": "Tm", "xyz": [-3.063984542264, -13.66841991528, -6.872361660762]}, {"species": [{"element": "Tm", "occu": 1}], "abc": [0.877054, 0.659134, 0.620745], "properties": {"magmom": 0.006}, "label": "Tm", "xyz": [-7.127042542263999, -9.64976408472, -5.387073839238]}, {"species": [{"element": "Tm", "occu": 1}], "abc": [0.622946, 0.159134, 0.379255], "properties": {"magmom": 0.006}, "label": "Tm", "xyz": [-5.062131457736, -5.8956919152800005, -1.300595339238]}, {"species": [{"element": "Tm", "occu": 1}], "abc": [0.122946, 0.340866, 0.120744999999999], "properties": {"magmom": 0.006}, "label": "Tm", "xyz": [-0.999073457736, -1.8770360847199845, -2.7858831607620003]}, {"species": [{"element": "Tm", "occu": 1}], "abc": [0.622946, 0.159134, 0.120744999999999], "properties": {"magmom": 0.006}, "label": "Tm", "xyz": [-5.062131457736, -1.8770360847199845, -1.300595339238]}, {"species": [{"element": "Tm", "occu": 1}], "abc": [0.122946, 0.340866, 0.379255], "properties": {"magmom": 0.006}, "label": "Tm", "xyz": [-0.999073457736, -5.8956919152800005, -2.7858831607620003]}, {"species": [{"element": "Tm", "occu": 1}], "abc": [0.377054, 0.840866, 0.620745], "properties": {"magmom": 0.006}, "label": "Tm", "xyz": [-3.063984542264, -9.64976408472, -6.872361660762]}, {"species": [{"element": "Tm", "occu": 1}], "abc": [0.877054, 0.659134, 0.879255], "properties": {"magmom": 0.006}, "label": "Tm", "xyz": [-7.127042542263999, -13.66841991528, -5.387073839238]}, {"species": [{"element": "Tm", "occu": 1}], "abc": [0.53683, 0.322982, 0.900272], "properties": {"magmom": 0.003}, "label": "Tm", "xyz": [-4.36234285228, -13.995138764032, -2.639717997774]}, {"species": [{"element": "Tm", "occu": 1}], "abc": [0.03683, 0.177017999999999, 0.599727999999999], "properties": {"magmom": 0.003}, "label": "Tm", "xyz": [-0.29928485228, -9.323045235967985, -1.446760502225992]}, {"species": [{"element": "Tm", "occu": 1}], "abc": [0.46317, 0.677018, 0.400271999999999], "properties": {"magmom": 0.003}, "label": "Tm", "xyz": [-3.7637731477200003, -6.222410764031984, -5.533239002226]}, {"species": [{"element": "Tm", "occu": 1}], "abc": [0.9631700000000001, 0.822982, 0.099728], "properties": {"magmom": 0.003}, "label": "Tm", "xyz": [-7.82683114772, -1.550317235968, -6.7261964977740005]}, {"species": [{"element": "Tm", "occu": 1}], "abc": [0.46317, 0.677018, 0.099728], "properties": {"magmom": 0.003}, "label": "Tm", "xyz": [-3.7637731477200003, -1.550317235968, -5.533239002226]}, {"species": [{"element": "Tm", "occu": 1}], "abc": [0.9631700000000001, 0.822982, 0.400271999999999], "properties": {"magmom": 0.003}, "label": "Tm", "xyz": [-7.82683114772, -6.222410764031984, -6.7261964977740005]}, {"species": [{"element": "Tm", "occu": 1}], "abc": [0.53683, 0.322982, 0.599727999999999], "properties": {"magmom": 0.003}, "label": "Tm", "xyz": [-4.36234285228, -9.323045235967985, -2.639717997774]}, {"species": [{"element": "Tm", "occu": 1}], "abc": [0.03683, 0.177017999999999, 0.900272], "properties": {"magmom": 0.003}, "label": "Tm", "xyz": [-0.29928485228, -13.995138764032, -1.446760502225992]}, {"species": [{"element": "Tm", "occu": 1}], "abc": [0.208368, 0.504335, 0.75], "properties": {"magmom": 0.015}, "label": "Tm", "xyz": [-1.693222538688, -11.659092, -4.121908268595]}, {"species": [{"element": "Tm", "occu": 1}], "abc": [0.708368, 0.995664999999999, 0.75], "properties": {"magmom": 0.015}, "label": "Tm", "xyz": [-5.756280538687999, -11.659092, -8.137527231404992]}, {"species": [{"element": "Tm", "occu": 1}], "abc": [0.791632, 0.495664999999999, 0.25], "properties": {"magmom": 0.015}, "label": "Tm", "xyz": [-6.432893461312, -3.886364, -4.051048731404992]}, {"species": [{"element": "Tm", "occu": 1}], "abc": [0.291632, 0.004334999999999, 0.25], "properties": {"magmom": 0.015}, "label": "Tm", "xyz": [-2.369835461312, -3.886364, -0.03542976859499183]}, {"species": [{"element": "Pb", "occu": 1}], "abc": [0.280507, 0.031723, 0.042013999999999004], "properties": {"magmom": 0.001}, "label": "Pb", "xyz": [-2.279432420812, -0.6531267883839845, -0.259270714911]}, {"species": [{"element": "Pb", "occu": 1}], "abc": [0.780507, 0.468277, 0.457986], "properties": {"magmom": 0.001}, "label": "Pb", "xyz": [-6.342490420811999, -7.119601211616, -3.827207785089]}, {"species": [{"element": "Pb", "occu": 1}], "abc": [0.719492999999999, 0.968276999999999, 0.542014], "properties": {"magmom": 0.001}, "label": "Pb", "xyz": [-5.846683579187992, -8.425854788384, -7.913686285088993]}, {"species": [{"element": "Pb", "occu": 1}], "abc": [0.219493, 0.531723, 0.957986], "properties": {"magmom": 0.001}, "label": "Pb", "xyz": [-1.7836255791879998, -14.892329211616, -4.345749214911]}, {"species": [{"element": "Pb", "occu": 1}], "abc": [0.719492999999999, 0.968276999999999, 0.957986], "properties": {"magmom": 0.001}, "label": "Pb", "xyz": [-5.846683579187992, -14.892329211616, -7.913686285088993]}, {"species": [{"element": "Pb", "occu": 1}], "abc": [0.219493, 0.531723, 0.542014], "properties": {"magmom": 0.001}, "label": "Pb", "xyz": [-1.7836255791879998, -8.425854788384, -4.345749214911]}, {"species": [{"element": "Pb", "occu": 1}], "abc": [0.280507, 0.031723, 0.457986], "properties": {"magmom": 0.001}, "label": "Pb", "xyz": [-2.279432420812, -7.119601211616, -0.259270714911]}, {"species": [{"element": "Pb", "occu": 1}], "abc": [0.780507, 0.468277, 0.042013999999999004], "properties": {"magmom": 0.001}, "label": "Pb", "xyz": [-6.342490420811999, -0.6531267883839845, -3.827207785089]}, {"species": [{"element": "Pb", "occu": 1}], "abc": [0.570839, 0.627298999999999, 0.75], "properties": {"magmom": 0.003}, "label": "Pb", "xyz": [-4.638703931324, -11.659092, -5.126887753142992]}, {"species": [{"element": "Pb", "occu": 1}], "abc": [0.070839, 0.872701, 0.75], "properties": {"magmom": 0.003}, "label": "Pb", "xyz": [-0.575645931324, -11.659092, -7.132547746857]}, {"species": [{"element": "Pb", "occu": 1}], "abc": [0.429160999999999, 0.372701, 0.25], "properties": {"magmom": 0.003}, "label": "Pb", "xyz": [-3.487412068675992, -3.886364, -3.0460692468570003]}, {"species": [{"element": "Pb", "occu": 1}], "abc": [0.9291609999999991, 0.127299, 0.25], "properties": {"magmom": 0.003}, "label": "Pb", "xyz": [-7.550470068675993, -3.886364, -1.040409253143]}, {"species": [{"element": "Pb", "occu": 1}], "abc": [0.347960999999999, 0.153303, 0.75], "properties": {"magmom": 0.002}, "label": "Pb", "xyz": [-2.827571449475992, -11.659092, -1.252938826971]}, {"species": [{"element": "Pb", "occu": 1}], "abc": [0.847961, 0.346697, 0.75], "properties": {"magmom": 0.002}, "label": "Pb", "xyz": [-6.890629449475999, -11.659092, -2.833539673029]}, {"species": [{"element": "Pb", "occu": 1}], "abc": [0.652038999999999, 0.846696999999999, 0.25], "properties": {"magmom": 0.002}, "label": "Pb", "xyz": [-5.298544550523992, -3.886364, -6.920018173028993]}, {"species": [{"element": "Pb", "occu": 1}], "abc": [0.152038999999999, 0.653303, 0.25], "properties": {"magmom": 0.002}, "label": "Pb", "xyz": [-1.2354865505239918, -3.886364, -5.339417326971]}]}, "task_ids": null, "uncorrected_energy_per_atom": null, "energy_per_atom": -4.610267966944445, "formation_energy_per_atom": -0.46992400250000205, "energy_above_hull": 0.0, "is_stable": true, "equilibrium_reaction_energy_per_atom": null, "decomposes_to": null, "xas": null, "grain_boundaries": null, "band_gap": 0.0, "cbm": null, "vbm": null, "efermi": 5.16303643, "is_gap_direct": null, "is_metal": null, "es_source_calc_id": null, "bandstructure": null, "dos": null, "dos_energy_up": null, "dos_energy_down": null, "is_magnetic": null, "ordering": null, "total_magnetization": 0.235017299999999, "total_magnetization_normalized_vol": null, "total_magnetization_normalized_formula_units": null, "num_magnetic_sites": null, "num_unique_magnetic_sites": null, "types_of_magnetic_species": null, "bulk_modulus": null, "shear_modulus": null, "universal_anisotropy": null, "homogeneous_poisson": null, "e_total": null, "e_ionic": null, "e_electronic": null, "n": null, "e_ij_max": null, "weighted_surface_energy_EV_PER_ANG2": null, "weighted_surface_energy": null, "weighted_work_function": null, "surface_anisotropy": null, "shape_factor": null, "has_reconstructed": null, "possible_species": null, "has_props": null, "theoretical": null, "database_IDs": null, "fields_not_requested": ["builder_meta", "nsites", "elements", "nelements", "composition", "composition_reduced", "chemsys", "symmetry", "property_name", "deprecated", "deprecation_reasons", "last_updated", "origins", "warnings", "task_ids", "uncorrected_energy_per_atom", "equilibrium_reaction_energy_per_atom", "decomposes_to", "xas", "grain_boundaries", "cbm", "vbm", "is_gap_direct", "is_metal", "es_source_calc_id", "bandstructure", "dos", "dos_energy_up", "dos_energy_down", "is_magnetic", "ordering", "total_magnetization_normalized_vol", "total_magnetization_normalized_formula_units", "num_magnetic_sites", "num_unique_magnetic_sites", "types_of_magnetic_species", "bulk_modulus", "shear_modulus", "universal_anisotropy", "homogeneous_poisson", "e_total", "e_ionic", "e_electronic", "n", "e_ij_max", "weighted_surface_energy_EV_PER_ANG2", "weighted_surface_energy", "weighted_work_function", "surface_anisotropy", "shape_factor", "has_reconstructed", "possible_species", "has_props", "theoretical", "database_IDs"]}