{
  "builder_meta": null,
  "nsites": null,
  "elements": null,
  "nelements": null,
  "composition": null,
  "composition_reduced": null,
  "formula_pretty": "Tm5Rh3",
  "formula_anonymous": "A3B5",
  "chemsys": null,
  "volume": 358.84197036311537,
  "density": 10.674587946148034,
  "density_atomic": 22.42762314769471,
  "symmetry": null,
  "property_name": null,
  "material_id": "mp-1189245",
  "deprecated": null,
  "deprecation_reasons": null,
  "last_updated": null,
  "origins": null,
  "warnings": null,
  "structure": {
    "@module": "pymatgen.core.structure",
    "@class": "Structure",
    "charge": 0,
    "lattice": {
      "matrix": [
        [8.196161, 0.0, 0.0],
        [-4.098081, 7.098084, 0.0],
        [0.0, 0.0, 6.168103]
      ],
      "pbc": [true, true, true],
      "a": 8.196161,
      "b": 8.196161562195867,
      "c": 6.168103,
      "alpha": 90.0,
      "beta": 90.0,
      "gamma": 120.00000176697887,
      "volume": 358.84197036311537
    },
    "properties": {},
    "sites": [
      {
        "species": [{ "element": "Tm", "occu": 1 }],
        "abc": [0.666667, 0.333333, 0.5],
        "properties": { "magmom": 0.002 },
        "label": "Tm",
        "xyz": [4.098084431414001, 2.366025633972, 3.0840515]
      },
      {
        "species": [{ "element": "Tm", "occu": 1 }],
        "abc": [0.333333, 0.666667, 0.5],
        "properties": { "magmom": 0.002 },
        "label": "Tm",
        "xyz": [-4.431413999750333e-6, 4.732058366028, 3.0840515]
      },
      {
        "species": [{ "element": "Tm", "occu": 1 }],
        "abc": [0.333333, 0.666667, 0.0],
        "properties": { "magmom": 0.002 },
        "label": "Tm",
        "xyz": [-4.431413999750333e-6, 4.732058366028, 0.0]
      },
      {
        "species": [{ "element": "Tm", "occu": 1 }],
        "abc": [0.666667, 0.333333, 0.0],
        "properties": { "magmom": 0.002 },
        "label": "Tm",
        "xyz": [4.098084431414001, 2.366025633972, 0.0]
      },
      {
        "species": [{ "element": "Tm", "occu": 1 }],
        "abc": [0.745428, 0.745428, 0.25],
        "properties": { "magmom": 0.004 },
        "label": "Tm",
        "xyz": [3.05482357824, 5.291110559952, 1.54202575]
      },
      {
        "species": [{ "element": "Tm", "occu": 1 }],
        "abc": [0.254571999999999, 0.0, 0.25],
        "properties": { "magmom": 0.004 },
        "label": "Tm",
        "xyz": [2.086513098091992, 0.0, 1.54202575]
      },
      {
        "species": [{ "element": "Tm", "occu": 1 }],
        "abc": [0.0, 0.254571999999999, 0.25],
        "properties": { "magmom": 0.004 },
        "label": "Tm",
        "xyz": [-1.043256676331996, 1.806973440047993, 1.54202575]
      },
      {
        "species": [{ "element": "Tm", "occu": 1 }],
        "abc": [0.254571999999999, 0.254571999999999, 0.75],
        "properties": { "magmom": 0.004 },
        "label": "Tm",
        "xyz": [1.043256421759996, 1.806973440047993, 4.62607725]
      },
      {
        "species": [{ "element": "Tm", "occu": 1 }],
        "abc": [0.745428, 0.0, 0.75],
        "properties": { "magmom": 0.004 },
        "label": "Tm",
        "xyz": [6.109647901908, 0.0, 4.62607725]
      },
      {
        "species": [{ "element": "Tm", "occu": 1 }],
        "abc": [0.0, 0.745428, 0.75],
        "properties": { "magmom": 0.004 },
        "label": "Tm",
        "xyz": [-3.0548243236679995, 5.291110559952, 4.62607725]
      },
      {
        "species": [{ "element": "Rh", "occu": 1 }],
        "abc": [0.394225999999999, 0.394225999999999, 0.25],
        "properties": { "magmom": -0.0 },
        "label": "Rh",
        "xyz": [1.6155696860799964, 2.798249262983993, 1.54202575]
      },
      {
        "species": [{ "element": "Rh", "occu": 1 }],
        "abc": [0.605773999999999, 0.0, 0.25],
        "properties": { "magmom": -0.0 },
        "label": "Rh",
        "xyz": [4.965021233613992, 0.0, 1.54202575]
      },
      {
        "species": [{ "element": "Rh", "occu": 1 }],
        "abc": [0.0, 0.605773999999999, 0.25],
        "properties": { "magmom": -0.0 },
        "label": "Rh",
        "xyz": [-2.4825109196939956, 4.299834737015993, 1.54202575]
      },
      {
        "species": [{ "element": "Rh", "occu": 1 }],
        "abc": [0.605773999999999, 0.605773999999999, 0.75],
        "properties": { "magmom": -0.0 },
        "label": "Rh",
        "xyz": [2.4825103139199967, 4.299834737015993, 4.62607725]
      },
      {
        "species": [{ "element": "Rh", "occu": 1 }],
        "abc": [0.394225999999999, 0.0, 0.75],
        "properties": { "magmom": -0.0 },
        "label": "Rh",
        "xyz": [3.231139766385992, 0.0, 4.62607725]
      },
      {
        "species": [{ "element": "Rh", "occu": 1 }],
        "abc": [0.0, 0.394225999999999, 0.75],
        "properties": { "magmom": -0.0 },
        "label": "Rh",
        "xyz": [-1.6155700803059958, 2.798249262983993, 4.62607725]
      }
    ]
  },
  "task_ids": null,
  "uncorrected_energy_per_atom": null,
  "energy_per_atom": -6.340923774375,
  "formation_energy_per_atom": -0.777744898125003,
  "energy_above_hull": 0.0,
  "is_stable": true,
  "equilibrium_reaction_energy_per_atom": null,
  "decomposes_to": null,
  "xas": null,
  "grain_boundaries": null,
  "band_gap": 0.0,
  "cbm": null,
  "vbm": null,
  "efermi": 4.21416774,
  "is_gap_direct": null,
  "is_metal": null,
  "es_source_calc_id": null,
  "bandstructure": null,
  "dos": null,
  "dos_energy_up": null,
  "dos_energy_down": null,
  "is_magnetic": null,
  "ordering": null,
  "total_magnetization": 0.0702912,
  "total_magnetization_normalized_vol": null,
  "total_magnetization_normalized_formula_units": null,
  "num_magnetic_sites": null,
  "num_unique_magnetic_sites": null,
  "types_of_magnetic_species": null,
  "bulk_modulus": null,
  "shear_modulus": null,
  "universal_anisotropy": null,
  "homogeneous_poisson": null,
  "e_total": null,
  "e_ionic": null,
  "e_electronic": null,
  "n": null,
  "e_ij_max": null,
  "weighted_surface_energy_EV_PER_ANG2": null,
  "weighted_surface_energy": null,
  "weighted_work_function": null,
  "surface_anisotropy": null,
  "shape_factor": null,
  "has_reconstructed": null,
  "possible_species": null,
  "has_props": null,
  "theoretical": null,
  "database_IDs": null,
  "fields_not_requested": [
    "builder_meta",
    "nsites",
    "elements",
    "nelements",
    "composition",
    "composition_reduced",
    "chemsys",
    "symmetry",
    "property_name",
    "deprecated",
    "deprecation_reasons",
    "last_updated",
    "origins",
    "warnings",
    "task_ids",
    "uncorrected_energy_per_atom",
    "equilibrium_reaction_energy_per_atom",
    "decomposes_to",
    "xas",
    "grain_boundaries",
    "cbm",
    "vbm",
    "is_gap_direct",
    "is_metal",
    "es_source_calc_id",
    "bandstructure",
    "dos",
    "dos_energy_up",
    "dos_energy_down",
    "is_magnetic",
    "ordering",
    "total_magnetization_normalized_vol",
    "total_magnetization_normalized_formula_units",
    "num_magnetic_sites",
    "num_unique_magnetic_sites",
    "types_of_magnetic_species",
    "bulk_modulus",
    "shear_modulus",
    "universal_anisotropy",
    "homogeneous_poisson",
    "e_total",
    "e_ionic",
    "e_electronic",
    "n",
    "e_ij_max",
    "weighted_surface_energy_EV_PER_ANG2",
    "weighted_surface_energy",
    "weighted_work_function",
    "surface_anisotropy",
    "shape_factor",
    "has_reconstructed",
    "possible_species",
    "has_props",
    "theoretical",
    "database_IDs"
  ]
}
