{
  "builder_meta": null,
  "nsites": null,
  "elements": null,
  "nelements": null,
  "composition": null,
  "composition_reduced": null,
  "formula_pretty": "Tm5Ru2",
  "formula_anonymous": "A2B5",
  "chemsys": null,
  "volume": 348.0708580872272,
  "density": 9.988027457546888,
  "density_atomic": 24.862204149087656,
  "symmetry": null,
  "property_name": null,
  "material_id": "mp-1104150",
  "deprecated": null,
  "deprecation_reasons": null,
  "last_updated": null,
  "origins": null,
  "warnings": null,
  "structure": {
    "@module": "pymatgen.core.structure",
    "@class": "Structure",
    "charge": 0,
    "lattice": {
      "matrix": [
        [0.0, 6.240791, 0.0],
        [0.908451, 0.0, -7.184547],
        [-7.762983, -3.120396, 0.0]
      ],
      "pbc": [true, true, true],
      "a": 6.240791,
      "b": 7.24175384935238,
      "c": 8.36664665532763,
      "alpha": 96.68410280553431,
      "beta": 111.8980737613504,
      "gamma": 90.0,
      "volume": 348.0708580872272
    },
    "properties": {},
    "sites": [
      {
        "species": [{ "element": "Tm", "occu": 1 }],
        "abc": [0.790918, 0.084041999999999, 0.813352],
        "properties": { "magmom": -0.0 },
        "label": "Tm",
        "xyz": [-6.237689710074001, 2.3979736087459997, -0.6038036989739929]
      },
      {
        "species": [{ "element": "Tm", "occu": 1 }],
        "abc": [0.977565999999999, 0.415958, 0.186647999999999],
        "properties": { "magmom": -0.0 },
        "label": "Tm",
        "xyz": [-1.0710677899259924, 5.518369422097996, -2.988469801026]
      },
      {
        "species": [{ "element": "Tm", "occu": 1 }],
        "abc": [0.209082, 0.915957999999999, 0.186647999999999],
        "properties": { "magmom": -0.0 },
        "label": "Tm",
        "xyz": [-0.6168422899259932, 0.7224213912540031, -6.5807433010259935]
      },
      {
        "species": [{ "element": "Tm", "occu": 1 }],
        "abc": [0.022434, 0.584042, 0.813352],
        "properties": { "magmom": -0.0 },
        "label": "Tm",
        "xyz": [-5.783464210074, -2.3979744220979997, -4.196077198974]
      },
      {
        "species": [{ "element": "Tm", "occu": 1 }],
        "abc": [0.205598, 0.184480999999999, 0.565035],
        "properties": { "magmom": 0.001 },
        "label": "Tm",
        "xyz": [-4.218765150474001, -0.48003880584199976, -1.3254124151069928]
      },
      {
        "species": [{ "element": "Tm", "occu": 1 }],
        "abc": [0.640563, 0.315519, 0.434965],
        "properties": { "magmom": 0.001 },
        "label": "Tm",
        "xyz": [-3.089992349526, 2.6403567591929997, -2.266861084893]
      },
      {
        "species": [{ "element": "Tm", "occu": 1 }],
        "abc": [0.794401999999999, 0.815519, 0.434965],
        "properties": { "magmom": 0.001 },
        "label": "Tm",
        "xyz": [-2.635766849526, 3.600433805841994, -5.859134584893]
      },
      {
        "species": [{ "element": "Tm", "occu": 1 }],
        "abc": [0.359437, 0.684481, 0.565035],
        "properties": { "magmom": 0.001 },
        "label": "Tm",
        "xyz": [-3.764539650474, 0.4800382408070003, -4.9176859151070005]
      },
      {
        "species": [{ "element": "Tm", "occu": 1 }],
        "abc": [0.418182, 0.25, 0.0],
        "properties": { "magmom": -0.001 },
        "label": "Tm",
        "xyz": [0.22711275, 2.609786461962, -1.79613675]
      },
      {
        "species": [{ "element": "Tm", "occu": 1 }],
        "abc": [0.581818, 0.75, 0.0],
        "properties": { "magmom": -0.001 },
        "label": "Tm",
        "xyz": [0.68133825, 3.6310045380379994, -5.38841025]
      },
      {
        "species": [{ "element": "Ru", "occu": 1 }],
        "abc": [0.602783, 0.423668, 0.780395],
        "properties": { "magmom": -0.001 },
        "label": "Ru",
        "xyz": [-5.673311500016999, 1.3267012849329998, -3.0438626583960002]
      },
      {
        "species": [{ "element": "Ru", "occu": 1 }],
        "abc": [0.822387, 0.076332, 0.219605],
        "properties": { "magmom": -0.001 },
        "label": "Ru",
        "xyz": [-1.635445999983, 4.447090824537, -0.548410841604]
      },
      {
        "species": [{ "element": "Ru", "occu": 1 }],
        "abc": [0.397217, 0.576332, 0.219605],
        "properties": { "magmom": -0.001 },
        "label": "Ru",
        "xyz": [-1.181220499983, 1.7936937150669996, -4.140684341604]
      },
      {
        "species": [{ "element": "Ru", "occu": 1 }],
        "abc": [0.177613, 0.923667999999999, 0.780395],
        "properties": { "magmom": -0.001 },
        "label": "Ru",
        "xyz": [-5.2190860000170005, -1.326695824537, -6.636136158395994]
      }
    ]
  },
  "task_ids": null,
  "uncorrected_energy_per_atom": null,
  "energy_per_atom": -6.255808001428571,
  "formation_energy_per_atom": -0.40419193285714805,
  "energy_above_hull": 0.0,
  "is_stable": true,
  "equilibrium_reaction_energy_per_atom": null,
  "decomposes_to": null,
  "xas": null,
  "grain_boundaries": null,
  "band_gap": 0.0,
  "cbm": null,
  "vbm": null,
  "efermi": 3.77583248,
  "is_gap_direct": null,
  "is_metal": null,
  "es_source_calc_id": null,
  "bandstructure": null,
  "dos": null,
  "dos_energy_up": null,
  "dos_energy_down": null,
  "is_magnetic": null,
  "ordering": null,
  "total_magnetization": 0.0173901,
  "total_magnetization_normalized_vol": null,
  "total_magnetization_normalized_formula_units": null,
  "num_magnetic_sites": null,
  "num_unique_magnetic_sites": null,
  "types_of_magnetic_species": null,
  "bulk_modulus": null,
  "shear_modulus": null,
  "universal_anisotropy": null,
  "homogeneous_poisson": null,
  "e_total": null,
  "e_ionic": null,
  "e_electronic": null,
  "n": null,
  "e_ij_max": null,
  "weighted_surface_energy_EV_PER_ANG2": null,
  "weighted_surface_energy": null,
  "weighted_work_function": null,
  "surface_anisotropy": null,
  "shape_factor": null,
  "has_reconstructed": null,
  "possible_species": null,
  "has_props": null,
  "theoretical": null,
  "database_IDs": null,
  "fields_not_requested": [
    "builder_meta",
    "nsites",
    "elements",
    "nelements",
    "composition",
    "composition_reduced",
    "chemsys",
    "symmetry",
    "property_name",
    "deprecated",
    "deprecation_reasons",
    "last_updated",
    "origins",
    "warnings",
    "task_ids",
    "uncorrected_energy_per_atom",
    "equilibrium_reaction_energy_per_atom",
    "decomposes_to",
    "xas",
    "grain_boundaries",
    "cbm",
    "vbm",
    "is_gap_direct",
    "is_metal",
    "es_source_calc_id",
    "bandstructure",
    "dos",
    "dos_energy_up",
    "dos_energy_down",
    "is_magnetic",
    "ordering",
    "total_magnetization_normalized_vol",
    "total_magnetization_normalized_formula_units",
    "num_magnetic_sites",
    "num_unique_magnetic_sites",
    "types_of_magnetic_species",
    "bulk_modulus",
    "shear_modulus",
    "universal_anisotropy",
    "homogeneous_poisson",
    "e_total",
    "e_ionic",
    "e_electronic",
    "n",
    "e_ij_max",
    "weighted_surface_energy_EV_PER_ANG2",
    "weighted_surface_energy",
    "weighted_work_function",
    "surface_anisotropy",
    "shape_factor",
    "has_reconstructed",
    "possible_species",
    "has_props",
    "theoretical",
    "database_IDs"
  ]
}
