{
  "builder_meta": null,
  "nsites": null,
  "elements": null,
  "nelements": null,
  "composition": null,
  "composition_reduced": null,
  "formula_pretty": "Tm5Sb3",
  "formula_anonymous": "A3B5",
  "chemsys": null,
  "volume": 854.8227851283538,
  "density": 9.401579003989736,
  "density_atomic": 26.713212035261055,
  "symmetry": null,
  "property_name": null,
  "material_id": "mp-543052",
  "deprecated": null,
  "deprecation_reasons": null,
  "last_updated": null,
  "origins": null,
  "warnings": null,
  "structure": {
    "@module": "pymatgen.core.structure",
    "@class": "Structure",
    "charge": 0,
    "lattice": {
      "matrix": [
        [8.02406297, -0.0, 0.0],
        [-0.0, 9.11934906, 0.0],
        [0.0, 0.0, 11.68201937]
      ],
      "pbc": [true, true, true],
      "a": 8.02406297,
      "b": 9.11934906,
      "c": 11.68201937,
      "alpha": 90.0,
      "beta": 90.0,
      "gamma": 90.0,
      "volume": 854.8227851283538
    },
    "properties": {},
    "sites": [
      {
        "species": [{ "element": "Tm", "occu": 1 }],
        "abc": [0.80890409, 0.93990235, 0.93358904],
        "properties": { "magmom": 0.0 },
        "label": "Tm",
        "xyz": [6.490697354850546, 8.57129761196429, 10.906205248899706]
      },
      {
        "species": [{ "element": "Tm", "occu": 1 }],
        "abc": [0.30890409, 0.06009765, 0.56641096],
        "properties": { "magmom": 0.0 },
        "label": "Tm",
        "xyz": [2.478665869850547, 0.5480514480357089, 6.616823806100296]
      },
      {
        "species": [{ "element": "Tm", "occu": 1 }],
        "abc": [0.19109591, 0.43990235, 0.06641096],
        "properties": { "magmom": 0.0 },
        "label": "Tm",
        "xyz": [1.5333656151494526, 4.011623081964291, 0.7758141211002954]
      },
      {
        "species": [{ "element": "Tm", "occu": 1 }],
        "abc": [0.69109591, 0.56009765, 0.43358904000000004],
        "properties": { "magmom": 0.0 },
        "label": "Tm",
        "xyz": [5.545397100149453, 5.107725978035709, 5.065195563899706]
      },
      {
        "species": [{ "element": "Tm", "occu": 1 }],
        "abc": [0.19109591, 0.06009765, 0.06641096],
        "properties": { "magmom": 0.0 },
        "label": "Tm",
        "xyz": [1.5333656151494526, 0.5480514480357089, 0.7758141211002954]
      },
      {
        "species": [{ "element": "Tm", "occu": 1 }],
        "abc": [0.69109591, 0.93990235, 0.43358904000000004],
        "properties": { "magmom": 0.0 },
        "label": "Tm",
        "xyz": [5.545397100149453, 8.57129761196429, 5.065195563899706]
      },
      {
        "species": [{ "element": "Tm", "occu": 1 }],
        "abc": [0.80890409, 0.56009765, 0.93358904],
        "properties": { "magmom": 0.0 },
        "label": "Tm",
        "xyz": [6.490697354850546, 5.107725978035709, 10.906205248899706]
      },
      {
        "species": [{ "element": "Tm", "occu": 1 }],
        "abc": [0.30890409, 0.43990235, 0.56641096],
        "properties": { "magmom": 0.0 },
        "label": "Tm",
        "xyz": [2.478665869850547, 4.011623081964291, 6.616823806100296]
      },
      {
        "species": [{ "element": "Tm", "occu": 1 }],
        "abc": [0.52430347, 0.25, 0.00527687],
        "properties": { "magmom": 0.0 },
        "label": "Tm",
        "xyz": [4.2070440586695055, 2.279837265, 0.06164449755297191]
      },
      {
        "species": [{ "element": "Tm", "occu": 1 }],
        "abc": [0.02430347, 0.75, 0.49472313],
        "properties": { "magmom": 0.0 },
        "label": "Tm",
        "xyz": [0.1950125736695059, 6.839511795, 5.779365187447029]
      },
      {
        "species": [{ "element": "Tm", "occu": 1 }],
        "abc": [0.47569653, 0.75, 0.99472313],
        "properties": { "magmom": 0.0 },
        "label": "Tm",
        "xyz": [3.8170189113304938, 6.839511795, 11.620374872447028]
      },
      {
        "species": [{ "element": "Tm", "occu": 1 }],
        "abc": [0.97569653, 0.25, 0.50527687],
        "properties": { "magmom": 0.0 },
        "label": "Tm",
        "xyz": [7.829050396330493, 2.279837265, 5.902654182552972]
      },
      {
        "species": [{ "element": "Tm", "occu": 1 }],
        "abc": [0.17211891, 0.75, 0.772863499999999],
        "properties": { "magmom": 0.0 },
        "label": "Tm",
        "xyz": [1.3810929721677627, 6.839511795, 9.028606377365984]
      },
      {
        "species": [{ "element": "Tm", "occu": 1 }],
        "abc": [0.67211891, 0.25, 0.7271365],
        "properties": { "magmom": 0.0 },
        "label": "Tm",
        "xyz": [5.393124457167763, 2.279837265, 8.494422677634006]
      },
      {
        "species": [{ "element": "Tm", "occu": 1 }],
        "abc": [0.82788109, 0.25, 0.2271365],
        "properties": { "magmom": 0.0 },
        "label": "Tm",
        "xyz": [6.642969997832236, 2.279837265, 2.653412992634005]
      },
      {
        "species": [{ "element": "Tm", "occu": 1 }],
        "abc": [0.32788109, 0.75, 0.2728635],
        "properties": { "magmom": 0.0 },
        "label": "Tm",
        "xyz": [2.630938512832237, 6.839511795, 3.187596692365995]
      },
      {
        "species": [{ "element": "Tm", "occu": 1 }],
        "abc": [0.65567159, 0.75, 0.7089122800000001],
        "properties": { "magmom": -0.0 },
        "label": "Tm",
        "xyz": [5.261150125800022, 6.839511795, 8.281526986590865]
      },
      {
        "species": [{ "element": "Tm", "occu": 1 }],
        "abc": [0.15567159, 0.25, 0.79108772],
        "properties": { "magmom": -0.0 },
        "label": "Tm",
        "xyz": [1.249118640800022, 2.279837265, 9.241502068409138]
      },
      {
        "species": [{ "element": "Tm", "occu": 1 }],
        "abc": [0.34432841000000003, 0.25, 0.29108772],
        "properties": { "magmom": -0.0 },
        "label": "Tm",
        "xyz": [2.7629128441999775, 2.279837265, 3.4004923834091367]
      },
      {
        "species": [{ "element": "Tm", "occu": 1 }],
        "abc": [0.84432841, 0.75, 0.20891228],
        "properties": { "magmom": -0.0 },
        "label": "Tm",
        "xyz": [6.774944329199977, 6.839511795, 2.4405173015908637]
      },
      {
        "species": [{ "element": "Sb", "occu": 1 }],
        "abc": [0.93666903, 0.99067226, 0.67446757],
        "properties": { "magmom": -0.0 },
        "label": "Sb",
        "xyz": [7.515891278768819, 9.034286142999076, 7.879143217176831]
      },
      {
        "species": [{ "element": "Sb", "occu": 1 }],
        "abc": [0.43666903, 0.009327740000000001, 0.82553243],
        "properties": { "magmom": -0.0 },
        "label": "Sb",
        "xyz": [3.503859793768819, 0.0850629170009244, 9.64388583782317]
      },
      {
        "species": [{ "element": "Sb", "occu": 1 }],
        "abc": [0.06333097, 0.49067226, 0.32553243],
        "properties": { "magmom": -0.0 },
        "label": "Sb",
        "xyz": [0.5081716912311809, 4.474611612999076, 3.802876152823169]
      },
      {
        "species": [{ "element": "Sb", "occu": 1 }],
        "abc": [0.56333097, 0.50932774, 0.17446757000000002],
        "properties": { "magmom": -0.0 },
        "label": "Sb",
        "xyz": [4.52020317623118, 4.644737447000924, 2.0381335321768312]
      },
      {
        "species": [{ "element": "Sb", "occu": 1 }],
        "abc": [0.06333097, 0.009327740000000001, 0.32553243],
        "properties": { "magmom": -0.0 },
        "label": "Sb",
        "xyz": [0.5081716912311809, 0.0850629170009244, 3.802876152823169]
      },
      {
        "species": [{ "element": "Sb", "occu": 1 }],
        "abc": [0.56333097, 0.99067226, 0.17446757000000002],
        "properties": { "magmom": -0.0 },
        "label": "Sb",
        "xyz": [4.52020317623118, 9.034286142999076, 2.0381335321768312]
      },
      {
        "species": [{ "element": "Sb", "occu": 1 }],
        "abc": [0.93666903, 0.50932774, 0.67446757],
        "properties": { "magmom": -0.0 },
        "label": "Sb",
        "xyz": [7.515891278768819, 4.644737447000924, 7.879143217176831]
      },
      {
        "species": [{ "element": "Sb", "occu": 1 }],
        "abc": [0.43666903, 0.49067226, 0.82553243],
        "properties": { "magmom": -0.0 },
        "label": "Sb",
        "xyz": [3.503859793768819, 4.474611612999076, 9.64388583782317]
      },
      {
        "species": [{ "element": "Sb", "occu": 1 }],
        "abc": [0.90357299, 0.25, 0.97573167],
        "properties": { "magmom": -0.0 },
        "label": "Sb",
        "xyz": [7.25032656975118, 2.279837265, 11.39851626886245]
      },
      {
        "species": [{ "element": "Sb", "occu": 1 }],
        "abc": [0.40357299, 0.75, 0.5242683300000001],
        "properties": { "magmom": -0.0 },
        "label": "Sb",
        "xyz": [3.23829508475118, 6.839511795, 6.1245127861375535]
      },
      {
        "species": [{ "element": "Sb", "occu": 1 }],
        "abc": [0.09642701000000001, 0.75, 0.02426733],
        "properties": { "magmom": -0.0 },
        "label": "Sb",
        "xyz": [0.7737364002488197, 6.839511795, 0.2834914191181821]
      },
      {
        "species": [{ "element": "Sb", "occu": 1 }],
        "abc": [0.59642701, 0.25, 0.47573167],
        "properties": { "magmom": -0.0 },
        "label": "Sb",
        "xyz": [4.785767885248819, 2.279837265, 5.557506583862448]
      }
    ]
  },
  "task_ids": null,
  "uncorrected_energy_per_atom": null,
  "energy_per_atom": -32.5920262475,
  "formation_energy_per_atom": -1.001502667500002,
  "energy_above_hull": 0.0,
  "is_stable": true,
  "equilibrium_reaction_energy_per_atom": null,
  "decomposes_to": null,
  "xas": null,
  "grain_boundaries": null,
  "band_gap": 0.0,
  "cbm": null,
  "vbm": null,
  "efermi": 5.45740863,
  "is_gap_direct": null,
  "is_metal": null,
  "es_source_calc_id": null,
  "bandstructure": null,
  "dos": null,
  "dos_energy_up": null,
  "dos_energy_down": null,
  "is_magnetic": null,
  "ordering": null,
  "total_magnetization": 1.9900000000000003e-5,
  "total_magnetization_normalized_vol": null,
  "total_magnetization_normalized_formula_units": null,
  "num_magnetic_sites": null,
  "num_unique_magnetic_sites": null,
  "types_of_magnetic_species": null,
  "bulk_modulus": null,
  "shear_modulus": null,
  "universal_anisotropy": null,
  "homogeneous_poisson": null,
  "e_total": null,
  "e_ionic": null,
  "e_electronic": null,
  "n": null,
  "e_ij_max": null,
  "weighted_surface_energy_EV_PER_ANG2": null,
  "weighted_surface_energy": null,
  "weighted_work_function": null,
  "surface_anisotropy": null,
  "shape_factor": null,
  "has_reconstructed": null,
  "possible_species": null,
  "has_props": null,
  "theoretical": null,
  "database_IDs": null,
  "fields_not_requested": [
    "builder_meta",
    "nsites",
    "elements",
    "nelements",
    "composition",
    "composition_reduced",
    "chemsys",
    "symmetry",
    "property_name",
    "deprecated",
    "deprecation_reasons",
    "last_updated",
    "origins",
    "warnings",
    "task_ids",
    "uncorrected_energy_per_atom",
    "equilibrium_reaction_energy_per_atom",
    "decomposes_to",
    "xas",
    "grain_boundaries",
    "cbm",
    "vbm",
    "is_gap_direct",
    "is_metal",
    "es_source_calc_id",
    "bandstructure",
    "dos",
    "dos_energy_up",
    "dos_energy_down",
    "is_magnetic",
    "ordering",
    "total_magnetization_normalized_vol",
    "total_magnetization_normalized_formula_units",
    "num_magnetic_sites",
    "num_unique_magnetic_sites",
    "types_of_magnetic_species",
    "bulk_modulus",
    "shear_modulus",
    "universal_anisotropy",
    "homogeneous_poisson",
    "e_total",
    "e_ionic",
    "e_electronic",
    "n",
    "e_ij_max",
    "weighted_surface_energy_EV_PER_ANG2",
    "weighted_surface_energy",
    "weighted_work_function",
    "surface_anisotropy",
    "shape_factor",
    "has_reconstructed",
    "possible_species",
    "has_props",
    "theoretical",
    "database_IDs"
  ]
}
