{
  "builder_meta": null,
  "nsites": null,
  "elements": null,
  "nelements": null,
  "composition": null,
  "composition_reduced": null,
  "formula_pretty": "Tm5Sn3",
  "formula_anonymous": "A3B5",
  "chemsys": null,
  "volume": 437.26867170776643,
  "density": 9.120145959470456,
  "density_atomic": 27.329291981735402,
  "symmetry": null,
  "property_name": null,
  "material_id": "mp-1189210",
  "deprecated": null,
  "deprecation_reasons": null,
  "last_updated": null,
  "origins": null,
  "warnings": null,
  "structure": {
    "@module": "pymatgen.core.structure",
    "@class": "Structure",
    "charge": 0,
    "lattice": {
      "matrix": [
        [0.0, 0.0, -6.462678],
        [-4.418583, -7.653211, 0.0],
        [-4.421318, 7.654789, 0.0]
      ],
      "pbc": [true, true, true],
      "a": 6.462678,
      "b": 8.837166646522515,
      "c": 8.839900875668517,
      "alpha": 119.98976680178613,
      "beta": 90.0,
      "gamma": 90.0,
      "volume": 437.26867170776643
    },
    "properties": {},
    "sites": [
      {
        "species": [{ "element": "Tm", "occu": 1 }],
        "abc": [0.5, 0.333368, 0.666760999999999],
        "properties": { "magmom": 0.0 },
        "label": "Tm",
        "xyz": [-4.420976588541996, 2.552579123780993, -3.231339]
      },
      {
        "species": [{ "element": "Tm", "occu": 1 }],
        "abc": [0.5, 0.666607, 0.333239],
        "properties": { "magmom": 0.0 },
        "label": "Tm",
        "xyz": [-4.418813946883, -2.5508097935059997, -3.231339]
      },
      {
        "species": [{ "element": "Tm", "occu": 1 }],
        "abc": [0.0, 0.666632, 0.333239],
        "properties": { "magmom": 0.0 },
        "label": "Tm",
        "xyz": [-4.418924411458, -2.551001123781, 0.0]
      },
      {
        "species": [{ "element": "Tm", "occu": 1 }],
        "abc": [0.0, 0.333393, 0.666760999999999],
        "properties": { "magmom": 0.0 },
        "label": "Tm",
        "xyz": [-4.421087053116996, 2.552387793505993, 0.0]
      },
      {
        "species": [{ "element": "Tm", "occu": 1 }],
        "abc": [0.750003, 0.23934000000000002, 0.0],
        "properties": { "magmom": -0.014 },
        "label": "Tm",
        "xyz": [-1.0575436552200002, -1.83171952074, -4.847027888034]
      },
      {
        "species": [{ "element": "Tm", "occu": 1 }],
        "abc": [0.749997999999999, 0.760579, 0.760663],
        "properties": { "magmom": 0.008 },
        "label": "Tm",
        "xyz": [-6.723814453391, 0.001843195937999198, -4.846995574643994]
      },
      {
        "species": [{ "element": "Tm", "occu": 1 }],
        "abc": [0.749997999999999, 0.999915999999999, 0.239337],
        "properties": { "magmom": 0.008 },
        "label": "Tm",
        "xyz": [-5.476396825193996, -5.8204938953829926, -4.846995574643994]
      },
      {
        "species": [{ "element": "Tm", "occu": 1 }],
        "abc": [0.250003, 0.7606600000000001, 0.0],
        "properties": { "magmom": -0.014 },
        "label": "Tm",
        "xyz": [-3.3610393447800004, -5.8214914792600005, -1.615688888034]
      },
      {
        "species": [{ "element": "Tm", "occu": 1 }],
        "abc": [0.249998, 0.239421, 0.239337],
        "properties": { "magmom": 0.008 },
        "label": "Tm",
        "xyz": [-2.116086546609, -0.00026519593800000685, -1.6156565746440001]
      },
      {
        "species": [{ "element": "Tm", "occu": 1 }],
        "abc": [0.249998, 8.400000000000001e-5, 0.760663],
        "properties": { "magmom": 0.008 },
        "label": "Tm",
        "xyz": [-3.363504174806, 5.822071895382999, -1.6156565746440001]
      },
      {
        "species": [{ "element": "Sn", "occu": 1 }],
        "abc": [0.749996999999999, 0.605305, 0.0],
        "properties": { "magmom": 0.001 },
        "label": "Sn",
        "xyz": [-2.674590382815, -4.632526884354999, -4.846989111965994]
      },
      {
        "species": [{ "element": "Sn", "occu": 1 }],
        "abc": [0.750002, 0.394596, 0.39456],
        "properties": { "magmom": -0.001 },
        "label": "Sn",
        "xyz": [-3.488030407548, 0.0003471000840002958, -4.847021425356]
      },
      {
        "species": [{ "element": "Sn", "occu": 1 }],
        "abc": [0.750002, 3.6e-5, 0.6054400000000001],
        "properties": { "magmom": -0.001 },
        "label": "Sn",
        "xyz": [-2.6770018389080006, 4.634239936564001, -4.847021425356]
      },
      {
        "species": [{ "element": "Sn", "occu": 1 }],
        "abc": [0.249997, 0.394694999999999, 0.0],
        "properties": { "magmom": 0.001 },
        "label": "Sn",
        "xyz": [-1.7439926171849955, -3.0206841156449924, -1.615650111966]
      },
      {
        "species": [{ "element": "Sn", "occu": 1 }],
        "abc": [0.250002, 0.605403999999999, 0.6054400000000001],
        "properties": { "magmom": -0.001 },
        "label": "Sn",
        "xyz": [-5.351870592451997, 0.0012308999160079992, -1.615682425356]
      },
      {
        "species": [{ "element": "Sn", "occu": 1 }],
        "abc": [0.250002, 0.999964, 0.39456],
        "properties": { "magmom": -0.001 },
        "label": "Sn",
        "xyz": [-6.162899161092, -4.632661936564, -1.615682425356]
      }
    ]
  },
  "task_ids": null,
  "uncorrected_energy_per_atom": null,
  "energy_per_atom": -4.99705491875,
  "formation_energy_per_atom": -0.691902048125004,
  "energy_above_hull": 0.0,
  "is_stable": true,
  "equilibrium_reaction_energy_per_atom": null,
  "decomposes_to": null,
  "xas": null,
  "grain_boundaries": null,
  "band_gap": 0.0,
  "cbm": null,
  "vbm": null,
  "efermi": 5.10132358,
  "is_gap_direct": null,
  "is_metal": null,
  "es_source_calc_id": null,
  "bandstructure": null,
  "dos": null,
  "dos_energy_up": null,
  "dos_energy_down": null,
  "is_magnetic": null,
  "ordering": null,
  "total_magnetization": 0.0078277,
  "total_magnetization_normalized_vol": null,
  "total_magnetization_normalized_formula_units": null,
  "num_magnetic_sites": null,
  "num_unique_magnetic_sites": null,
  "types_of_magnetic_species": null,
  "bulk_modulus": null,
  "shear_modulus": null,
  "universal_anisotropy": null,
  "homogeneous_poisson": null,
  "e_total": null,
  "e_ionic": null,
  "e_electronic": null,
  "n": null,
  "e_ij_max": null,
  "weighted_surface_energy_EV_PER_ANG2": null,
  "weighted_surface_energy": null,
  "weighted_work_function": null,
  "surface_anisotropy": null,
  "shape_factor": null,
  "has_reconstructed": null,
  "possible_species": null,
  "has_props": null,
  "theoretical": null,
  "database_IDs": null,
  "fields_not_requested": [
    "builder_meta",
    "nsites",
    "elements",
    "nelements",
    "composition",
    "composition_reduced",
    "chemsys",
    "symmetry",
    "property_name",
    "deprecated",
    "deprecation_reasons",
    "last_updated",
    "origins",
    "warnings",
    "task_ids",
    "uncorrected_energy_per_atom",
    "equilibrium_reaction_energy_per_atom",
    "decomposes_to",
    "xas",
    "grain_boundaries",
    "cbm",
    "vbm",
    "is_gap_direct",
    "is_metal",
    "es_source_calc_id",
    "bandstructure",
    "dos",
    "dos_energy_up",
    "dos_energy_down",
    "is_magnetic",
    "ordering",
    "total_magnetization_normalized_vol",
    "total_magnetization_normalized_formula_units",
    "num_magnetic_sites",
    "num_unique_magnetic_sites",
    "types_of_magnetic_species",
    "bulk_modulus",
    "shear_modulus",
    "universal_anisotropy",
    "homogeneous_poisson",
    "e_total",
    "e_ionic",
    "e_electronic",
    "n",
    "e_ij_max",
    "weighted_surface_energy_EV_PER_ANG2",
    "weighted_surface_energy",
    "weighted_work_function",
    "surface_anisotropy",
    "shape_factor",
    "has_reconstructed",
    "possible_species",
    "has_props",
    "theoretical",
    "database_IDs"
  ]
}
