{
  "builder_meta": null,
  "nsites": null,
  "elements": null,
  "nelements": null,
  "composition": null,
  "composition_reduced": null,
  "formula_pretty": "Tm5Si3",
  "formula_anonymous": "A3B5",
  "chemsys": null,
  "volume": 369.6471693953543,
  "density": 8.345907203018399,
  "density_atomic": 23.102948087209644,
  "symmetry": null,
  "property_name": null,
  "material_id": "mp-1189863",
  "deprecated": null,
  "deprecation_reasons": null,
  "last_updated": null,
  "origins": null,
  "warnings": null,
  "structure": {
    "@module": "pymatgen.core.structure",
    "@class": "Structure",
    "charge": 0,
    "lattice": {
      "matrix": [
        [0.0, -0.0, -6.2259543],
        [-4.13997062, -7.17060315, -0.0],
        [-4.13994897, 7.17059158, -0.0]
      ],
      "pbc": [true, true, true],
      "a": 6.2259543,
      "b": 8.279909798376616,
      "c": 8.279888953444422,
      "alpha": 119.99983848195353,
      "beta": 90.0,
      "gamma": 90.0,
      "volume": 369.6471693953543
    },
    "properties": {},
    "sites": [
      {
        "species": [{ "element": "Tm", "occu": 1 }],
        "abc": [0.49999974, 0.33333434, 0.6666696],
        "properties": { "magmom": 0.0 },
        "label": "Tm",
        "xyz": [-4.139972498087403, 2.390207151994797, -3.112975531251882]
      },
      {
        "species": [{ "element": "Tm", "occu": 1 }],
        "abc": [0.49999974, 0.6666637400000001, 0.333330399999999],
        "properties": { "magmom": 0.0 },
        "label": "Tm",
        "xyz": [-4.139939143169003, -2.390204954436756, -3.112975531251882]
      },
      {
        "species": [{ "element": "Tm", "occu": 1 }],
        "abc": [0.99999974, 0.66666666, 0.333330399999999],
        "properties": { "magmom": 0.0 },
        "label": "Tm",
        "xyz": [-4.139951231883213, -2.390225892597954, -6.225952681251882]
      },
      {
        "species": [{ "element": "Tm", "occu": 1 }],
        "abc": [0.99999974, 0.33333726, 0.6666696],
        "properties": { "magmom": 0.0 },
        "label": "Tm",
        "xyz": [-4.139984586801613, 2.3901862138335987, -6.225952681251882]
      },
      {
        "species": [{ "element": "Tm", "occu": 1 }],
        "abc": [0.7500014700000001, 0.24221647000000002, -0.0],
        "properties": { "magmom": -0.0 },
        "label": "Tm",
        "xyz": [-1.0027690694801115, -1.7368381827638806, -4.669474877152821]
      },
      {
        "species": [{ "element": "Tm", "occu": 1 }],
        "abc": [0.749999, 0.75777896, 0.757779499999999],
        "properties": { "magmom": 0.0 },
        "label": "Tm",
        "xyz": [-6.274351091366266, -4.895383121095165e-6, -4.6694594990457]
      },
      {
        "species": [{ "element": "Tm", "occu": 1 }],
        "abc": [0.75, 0.99999945, 0.242221499999999],
        "properties": { "magmom": 0.0 },
        "label": "Tm",
        "xyz": [-5.14275299245301, -5.433727757773305, -4.669465725]
      },
      {
        "species": [{ "element": "Tm", "occu": 1 }],
        "abc": [0.25000147, 0.75778353, 0.0],
        "properties": { "magmom": -0.0 },
        "label": "Tm",
        "xyz": [-3.1372015505198885, -5.43376496723612, -1.5564977271528209]
      },
      {
        "species": [{ "element": "Tm", "occu": 1 }],
        "abc": [0.249999, 0.24222104, 0.242219499999999],
        "properties": { "magmom": 0.0 },
        "label": "Tm",
        "xyz": [
          -2.0055643586847554, -1.3845208473028947e-5, -1.5564823490456998
        ]
      },
      {
        "species": [{ "element": "Tm", "occu": 1 }],
        "abc": [0.25, 5.5e-7, 0.757778499999999],
        "properties": { "magmom": 0.0 },
        "label": "Tm",
        "xyz": [-3.137166597546982, 5.433716187773291, -1.556488575]
      },
      {
        "species": [{ "element": "Si", "occu": 1 }],
        "abc": [0.74999431, 0.6055338100000001, 0.0],
        "properties": { "magmom": -0.0 },
        "label": "Si",
        "xyz": [-2.5068921828166624, -4.342042645417502, -4.669430299320033]
      },
      {
        "species": [{ "element": "Si", "occu": 1 }],
        "abc": [0.7500018700000001, 0.39446344, 0.39446633000000003],
        "properties": { "magmom": -0.0 },
        "label": "Si",
        "xyz": [-3.266137528847313, 1.615906766572195e-5, -4.669477367534541]
      },
      {
        "species": [{ "element": "Si", "occu": 1 }],
        "abc": [0.75000287, 0.99999711, 0.60553367],
        "properties": { "magmom": -0.0 },
        "label": "Si",
        "xyz": [-6.646837148901728, -2.828547791448397, -4.669483593488841]
      },
      {
        "species": [{ "element": "Si", "occu": 1 }],
        "abc": [0.24999431, 0.39446619, -0.0],
        "properties": { "magmom": -0.0 },
        "label": "Si",
        "xyz": [-1.6330784371833376, -2.8285605045824984, -1.5564531493200329]
      },
      {
        "species": [{ "element": "Si", "occu": 1 }],
        "abc": [0.25000087, 0.60553756, 0.60553367],
        "properties": { "magmom": -0.0 },
        "label": "Si",
        "xyz": [-5.013786201123307, -3.489967081460321e-5, -1.556493991580241]
      },
      {
        "species": [{ "element": "Si", "occu": 1 }],
        "abc": [0.25000187, 2.89e-6, 0.39446533],
        "properties": { "magmom": -0.0 },
        "label": "Si",
        "xyz": [-1.6330783011493017, 2.828529050856818, -1.556500217534541]
      }
    ]
  },
  "task_ids": null,
  "uncorrected_energy_per_atom": null,
  "energy_per_atom": -26.03014418875,
  "formation_energy_per_atom": -0.7893272843750011,
  "energy_above_hull": 0.0,
  "is_stable": true,
  "equilibrium_reaction_energy_per_atom": null,
  "decomposes_to": null,
  "xas": null,
  "grain_boundaries": null,
  "band_gap": 0.0,
  "cbm": null,
  "vbm": null,
  "efermi": 4.32553699,
  "is_gap_direct": null,
  "is_metal": null,
  "es_source_calc_id": null,
  "bandstructure": null,
  "dos": null,
  "dos_energy_up": null,
  "dos_energy_down": null,
  "is_magnetic": null,
  "ordering": null,
  "total_magnetization": 9e-7,
  "total_magnetization_normalized_vol": null,
  "total_magnetization_normalized_formula_units": null,
  "num_magnetic_sites": null,
  "num_unique_magnetic_sites": null,
  "types_of_magnetic_species": null,
  "bulk_modulus": null,
  "shear_modulus": null,
  "universal_anisotropy": null,
  "homogeneous_poisson": null,
  "e_total": null,
  "e_ionic": null,
  "e_electronic": null,
  "n": null,
  "e_ij_max": null,
  "weighted_surface_energy_EV_PER_ANG2": null,
  "weighted_surface_energy": null,
  "weighted_work_function": null,
  "surface_anisotropy": null,
  "shape_factor": null,
  "has_reconstructed": null,
  "possible_species": null,
  "has_props": null,
  "theoretical": null,
  "database_IDs": null,
  "fields_not_requested": [
    "builder_meta",
    "nsites",
    "elements",
    "nelements",
    "composition",
    "composition_reduced",
    "chemsys",
    "symmetry",
    "property_name",
    "deprecated",
    "deprecation_reasons",
    "last_updated",
    "origins",
    "warnings",
    "task_ids",
    "uncorrected_energy_per_atom",
    "equilibrium_reaction_energy_per_atom",
    "decomposes_to",
    "xas",
    "grain_boundaries",
    "cbm",
    "vbm",
    "is_gap_direct",
    "is_metal",
    "es_source_calc_id",
    "bandstructure",
    "dos",
    "dos_energy_up",
    "dos_energy_down",
    "is_magnetic",
    "ordering",
    "total_magnetization_normalized_vol",
    "total_magnetization_normalized_formula_units",
    "num_magnetic_sites",
    "num_unique_magnetic_sites",
    "types_of_magnetic_species",
    "bulk_modulus",
    "shear_modulus",
    "universal_anisotropy",
    "homogeneous_poisson",
    "e_total",
    "e_ionic",
    "e_electronic",
    "n",
    "e_ij_max",
    "weighted_surface_energy_EV_PER_ANG2",
    "weighted_surface_energy",
    "weighted_work_function",
    "surface_anisotropy",
    "shape_factor",
    "has_reconstructed",
    "possible_species",
    "has_props",
    "theoretical",
    "database_IDs"
  ]
}
