{"builder_meta": null, "nsites": null, "elements": null, "nelements": null, "composition": null, "composition_reduced": null, "formula_pretty": "Tm5S7", "formula_anonymous": "A5B7", "chemsys": null, "volume": 260.4057603893394, "density": 6.817535719987184, "density_atomic": 21.700480032444947, "symmetry": null, "property_name": null, "material_id": "mp-1102847", "deprecated": null, "deprecation_reasons": null, "last_updated": null, "origins": null, "warnings": null, "structure": {"@module": "pymatgen.core.structure", "@class": "Structure", "charge": 0, "lattice": {"matrix": [[1.86727668, 6.29812568, 0.00414616], [-1.86727668, 6.29812568, 0.00414616], [0.0, 2.86329774, 11.07323533]], "pbc": [true, true, true], "a": 6.569103932150109, "b": 6.569103932150109, "c": 11.437439163617409, "alpha": 76.07635856257545, "beta": 76.07635856257545, "gamma": 33.028207108668205, "volume": 260.4057603893394}, "properties": {}, "sites": [{"species": [{"element": "Tm", "occu": 1}], "abc": [0.0, 0.0, 0.0], "properties": {"magmom": -0.0}, "label": "Tm", "xyz": [0.0, 0.0, 0.0]}, {"species": [{"element": "Tm", "occu": 1}], "abc": [0.11164503, 0.11164503, 0.57832193], "properties": {"magmom": 0.0}, "label": "Tm", "xyz": [0.0, 3.062216736136179, 6.404820623704956]}, {"species": [{"element": "Tm", "occu": 1}], "abc": [0.88835497, 0.88835497, 0.42167807], "properties": {"magmom": 0.0}, "label": "Tm", "xyz": [0.0, 12.397332363863821, 4.676707026295044]}, {"species": [{"element": "Tm", "occu": 1}], "abc": [0.29996325, 0.29996325, 0.81290397], "properties": {"magmom": 0.0}, "label": "Tm", "xyz": [0.0, 6.105998595900548, 9.0039643517585]}, {"species": [{"element": "Tm", "occu": 1}], "abc": [0.70003675, 0.70003675, 0.18709603], "properties": {"magmom": 0.0}, "label": "Tm", "xyz": [0.0, 9.353550504099452, 2.0775632982414995]}, {"species": [{"element": "S", "occu": 1}], "abc": [0.5, 0.5, 0.5], "properties": {"magmom": 0.0}, "label": "S", "xyz": [0.0, 7.72977455, 5.540763825]}, {"species": [{"element": "S", "occu": 1}], "abc": [0.65882065, 0.65882065, 0.94851959], "properties": {"magmom": -0.0}, "label": "S", "xyz": [0.0, 11.014564506951311, 10.508643786837522]}, {"species": [{"element": "S", "occu": 1}], "abc": [0.34117935, 0.34117935, 0.051480410000000004], "properties": {"magmom": -0.0}, "label": "S", "xyz": [0.0, 4.444984593048689, 0.5728838631624773]}, {"species": [{"element": "S", "occu": 1}], "abc": [0.95897917, 0.95897917, 0.78522018], "properties": {"magmom": -0.0}, "label": "S", "xyz": [0.0, 14.327861841120566, 8.702880001155934]}, {"species": [{"element": "S", "occu": 1}], "abc": [0.04102083, 0.04102083, 0.21477982], "properties": {"magmom": -0.0}, "label": "S", "xyz": [0.0, 1.1316872588794356, 2.378647648844066]}, {"species": [{"element": "S", "occu": 1}], "abc": [0.25899307, 0.25899307, 0.35332106], "properties": {"magmom": -0.0}, "label": "S", "xyz": [0.0, 4.274005202810479, 3.914554897839272]}, {"species": [{"element": "S", "occu": 1}], "abc": [0.7410069300000001, 0.7410069300000001, 0.64667894], "properties": {"magmom": -0.0}, "label": "S", "xyz": [0.0, 11.185543897189522, 7.166972752160728]}]}, "task_ids": null, "uncorrected_energy_per_atom": null, "energy_per_atom": -21.676116764166665, "formation_energy_per_atom": -2.355263845390624, "energy_above_hull": 0.0, "is_stable": true, "equilibrium_reaction_energy_per_atom": null, "decomposes_to": null, "xas": null, "grain_boundaries": null, "band_gap": 0.0, "cbm": null, "vbm": null, "efermi": 5.24725155, "is_gap_direct": null, "is_metal": null, "es_source_calc_id": null, "bandstructure": null, "dos": null, "dos_energy_up": null, "dos_energy_down": null, "is_magnetic": null, "ordering": null, "total_magnetization": 0.0, "total_magnetization_normalized_vol": null, "total_magnetization_normalized_formula_units": null, "num_magnetic_sites": null, "num_unique_magnetic_sites": null, "types_of_magnetic_species": null, "bulk_modulus": null, "shear_modulus": null, "universal_anisotropy": null, "homogeneous_poisson": null, "e_total": null, "e_ionic": null, "e_electronic": null, "n": null, "e_ij_max": null, "weighted_surface_energy_EV_PER_ANG2": null, "weighted_surface_energy": null, "weighted_work_function": null, "surface_anisotropy": null, "shape_factor": null, "has_reconstructed": null, "possible_species": null, "has_props": null, "theoretical": null, "database_IDs": null, "fields_not_requested": ["builder_meta", "nsites", "elements", "nelements", "composition", "composition_reduced", "chemsys", "symmetry", "property_name", "deprecated", "deprecation_reasons", "last_updated", "origins", "warnings", "task_ids", "uncorrected_energy_per_atom", "equilibrium_reaction_energy_per_atom", "decomposes_to", "xas", "grain_boundaries", "cbm", "vbm", "is_gap_direct", "is_metal", "es_source_calc_id", "bandstructure", "dos", "dos_energy_up", "dos_energy_down", "is_magnetic", "ordering", "total_magnetization_normalized_vol", "total_magnetization_normalized_formula_units", "num_magnetic_sites", "num_unique_magnetic_sites", "types_of_magnetic_species", "bulk_modulus", "shear_modulus", "universal_anisotropy", "homogeneous_poisson", "e_total", "e_ionic", "e_electronic", "n", "e_ij_max", "weighted_surface_energy_EV_PER_ANG2", "weighted_surface_energy", "weighted_work_function", "surface_anisotropy", "shape_factor", "has_reconstructed", "possible_species", "has_props", "theoretical", "database_IDs"]}