{"builder_meta": null, "nsites": null, "elements": null, "nelements": null, "composition": null, "composition_reduced": null, "formula_pretty": "Tm5Tl3", "formula_anonymous": "A3B5", "chemsys": null, "volume": 440.1631441305526, "density": 10.999415429770393, "density_atomic": 27.510196508159538, "symmetry": null, "property_name": null, "material_id": "mp-1190038", "deprecated": null, "deprecation_reasons": null, "last_updated": null, "origins": null, "warnings": null, "structure": {"@module": "pymatgen.core.structure", "@class": "Structure", "charge": 0, "lattice": {"matrix": [[-3.359999999999998e-06, -3.4e-07, -6.5218337], [-4.41383661, -7.64500365, -2.67e-06], [-4.41414179, 7.64517954, -1.879999999999999e-06]], "pbc": [true, true, true], "a": 6.521833700000874, "b": 8.827685677928091, "c": 8.827990594753857, "alpha": 119.99894881984356, "beta": 89.99997562544884, "gamma": 89.99996532450325, "volume": 440.1631441305526}, "properties": {}, "sites": [{"species": [{"element": "Tm", "occu": 1}], "abc": [0.5000007, 0.33333242, 0.6666643600000001], "properties": {"magmom": 0.015}, "label": "Tm", "xyz": [-4.4140275300778535, 2.548440987555624, -3.260923558610148]}, {"species": [{"element": "Tm", "occu": 1}], "abc": [0.49999954, 0.66666783, 0.33333487], "properties": {"magmom": 0.015}, "label": "Tm", "xyz": [-4.413951934492927, -2.5482732355948627, -3.26091625662916]}, {"species": [{"element": "Tm", "occu": 1}], "abc": [-3.299999999999998e-07, 0.66666822, 0.33333625], "properties": {"magmom": 0.015}, "label": "Tm", "xyz": [-4.4139580674053125, -2.5482654967985665, -2.544711764000006e-07]}, {"species": [{"element": "Tm", "occu": 1}], "abc": [-3.6e-07, 0.333332099999999, 0.66666505], "properties": {"magmom": 0.015}, "label": "Tm", "xyz": [-4.414027483404406, 2.548448879131042, 2.0453313100000352e-07]}, {"species": [{"element": "Tm", "occu": 1}], "abc": [0.74999866, 0.23590774, -4e-08], "properties": {"magmom": 0.037}, "label": "Tm", "xyz": [-1.0412605628241873, -1.8035160941699768, -4.891367165616433]}, {"species": [{"element": "Tm", "occu": 1}], "abc": [0.7499992400000001, 0.76406675, 0.76406974], "properties": {"magmom": 0.037}, "label": "Tm", "xyz": [-6.745180483439599, 0.0001569957877416428, -4.891373794915722]}, {"species": [{"element": "Tm", "occu": 1}], "abc": [0.75000026, 0.99999654, 0.23592973], "properties": {"magmom": 0.037}, "label": "Tm", "xyz": [-5.45525113882262, -5.841252308613736, -4.891380084215417]}, {"species": [{"element": "Tm", "occu": 1}], "abc": [0.24999894, 0.76409184, -4e-08], "properties": {"magmom": 0.037}, "label": "Tm", "xyz": [-3.3725772002250287, -5.841485296542036, -1.6304535519814156]}, {"species": [{"element": "Tm", "occu": 1}], "abc": [0.24999942, 0.2359335, 0.23593055000000002], "properties": {"magmom": 0.037}, "label": "Tm", "xyz": [-2.082803660116171, 1.8860063869530208e-05, -1.6304557158283333]}, {"species": [{"element": "Tm", "occu": 1}], "abc": [0.25000047000000003, 3.339999999999999e-06, 0.76406977], "properties": {"magmom": 0.037}, "label": "Tm", "xyz": [-3.3727278844485453, 5.841424953424155, -1.6304629267219246]}, {"species": [{"element": "Tl", "occu": 1}], "abc": [0.74999996, 0.59852346, 0.9999993300000001], "properties": {"magmom": 0.007}, "label": "Tl", "xyz": [-7.055926112216738, 3.0694601264190933, -4.891378492183031]}, {"species": [{"element": "Tl", "occu": 1}], "abc": [0.75000009, 0.40147219, 0.40147538], "properties": {"magmom": 0.007}, "label": "Tl", "xyz": [-3.5442044226333085, 9.474806620124454e-05, -4.891377688669496]}, {"species": [{"element": "Tl", "occu": 1}], "abc": [0.74999956, 0.99999635, 0.59852439], "properties": {"magmom": 0.007}, "label": "Tl", "xyz": [-7.055794541728154, -3.0691495801175463, -4.89137620060928]}, {"species": [{"element": "Tl", "occu": 1}], "abc": [0.25000007, 0.40147637, 6.2e-07], "properties": {"magmom": 0.007}, "label": "Tl", "xyz": [-1.7720546767240506, -3.0692836590274593, -1.6304599534714326]}, {"species": [{"element": "Tl", "occu": 1}], "abc": [0.25000013, 0.59852781, 0.59852467], "properties": {"magmom": 0.007}, "label": "Tl", "xyz": [-5.2837775580745205, 8.118419270175536e-05, -1.6304619961340132]}, {"species": [{"element": "Tl", "occu": 1}], "abc": [0.24999966, 3.53e-06, 0.40147539], "properties": {"magmom": 0.007}, "label": "Tl", "xyz": [-1.7721857174976392, 3.0693243655787517, -1.6304569623597005]}]}, "task_ids": null, "uncorrected_energy_per_atom": null, "energy_per_atom": -42.31517858125, "formation_energy_per_atom": -0.42228418250000005, "energy_above_hull": 0.0, "is_stable": true, "equilibrium_reaction_energy_per_atom": null, "decomposes_to": null, "xas": null, "grain_boundaries": null, "band_gap": 0.0, "cbm": null, "vbm": null, "efermi": 4.43204323, "is_gap_direct": null, "is_metal": null, "es_source_calc_id": null, "bandstructure": null, "dos": null, "dos_energy_up": null, "dos_energy_down": null, "is_magnetic": null, "ordering": null, "total_magnetization": 0.509858399999999, "total_magnetization_normalized_vol": null, "total_magnetization_normalized_formula_units": null, "num_magnetic_sites": null, "num_unique_magnetic_sites": null, "types_of_magnetic_species": null, "bulk_modulus": null, "shear_modulus": null, "universal_anisotropy": null, "homogeneous_poisson": null, "e_total": null, "e_ionic": null, "e_electronic": null, "n": null, "e_ij_max": null, "weighted_surface_energy_EV_PER_ANG2": null, "weighted_surface_energy": null, "weighted_work_function": null, "surface_anisotropy": null, "shape_factor": null, "has_reconstructed": null, "possible_species": null, "has_props": null, "theoretical": null, "database_IDs": null, "fields_not_requested": ["builder_meta", "nsites", "elements", "nelements", "composition", "composition_reduced", "chemsys", "symmetry", "property_name", "deprecated", "deprecation_reasons", "last_updated", "origins", "warnings", "task_ids", "uncorrected_energy_per_atom", "equilibrium_reaction_energy_per_atom", "decomposes_to", "xas", "grain_boundaries", "cbm", "vbm", "is_gap_direct", "is_metal", "es_source_calc_id", "bandstructure", "dos", "dos_energy_up", "dos_energy_down", "is_magnetic", "ordering", "total_magnetization_normalized_vol", "total_magnetization_normalized_formula_units", "num_magnetic_sites", "num_unique_magnetic_sites", "types_of_magnetic_species", "bulk_modulus", "shear_modulus", "universal_anisotropy", "homogeneous_poisson", "e_total", "e_ionic", "e_electronic", "n", "e_ij_max", "weighted_surface_energy_EV_PER_ANG2", "weighted_surface_energy", "weighted_work_function", "surface_anisotropy", "shape_factor", "has_reconstructed", "possible_species", "has_props", "theoretical", "database_IDs"]}