{
  "builder_meta": null,
  "nsites": null,
  "elements": null,
  "nelements": null,
  "composition": null,
  "composition_reduced": null,
  "formula_pretty": "TmAl2",
  "formula_anonymous": "AB2",
  "chemsys": null,
  "volume": 116.43357138052764,
  "density": 6.357782362014888,
  "density_atomic": 19.40559523008794,
  "symmetry": null,
  "property_name": null,
  "material_id": "mp-858",
  "deprecated": null,
  "deprecation_reasons": null,
  "last_updated": null,
  "origins": null,
  "warnings": null,
  "structure": {
    "@module": "pymatgen.core.structure",
    "@class": "Structure",
    "charge": 0,
    "lattice": {
      "matrix": [
        [4.74673621, -0.0, 2.74052855],
        [1.58224507, 4.47526456, 2.74052855],
        [-0.0, -0.0, 5.48105812]
      ],
      "pbc": [true, true, true],
      "a": 5.481058417923519,
      "b": 5.481057295531255,
      "c": 5.48105812,
      "alpha": 60.000001180086514,
      "beta": 60.0000079540399,
      "gamma": 60.00000201321133,
      "volume": 116.43357138052764
    },
    "properties": {},
    "sites": [
      {
        "species": [{ "element": "Tm", "occu": 1 }],
        "abc": [0.875, 0.875, 0.875],
        "properties": { "magmom": -0.0 },
        "label": "Tm",
        "xyz": [5.53785862, 3.9158564900000004, 9.5918508175]
      },
      {
        "species": [{ "element": "Tm", "occu": 1 }],
        "abc": [0.125, 0.125, 0.125],
        "properties": { "magmom": -0.0 },
        "label": "Tm",
        "xyz": [0.79112266, 0.55940807, 1.3702644025000001]
      },
      {
        "species": [{ "element": "Al", "occu": 1 }],
        "abc": [0.5, 0.5, 0.5],
        "properties": { "magmom": -0.0 },
        "label": "Al",
        "xyz": [3.16449064, 2.23763228, 5.481057610000001]
      },
      {
        "species": [{ "element": "Al", "occu": 1 }],
        "abc": [0.5, 0.5, 0.0],
        "properties": { "magmom": -0.0 },
        "label": "Al",
        "xyz": [3.16449064, 2.23763228, 2.74052855]
      },
      {
        "species": [{ "element": "Al", "occu": 1 }],
        "abc": [-0.0, 0.5, 0.5],
        "properties": { "magmom": -0.0 },
        "label": "Al",
        "xyz": [0.791122535, 2.23763228, 4.110793335]
      },
      {
        "species": [{ "element": "Al", "occu": 1 }],
        "abc": [0.5, -0.0, 0.5],
        "properties": { "magmom": -0.0 },
        "label": "Al",
        "xyz": [2.373368105, 0.0, 4.110793335]
      }
    ]
  },
  "task_ids": null,
  "uncorrected_energy_per_atom": null,
  "energy_per_atom": -16.765680733333333,
  "formation_energy_per_atom": -0.5705990833333341,
  "energy_above_hull": 0.0,
  "is_stable": true,
  "equilibrium_reaction_energy_per_atom": null,
  "decomposes_to": null,
  "xas": null,
  "grain_boundaries": null,
  "band_gap": 0.0,
  "cbm": null,
  "vbm": null,
  "efermi": 5.81859984,
  "is_gap_direct": null,
  "is_metal": null,
  "es_source_calc_id": null,
  "bandstructure": null,
  "dos": null,
  "dos_energy_up": null,
  "dos_energy_down": null,
  "is_magnetic": null,
  "ordering": null,
  "total_magnetization": 0.0,
  "total_magnetization_normalized_vol": null,
  "total_magnetization_normalized_formula_units": null,
  "num_magnetic_sites": null,
  "num_unique_magnetic_sites": null,
  "types_of_magnetic_species": null,
  "bulk_modulus": null,
  "shear_modulus": null,
  "universal_anisotropy": null,
  "homogeneous_poisson": null,
  "e_total": null,
  "e_ionic": null,
  "e_electronic": null,
  "n": null,
  "e_ij_max": null,
  "weighted_surface_energy_EV_PER_ANG2": null,
  "weighted_surface_energy": null,
  "weighted_work_function": null,
  "surface_anisotropy": null,
  "shape_factor": null,
  "has_reconstructed": null,
  "possible_species": null,
  "has_props": null,
  "theoretical": null,
  "database_IDs": null,
  "fields_not_requested": [
    "builder_meta",
    "nsites",
    "elements",
    "nelements",
    "composition",
    "composition_reduced",
    "chemsys",
    "symmetry",
    "property_name",
    "deprecated",
    "deprecation_reasons",
    "last_updated",
    "origins",
    "warnings",
    "task_ids",
    "uncorrected_energy_per_atom",
    "equilibrium_reaction_energy_per_atom",
    "decomposes_to",
    "xas",
    "grain_boundaries",
    "cbm",
    "vbm",
    "is_gap_direct",
    "is_metal",
    "es_source_calc_id",
    "bandstructure",
    "dos",
    "dos_energy_up",
    "dos_energy_down",
    "is_magnetic",
    "ordering",
    "total_magnetization_normalized_vol",
    "total_magnetization_normalized_formula_units",
    "num_magnetic_sites",
    "num_unique_magnetic_sites",
    "types_of_magnetic_species",
    "bulk_modulus",
    "shear_modulus",
    "universal_anisotropy",
    "homogeneous_poisson",
    "e_total",
    "e_ionic",
    "e_electronic",
    "n",
    "e_ij_max",
    "weighted_surface_energy_EV_PER_ANG2",
    "weighted_surface_energy",
    "weighted_work_function",
    "surface_anisotropy",
    "shape_factor",
    "has_reconstructed",
    "possible_species",
    "has_props",
    "theoretical",
    "database_IDs"
  ]
}
