{
  "builder_meta": null,
  "nsites": null,
  "elements": null,
  "nelements": null,
  "composition": null,
  "composition_reduced": null,
  "formula_pretty": "TmAl",
  "formula_anonymous": "AB",
  "chemsys": null,
  "volume": 357.46958159230434,
  "density": 7.280636363258895,
  "density_atomic": 22.34184884951902,
  "symmetry": null,
  "property_name": null,
  "material_id": "mp-16721",
  "deprecated": null,
  "deprecation_reasons": null,
  "last_updated": null,
  "origins": null,
  "warnings": null,
  "structure": {
    "@module": "pymatgen.core.structure",
    "@class": "Structure",
    "charge": 0,
    "lattice": {
      "matrix": [
        [5.53245548, -0.0, 0.0],
        [-0.0, 5.7505136199999995, 2.493e-5],
        [1.02e-6, 5.0880000000000014e-5, 11.23607237]
      ],
      "pbc": [true, true, true],
      "a": 5.53245548,
      "b": 5.750513620054039,
      "c": 11.236072370115247,
      "alpha": 89.99949215670132,
      "beta": 89.99999479874343,
      "gamma": 90.0,
      "volume": 357.4695815923042
    },
    "properties": {},
    "sites": [
      {
        "species": [{ "element": "Tm", "occu": 1 }],
        "abc": [0.25, 0.16061836000000002, 0.01639751],
        "properties": { "magmom": -0.0 },
        "label": "Tm",
        "xyz": [1.3831138867254602, 0.923638901107372, 0.18424761326351352]
      },
      {
        "species": [{ "element": "Tm", "occu": 1 }],
        "abc": [0.75, 0.83938164, 0.98360249],
        "properties": { "magmom": -0.0 },
        "label": "Tm",
        "xyz": [4.14934261327454, 4.826925598892628, 11.051849686736487]
      },
      {
        "species": [{ "element": "Tm", "occu": 1 }],
        "abc": [0.75, 0.160635399999999, 0.48357906],
        "properties": { "magmom": 0.0 },
        "label": "Tm",
        "xyz": [4.149342103250642, 0.9237606600567151, 5.433533319417095]
      },
      {
        "species": [{ "element": "Tm", "occu": 1 }],
        "abc": [0.25, 0.8393646, 0.51642094],
        "properties": { "magmom": 0.0 },
        "label": "Tm",
        "xyz": [1.3831143967493589, 4.826803839943279, 5.802563980582907]
      },
      {
        "species": [{ "element": "Tm", "occu": 1 }],
        "abc": [0.25, 0.39830278, 0.331368899999999],
        "properties": { "magmom": 0.0 },
        "label": "Tm",
        "xyz": [1.3831142079962782, 2.2904624213234954, 3.7232948712555873]
      },
      {
        "species": [{ "element": "Tm", "occu": 1 }],
        "abc": [0.75, 0.60169722, 0.668631099999999],
        "properties": { "magmom": 0.0 },
        "label": "Tm",
        "xyz": [4.149342292003722, 3.460102078676504, 7.512802428744392]
      },
      {
        "species": [{ "element": "Tm", "occu": 1 }],
        "abc": [0.75, 0.39829837, 0.16844482],
        "properties": { "magmom": -0.0 },
        "label": "Tm",
        "xyz": [4.149341781813717, 2.2904287719812406, 1.8926681174499875]
      },
      {
        "species": [{ "element": "Tm", "occu": 1 }],
        "abc": [0.25, 0.60170163, 0.8315551800000001],
        "properties": { "magmom": -0.0 },
        "label": "Tm",
        "xyz": [1.3831147181862837, 3.460135728018759, 9.343429182550013]
      },
      {
        "species": [{ "element": "Al", "occu": 1 }],
        "abc": [-1.75e-6, 0.9307069, 0.24996121000000002],
        "properties": { "magmom": 0.0 },
        "label": "Al",
        "xyz": [-9.4268366558e-6, 5.352055422704342, 2.8086054477757854]
      },
      {
        "species": [{ "element": "Al", "occu": 1 }],
        "abc": [0.49999825000000003, 0.0692931, 0.7500387900000001],
        "properties": { "magmom": 0.0 },
        "label": "Al",
        "xyz": [2.7662188232424763, 0.39850907729565715, 8.427491852224216]
      },
      {
        "species": [{ "element": "Al", "occu": 1 }],
        "abc": [1.00000175, 0.0692931, 0.7500387900000001],
        "properties": { "magmom": 0.0 },
        "label": "Al",
        "xyz": [5.5324659268366565, 0.39850907729565715, 8.427491852224216]
      },
      {
        "species": [{ "element": "Al", "occu": 1 }],
        "abc": [0.50000175, 0.9307069, 0.24996121000000002],
        "properties": { "magmom": 0.0 },
        "label": "Al",
        "xyz": [2.7662376767575245, 5.352055422704342, 2.8086054477757854]
      },
      {
        "species": [{ "element": "Al", "occu": 1 }],
        "abc": [0.25, 0.6590643700000001, 0.09714951000000001],
        "properties": { "magmom": 0.0 },
        "label": "Al",
        "xyz": [1.3831139690925003, 3.7899635791087887, 1.0915953555447828]
      },
      {
        "species": [{ "element": "Al", "occu": 1 }],
        "abc": [0.75, 0.34093563, 0.9028504900000001],
        "properties": { "magmom": 0.0 },
        "label": "Al",
        "xyz": [4.1493425309075, 1.9606009208912114, 10.144501944455218]
      },
      {
        "species": [{ "element": "Al", "occu": 1 }],
        "abc": [0.75, 0.65905148, 0.40281272],
        "properties": { "magmom": -0.0 },
        "label": "Al",
        "xyz": [4.149342020868975, 3.789905007132351, 4.526049303629943]
      },
      {
        "species": [{ "element": "Al", "occu": 1 }],
        "abc": [0.25, 0.34094852000000003, 0.59718728],
        "properties": { "magmom": -0.0 },
        "label": "Al",
        "xyz": [1.3831144791310257, 1.9606594928676488, 6.710047996370057]
      }
    ]
  },
  "task_ids": null,
  "uncorrected_energy_per_atom": null,
  "energy_per_atom": -21.3973636825,
  "formation_energy_per_atom": -0.47079037250000105,
  "energy_above_hull": 0.0,
  "is_stable": true,
  "equilibrium_reaction_energy_per_atom": null,
  "decomposes_to": null,
  "xas": null,
  "grain_boundaries": null,
  "band_gap": 0.0,
  "cbm": null,
  "vbm": null,
  "efermi": 4.60636284,
  "is_gap_direct": null,
  "is_metal": null,
  "es_source_calc_id": null,
  "bandstructure": null,
  "dos": null,
  "dos_energy_up": null,
  "dos_energy_down": null,
  "is_magnetic": null,
  "ordering": null,
  "total_magnetization": 6e-7,
  "total_magnetization_normalized_vol": null,
  "total_magnetization_normalized_formula_units": null,
  "num_magnetic_sites": null,
  "num_unique_magnetic_sites": null,
  "types_of_magnetic_species": null,
  "bulk_modulus": null,
  "shear_modulus": null,
  "universal_anisotropy": null,
  "homogeneous_poisson": null,
  "e_total": null,
  "e_ionic": null,
  "e_electronic": null,
  "n": null,
  "e_ij_max": null,
  "weighted_surface_energy_EV_PER_ANG2": null,
  "weighted_surface_energy": null,
  "weighted_work_function": null,
  "surface_anisotropy": null,
  "shape_factor": null,
  "has_reconstructed": null,
  "possible_species": null,
  "has_props": null,
  "theoretical": null,
  "database_IDs": null,
  "fields_not_requested": [
    "builder_meta",
    "nsites",
    "elements",
    "nelements",
    "composition",
    "composition_reduced",
    "chemsys",
    "symmetry",
    "property_name",
    "deprecated",
    "deprecation_reasons",
    "last_updated",
    "origins",
    "warnings",
    "task_ids",
    "uncorrected_energy_per_atom",
    "equilibrium_reaction_energy_per_atom",
    "decomposes_to",
    "xas",
    "grain_boundaries",
    "cbm",
    "vbm",
    "is_gap_direct",
    "is_metal",
    "es_source_calc_id",
    "bandstructure",
    "dos",
    "dos_energy_up",
    "dos_energy_down",
    "is_magnetic",
    "ordering",
    "total_magnetization_normalized_vol",
    "total_magnetization_normalized_formula_units",
    "num_magnetic_sites",
    "num_unique_magnetic_sites",
    "types_of_magnetic_species",
    "bulk_modulus",
    "shear_modulus",
    "universal_anisotropy",
    "homogeneous_poisson",
    "e_total",
    "e_ionic",
    "e_electronic",
    "n",
    "e_ij_max",
    "weighted_surface_energy_EV_PER_ANG2",
    "weighted_surface_energy",
    "weighted_work_function",
    "surface_anisotropy",
    "shape_factor",
    "has_reconstructed",
    "possible_species",
    "has_props",
    "theoretical",
    "database_IDs"
  ]
}
