{
  "builder_meta": null,
  "nsites": null,
  "elements": null,
  "nelements": null,
  "composition": null,
  "composition_reduced": null,
  "formula_pretty": "TmAs3",
  "formula_anonymous": "AB3",
  "chemsys": null,
  "volume": 167.58365073388975,
  "density": 7.802104605357404,
  "density_atomic": 20.94795634173622,
  "symmetry": null,
  "property_name": null,
  "material_id": "mp-979900",
  "deprecated": null,
  "deprecation_reasons": null,
  "last_updated": null,
  "origins": null,
  "warnings": null,
  "structure": {
    "@module": "pymatgen.core.structure",
    "@class": "Structure",
    "charge": 0,
    "lattice": {
      "matrix": [
        [2.968156, -5.140997, 0.0],
        [2.968156, 5.140997, 0.0],
        [0.0, 0.0, 5.491204]
      ],
      "pbc": [true, true, true],
      "a": 5.936312002779587,
      "b": 5.936312002779587,
      "c": 5.491204,
      "alpha": 90.0,
      "beta": 90.0,
      "gamma": 120.00000003097817,
      "volume": 167.58365073388975
    },
    "properties": {},
    "sites": [
      {
        "species": [{ "element": "Tm", "occu": 1 }],
        "abc": [0.333333, 0.666667, 0.75],
        "properties": { "magmom": -0.0 },
        "label": "Tm",
        "xyz": [2.968156, 1.713669093998, 4.118403]
      },
      {
        "species": [{ "element": "Tm", "occu": 1 }],
        "abc": [0.666667, 0.333333, 0.25],
        "properties": { "magmom": -0.0 },
        "label": "Tm",
        "xyz": [2.968156, -1.713669093998, 1.372801]
      },
      {
        "species": [{ "element": "As", "occu": 1 }],
        "abc": [0.181664, 0.363328, 0.25],
        "properties": { "magmom": -0.0 },
        "label": "As",
        "xyz": [1.6176212747519998, 0.9339340790079999, 1.372801]
      },
      {
        "species": [{ "element": "As", "occu": 1 }],
        "abc": [0.636672, 0.818336, 0.25],
        "properties": { "magmom": 0.0 },
        "label": "As",
        "xyz": [4.3186907252480005, 0.933934079008, 1.372801]
      },
      {
        "species": [{ "element": "As", "occu": 1 }],
        "abc": [0.181664, 0.818336, 0.25],
        "properties": { "magmom": 0.0 },
        "label": "As",
        "xyz": [2.9681559999999996, 3.2731288419839997, 1.372801]
      },
      {
        "species": [{ "element": "As", "occu": 1 }],
        "abc": [0.818336, 0.636672, 0.75],
        "properties": { "magmom": -0.0 },
        "label": "As",
        "xyz": [4.3186907252480005, -0.933934079008, 4.118403]
      },
      {
        "species": [{ "element": "As", "occu": 1 }],
        "abc": [0.363328, 0.181664, 0.75],
        "properties": { "magmom": 0.0 },
        "label": "As",
        "xyz": [1.6176212747519998, -0.9339340790079999, 4.118403]
      },
      {
        "species": [{ "element": "As", "occu": 1 }],
        "abc": [0.818336, 0.181664, 0.75],
        "properties": { "magmom": 0.0 },
        "label": "As",
        "xyz": [2.9681559999999996, -3.2731288419839997, 4.118403]
      }
    ]
  },
  "task_ids": null,
  "uncorrected_energy_per_atom": null,
  "energy_per_atom": -20.3990919275,
  "formation_energy_per_atom": -0.588181614374999,
  "energy_above_hull": 0.299586748749998,
  "is_stable": false,
  "equilibrium_reaction_energy_per_atom": null,
  "decomposes_to": null,
  "xas": null,
  "grain_boundaries": null,
  "band_gap": 0.0,
  "cbm": null,
  "vbm": null,
  "efermi": 5.49544874,
  "is_gap_direct": null,
  "is_metal": null,
  "es_source_calc_id": null,
  "bandstructure": null,
  "dos": null,
  "dos_energy_up": null,
  "dos_energy_down": null,
  "is_magnetic": null,
  "ordering": null,
  "total_magnetization": 9.16e-5,
  "total_magnetization_normalized_vol": null,
  "total_magnetization_normalized_formula_units": null,
  "num_magnetic_sites": null,
  "num_unique_magnetic_sites": null,
  "types_of_magnetic_species": null,
  "bulk_modulus": null,
  "shear_modulus": null,
  "universal_anisotropy": null,
  "homogeneous_poisson": null,
  "e_total": null,
  "e_ionic": null,
  "e_electronic": null,
  "n": null,
  "e_ij_max": null,
  "weighted_surface_energy_EV_PER_ANG2": null,
  "weighted_surface_energy": null,
  "weighted_work_function": null,
  "surface_anisotropy": null,
  "shape_factor": null,
  "has_reconstructed": null,
  "possible_species": null,
  "has_props": null,
  "theoretical": null,
  "database_IDs": null,
  "fields_not_requested": [
    "builder_meta",
    "nsites",
    "elements",
    "nelements",
    "composition",
    "composition_reduced",
    "chemsys",
    "symmetry",
    "property_name",
    "deprecated",
    "deprecation_reasons",
    "last_updated",
    "origins",
    "warnings",
    "task_ids",
    "uncorrected_energy_per_atom",
    "equilibrium_reaction_energy_per_atom",
    "decomposes_to",
    "xas",
    "grain_boundaries",
    "cbm",
    "vbm",
    "is_gap_direct",
    "is_metal",
    "es_source_calc_id",
    "bandstructure",
    "dos",
    "dos_energy_up",
    "dos_energy_down",
    "is_magnetic",
    "ordering",
    "total_magnetization_normalized_vol",
    "total_magnetization_normalized_formula_units",
    "num_magnetic_sites",
    "num_unique_magnetic_sites",
    "types_of_magnetic_species",
    "bulk_modulus",
    "shear_modulus",
    "universal_anisotropy",
    "homogeneous_poisson",
    "e_total",
    "e_ionic",
    "e_electronic",
    "n",
    "e_ij_max",
    "weighted_surface_energy_EV_PER_ANG2",
    "weighted_surface_energy",
    "weighted_work_function",
    "surface_anisotropy",
    "shape_factor",
    "has_reconstructed",
    "possible_species",
    "has_props",
    "theoretical",
    "database_IDs"
  ]
}
