{"builder_meta": null, "nsites": null, "elements": null, "nelements": null, "composition": null, "composition_reduced": null, "formula_pretty": "TmAu4", "formula_anonymous": "AB4", "chemsys": null, "volume": 93.44825286720854, "density": 17.001972077558076, "density_atomic": 18.689650573441707, "symmetry": null, "property_name": null, "material_id": "mp-1068348", "deprecated": null, "deprecation_reasons": null, "last_updated": null, "origins": null, "warnings": null, "structure": {"@module": "pymatgen.core.structure", "@class": "Structure", "charge": 0, "lattice": {"matrix": [[-2e-08, 0.0, 4.16054348], [-3.35115605, 3.35117012, 2.08027327], [-3.35117013, -3.3511560400000002, 2.08027327]], "pbc": [true, true, true], "a": 4.16054348, "b": 5.175724579467971, "c": 5.175724579467999, "alpha": 80.70330821517038, "beta": 66.30118117404939, "gamma": 66.30118117405007, "volume": 93.44825286720854}, "properties": {}, "sites": [{"species": [{"element": "Tm", "occu": 1}], "abc": [-0.0, -0.0, 0.0], "properties": {"magmom": 0.0}, "label": "Tm", "xyz": [0.0, 0.0, 0.0]}, {"species": [{"element": "Au", "occu": 1}], "abc": [0.60003918, 0.5996834400000001, 0.2002372], "properties": {"magmom": -0.0}, "label": "Au", "xyz": [-2.680661723596432, 1.338615123374125, 4.1605426236068395]}, {"species": [{"element": "Au", "occu": 1}], "abc": [0.39996082, 0.40031656, 0.7997628], "properties": {"magmom": -0.0}, "label": "Au", "xyz": [-4.0216644764035685, -1.338601043374125, 4.160547396393161]}, {"species": [{"element": "Au", "occu": 1}], "abc": [0.19972162000000002, 0.2002372, 0.40031656], "properties": {"magmom": -0.0}, "label": "Au", "xyz": [-2.012555006625845, -0.6704943364035584, 2.080266418032033]}, {"species": [{"element": "Au", "occu": 1}], "abc": [0.8002783800000001, 0.7997628, 0.5996834400000001], "properties": {"magmom": -0.0}, "label": "Au", "xyz": [-4.689771193374154, 0.6705084164035582, 6.240823601967968]}]}, "task_ids": null, "uncorrected_energy_per_atom": null, "energy_per_atom": -48.150858878, "formation_energy_per_atom": -0.658681100000001, "energy_above_hull": 0.0, "is_stable": true, "equilibrium_reaction_energy_per_atom": null, "decomposes_to": null, "xas": null, "grain_boundaries": null, "band_gap": 0.0, "cbm": null, "vbm": null, "efermi": 5.54531724, "is_gap_direct": null, "is_metal": null, "es_source_calc_id": null, "bandstructure": null, "dos": null, "dos_energy_up": null, "dos_energy_down": null, "is_magnetic": null, "ordering": null, "total_magnetization": 0.0, "total_magnetization_normalized_vol": null, "total_magnetization_normalized_formula_units": null, "num_magnetic_sites": null, "num_unique_magnetic_sites": null, "types_of_magnetic_species": null, "bulk_modulus": null, "shear_modulus": null, "universal_anisotropy": null, "homogeneous_poisson": null, "e_total": null, "e_ionic": null, "e_electronic": null, "n": null, "e_ij_max": null, "weighted_surface_energy_EV_PER_ANG2": null, "weighted_surface_energy": null, "weighted_work_function": null, "surface_anisotropy": null, "shape_factor": null, "has_reconstructed": null, "possible_species": null, "has_props": null, "theoretical": null, "database_IDs": null, "fields_not_requested": ["builder_meta", "nsites", "elements", "nelements", "composition", "composition_reduced", "chemsys", "symmetry", "property_name", "deprecated", "deprecation_reasons", "last_updated", "origins", "warnings", "task_ids", "uncorrected_energy_per_atom", "equilibrium_reaction_energy_per_atom", "decomposes_to", "xas", "grain_boundaries", "cbm", "vbm", "is_gap_direct", "is_metal", "es_source_calc_id", "bandstructure", "dos", "dos_energy_up", "dos_energy_down", "is_magnetic", "ordering", "total_magnetization_normalized_vol", "total_magnetization_normalized_formula_units", "num_magnetic_sites", "num_unique_magnetic_sites", "types_of_magnetic_species", "bulk_modulus", "shear_modulus", "universal_anisotropy", "homogeneous_poisson", "e_total", "e_ionic", "e_electronic", "n", "e_ij_max", "weighted_surface_energy_EV_PER_ANG2", "weighted_surface_energy", "weighted_work_function", "surface_anisotropy", "shape_factor", "has_reconstructed", "possible_species", "has_props", "theoretical", "database_IDs"]}