{"builder_meta": null, "nsites": null, "elements": null, "nelements": null, "composition": null, "composition_reduced": null, "formula_pretty": "TmB4", "formula_anonymous": "AB4", "chemsys": null, "volume": 197.0606834769276, "density": 7.151709830084103, "density_atomic": 9.85303417384638, "symmetry": null, "property_name": null, "material_id": "mp-568143", "deprecated": null, "deprecation_reasons": null, "last_updated": null, "origins": null, "warnings": null, "structure": {"@module": "pymatgen.core.structure", "@class": "Structure", "charge": 0, "lattice": {"matrix": [[3.97653379, -0.0, 0.0], [0.0, 7.03959467, 0.0], [0.0, 0.0, 7.03959467]], "pbc": [true, true, true], "a": 3.97653379, "b": 7.03959467, "c": 7.03959467, "alpha": 90.0, "beta": 90.0, "gamma": 90.0, "volume": 197.0606834769276}, "properties": {}, "sites": [{"species": [{"element": "Tm", "occu": 1}], "abc": [0.0, 0.68119388, 0.18119388], "properties": {"magmom": -0.0}, "label": "Tm", "xyz": [0.0, 4.795328806884619, 1.2755314718846196]}, {"species": [{"element": "Tm", "occu": 1}], "abc": [0.0, 0.31880612, 0.81880612], "properties": {"magmom": -0.0}, "label": "Tm", "xyz": [0.0, 2.2442658631153805, 5.76406319811538]}, {"species": [{"element": "Tm", "occu": 1}], "abc": [0.0, 0.81880612, 0.68119388], "properties": {"magmom": -0.0}, "label": "Tm", "xyz": [0.0, 5.76406319811538, 4.795328806884619]}, {"species": [{"element": "Tm", "occu": 1}], "abc": [0.0, 0.18119388, 0.31880612], "properties": {"magmom": -0.0}, "label": "Tm", "xyz": [0.0, 1.2755314718846196, 2.2442658631153805]}, {"species": [{"element": "B", "occu": 1}], "abc": [0.5, 0.41319044, 0.08680956000000001], "properties": {"magmom": 0.0}, "label": "B", "xyz": [1.988266895, 2.9086932191189545, 0.6111041158810452]}, {"species": [{"element": "B", "occu": 1}], "abc": [0.7977000000000001, 0.5, 0.5], "properties": {"magmom": 0.0}, "label": "B", "xyz": [3.172081004283, 3.519797335, 3.519797335]}, {"species": [{"element": "B", "occu": 1}], "abc": [0.5, 0.82337817, 0.96172914], "properties": {"magmom": -0.0}, "label": "B", "xyz": [1.988266895, 5.796248576926354, 6.7701833279276835]}, {"species": [{"element": "B", "occu": 1}], "abc": [0.5, 0.53827086, 0.67662183], "properties": {"magmom": -0.0}, "label": "B", "xyz": [1.988266895, 3.789208677072316, 4.763143428073645]}, {"species": [{"element": "B", "occu": 1}], "abc": [0.2023, 0.5, 0.5], "properties": {"magmom": 0.0}, "label": "B", "xyz": [0.8044527857170001, 3.519797335, 3.519797335]}, {"species": [{"element": "B", "occu": 1}], "abc": [0.5, 0.46172914, 0.32337817], "properties": {"magmom": -0.0}, "label": "B", "xyz": [1.988266895, 3.2503859929276837, 2.276451241926354]}, {"species": [{"element": "B", "occu": 1}], "abc": [0.2023, -0.0, 0.0], "properties": {"magmom": 0.0}, "label": "B", "xyz": [0.8044527857170001, 0.0, 0.0]}, {"species": [{"element": "B", "occu": 1}], "abc": [0.5, 0.17662183, 0.038270860000000004], "properties": {"magmom": -0.0}, "label": "B", "xyz": [1.988266895, 1.2433460930736462, 0.2694113420723162]}, {"species": [{"element": "B", "occu": 1}], "abc": [0.5, 0.32337817, 0.53827086], "properties": {"magmom": -0.0}, "label": "B", "xyz": [1.988266895, 2.276451241926354, 3.789208677072316]}, {"species": [{"element": "B", "occu": 1}], "abc": [0.5, 0.038270860000000004, 0.82337817], "properties": {"magmom": -0.0}, "label": "B", "xyz": [1.988266895, 0.2694113420723162, 5.796248576926354]}, {"species": [{"element": "B", "occu": 1}], "abc": [0.5, 0.08680956000000001, 0.5868095600000001], "properties": {"magmom": 0.0}, "label": "B", "xyz": [1.988266895, 0.6111041158810452, 4.130901450881045]}, {"species": [{"element": "B", "occu": 1}], "abc": [0.5, 0.67662183, 0.46172914], "properties": {"magmom": -0.0}, "label": "B", "xyz": [1.988266895, 4.763143428073645, 3.2503859929276837]}, {"species": [{"element": "B", "occu": 1}], "abc": [0.5, 0.91319044, 0.41319044], "properties": {"magmom": 0.0}, "label": "B", "xyz": [1.988266895, 6.428490554118955, 2.9086932191189545]}, {"species": [{"element": "B", "occu": 1}], "abc": [0.5, 0.5868095600000001, 0.91319044], "properties": {"magmom": 0.0}, "label": "B", "xyz": [1.988266895, 4.130901450881045, 6.428490554118955]}, {"species": [{"element": "B", "occu": 1}], "abc": [0.5, 0.96172914, 0.17662183], "properties": {"magmom": -0.0}, "label": "B", "xyz": [1.988266895, 6.7701833279276835, 1.2433460930736462]}, {"species": [{"element": "B", "occu": 1}], "abc": [0.7977000000000001, -0.0, 0.0], "properties": {"magmom": 0.0}, "label": "B", "xyz": [3.172081004283, 0.0, 0.0]}]}, "task_ids": null, "uncorrected_energy_per_atom": null, "energy_per_atom": -13.5495412145, "formation_energy_per_atom": -0.648248198499999, "energy_above_hull": 0.0, "is_stable": true, "equilibrium_reaction_energy_per_atom": null, "decomposes_to": null, "xas": null, "grain_boundaries": null, "band_gap": 0.0, "cbm": null, "vbm": null, "efermi": 5.86685332, "is_gap_direct": null, "is_metal": null, "es_source_calc_id": null, "bandstructure": null, "dos": null, "dos_energy_up": null, "dos_energy_down": null, "is_magnetic": null, "ordering": null, "total_magnetization": 0.0, "total_magnetization_normalized_vol": null, "total_magnetization_normalized_formula_units": null, "num_magnetic_sites": null, "num_unique_magnetic_sites": null, "types_of_magnetic_species": null, "bulk_modulus": null, "shear_modulus": null, "universal_anisotropy": null, "homogeneous_poisson": null, "e_total": null, "e_ionic": null, "e_electronic": null, "n": null, "e_ij_max": null, "weighted_surface_energy_EV_PER_ANG2": null, "weighted_surface_energy": null, "weighted_work_function": null, "surface_anisotropy": null, "shape_factor": null, "has_reconstructed": null, "possible_species": null, "has_props": null, "theoretical": null, "database_IDs": null, "fields_not_requested": ["builder_meta", "nsites", "elements", "nelements", "composition", "composition_reduced", "chemsys", "symmetry", "property_name", "deprecated", "deprecation_reasons", "last_updated", "origins", "warnings", "task_ids", "uncorrected_energy_per_atom", "equilibrium_reaction_energy_per_atom", "decomposes_to", "xas", "grain_boundaries", "cbm", "vbm", "is_gap_direct", "is_metal", "es_source_calc_id", "bandstructure", "dos", "dos_energy_up", "dos_energy_down", "is_magnetic", "ordering", "total_magnetization_normalized_vol", "total_magnetization_normalized_formula_units", "num_magnetic_sites", "num_unique_magnetic_sites", "types_of_magnetic_species", "bulk_modulus", "shear_modulus", "universal_anisotropy", "homogeneous_poisson", "e_total", "e_ionic", "e_electronic", "n", "e_ij_max", "weighted_surface_energy_EV_PER_ANG2", "weighted_surface_energy", "weighted_work_function", "surface_anisotropy", "shape_factor", "has_reconstructed", "possible_species", "has_props", "theoretical", "database_IDs"]}