{
  "builder_meta": null,
  "nsites": null,
  "elements": null,
  "nelements": null,
  "composition": null,
  "composition_reduced": null,
  "formula_pretty": "TmB6",
  "formula_anonymous": "AB6",
  "chemsys": null,
  "volume": 67.95577244155255,
  "density": 5.713044948730394,
  "density_atomic": 9.707967491650365,
  "symmetry": null,
  "property_name": null,
  "material_id": "mp-571352",
  "deprecated": null,
  "deprecation_reasons": null,
  "last_updated": null,
  "origins": null,
  "warnings": null,
  "structure": {
    "@module": "pymatgen.core.structure",
    "@class": "Structure",
    "charge": 0,
    "lattice": {
      "matrix": [
        [4.08077, 0.0, 0.0],
        [0.0, 4.08077, 0.0],
        [0.0, 0.0, 4.08077]
      ],
      "pbc": [true, true, true],
      "a": 4.08077,
      "b": 4.08077,
      "c": 4.08077,
      "alpha": 90.0,
      "beta": 90.0,
      "gamma": 90.0,
      "volume": 67.95577244155255
    },
    "properties": {},
    "sites": [
      {
        "species": [{ "element": "Tm", "occu": 1 }],
        "abc": [0.0, 0.0, 0.0],
        "properties": { "magmom": 0.0 },
        "label": "Tm",
        "xyz": [0.0, 0.0, 0.0]
      },
      {
        "species": [{ "element": "B", "occu": 1 }],
        "abc": [0.198512, 0.5, 0.5],
        "properties": { "magmom": -0.0 },
        "label": "B",
        "xyz": [0.81008181424, 2.040385, 2.040385]
      },
      {
        "species": [{ "element": "B", "occu": 1 }],
        "abc": [0.5, 0.801488, 0.5],
        "properties": { "magmom": 0.0 },
        "label": "B",
        "xyz": [2.040385, 3.27068818576, 2.040385]
      },
      {
        "species": [{ "element": "B", "occu": 1 }],
        "abc": [0.5, 0.198512, 0.5],
        "properties": { "magmom": 0.0 },
        "label": "B",
        "xyz": [2.040385, 0.81008181424, 2.040385]
      },
      {
        "species": [{ "element": "B", "occu": 1 }],
        "abc": [0.801488, 0.5, 0.5],
        "properties": { "magmom": -0.0 },
        "label": "B",
        "xyz": [3.27068818576, 2.040385, 2.040385]
      },
      {
        "species": [{ "element": "B", "occu": 1 }],
        "abc": [0.5, 0.5, 0.198512],
        "properties": { "magmom": 0.0 },
        "label": "B",
        "xyz": [2.040385, 2.040385, 0.81008181424]
      },
      {
        "species": [{ "element": "B", "occu": 1 }],
        "abc": [0.5, 0.5, 0.801488],
        "properties": { "magmom": 0.0 },
        "label": "B",
        "xyz": [2.040385, 2.040385, 3.27068818576]
      }
    ]
  },
  "task_ids": null,
  "uncorrected_energy_per_atom": null,
  "energy_per_atom": -11.705684512142861,
  "formation_energy_per_atom": -0.39151687285714604,
  "energy_above_hull": 0.079317357767855,
  "is_stable": false,
  "equilibrium_reaction_energy_per_atom": null,
  "decomposes_to": null,
  "xas": null,
  "grain_boundaries": null,
  "band_gap": 0.0,
  "cbm": null,
  "vbm": null,
  "efermi": 6.87839166,
  "is_gap_direct": null,
  "is_metal": null,
  "es_source_calc_id": null,
  "bandstructure": null,
  "dos": null,
  "dos_energy_up": null,
  "dos_energy_down": null,
  "is_magnetic": null,
  "ordering": null,
  "total_magnetization": 5.099999999999999e-6,
  "total_magnetization_normalized_vol": null,
  "total_magnetization_normalized_formula_units": null,
  "num_magnetic_sites": null,
  "num_unique_magnetic_sites": null,
  "types_of_magnetic_species": null,
  "bulk_modulus": null,
  "shear_modulus": null,
  "universal_anisotropy": null,
  "homogeneous_poisson": null,
  "e_total": null,
  "e_ionic": null,
  "e_electronic": null,
  "n": null,
  "e_ij_max": null,
  "weighted_surface_energy_EV_PER_ANG2": null,
  "weighted_surface_energy": null,
  "weighted_work_function": null,
  "surface_anisotropy": null,
  "shape_factor": null,
  "has_reconstructed": null,
  "possible_species": null,
  "has_props": null,
  "theoretical": null,
  "database_IDs": null,
  "fields_not_requested": [
    "builder_meta",
    "nsites",
    "elements",
    "nelements",
    "composition",
    "composition_reduced",
    "chemsys",
    "symmetry",
    "property_name",
    "deprecated",
    "deprecation_reasons",
    "last_updated",
    "origins",
    "warnings",
    "task_ids",
    "uncorrected_energy_per_atom",
    "equilibrium_reaction_energy_per_atom",
    "decomposes_to",
    "xas",
    "grain_boundaries",
    "cbm",
    "vbm",
    "is_gap_direct",
    "is_metal",
    "es_source_calc_id",
    "bandstructure",
    "dos",
    "dos_energy_up",
    "dos_energy_down",
    "is_magnetic",
    "ordering",
    "total_magnetization_normalized_vol",
    "total_magnetization_normalized_formula_units",
    "num_magnetic_sites",
    "num_unique_magnetic_sites",
    "types_of_magnetic_species",
    "bulk_modulus",
    "shear_modulus",
    "universal_anisotropy",
    "homogeneous_poisson",
    "e_total",
    "e_ionic",
    "e_electronic",
    "n",
    "e_ij_max",
    "weighted_surface_energy_EV_PER_ANG2",
    "weighted_surface_energy",
    "weighted_work_function",
    "surface_anisotropy",
    "shape_factor",
    "has_reconstructed",
    "possible_species",
    "has_props",
    "theoretical",
    "database_IDs"
  ]
}
