{
  "builder_meta": null,
  "nsites": null,
  "elements": null,
  "nelements": null,
  "composition": null,
  "composition_reduced": null,
  "formula_pretty": "TmBi3",
  "formula_anonymous": "AB3",
  "chemsys": null,
  "volume": 242.54750655037387,
  "density": 10.897512237890743,
  "density_atomic": 30.318438318796733,
  "symmetry": null,
  "property_name": null,
  "material_id": "mp-1187685",
  "deprecated": null,
  "deprecation_reasons": null,
  "last_updated": null,
  "origins": null,
  "warnings": null,
  "structure": {
    "@module": "pymatgen.core.structure",
    "@class": "Structure",
    "charge": 0,
    "lattice": {
      "matrix": [
        [3.416464, -5.91749, 0.0],
        [3.416464, 5.91749, 0.0],
        [0.0, 0.0, 5.998635]
      ],
      "pbc": [true, true, true],
      "a": 6.832928666640388,
      "b": 6.832928666640388,
      "c": 5.998635,
      "alpha": 90.0,
      "beta": 90.0,
      "gamma": 120.00000645470993,
      "volume": 242.54750655037387
    },
    "properties": {},
    "sites": [
      {
        "species": [{ "element": "Tm", "occu": 1 }],
        "abc": [0.333333, 0.666667, 0.75],
        "properties": { "magmom": 0.0 },
        "label": "Tm",
        "xyz": [3.4164640000000004, 1.9725006116600001, 4.49897625]
      },
      {
        "species": [{ "element": "Tm", "occu": 1 }],
        "abc": [0.666667, 0.333333, 0.25],
        "properties": { "magmom": 0.0 },
        "label": "Tm",
        "xyz": [3.4164640000000004, -1.9725006116600001, 1.49965875]
      },
      {
        "species": [{ "element": "Bi", "occu": 1 }],
        "abc": [0.172547999999999, 0.345097, 0.25],
        "properties": { "magmom": -0.001 },
        "label": "Bi",
        "xyz": [1.7685155072799965, 1.021056982010006, 1.49965875]
      },
      {
        "species": [{ "element": "Bi", "occu": 1 }],
        "abc": [0.654903, 0.827452, 0.25],
        "properties": { "magmom": -0.0 },
        "label": "Bi",
        "xyz": [5.06441249272, 1.0210569820100002, 1.49965875]
      },
      {
        "species": [{ "element": "Bi", "occu": 1 }],
        "abc": [0.172547999999999, 0.827452, 0.25],
        "properties": { "magmom": 0.001 },
        "label": "Bi",
        "xyz": [3.4164639999999964, 3.875387870960006, 1.49965875]
      },
      {
        "species": [{ "element": "Bi", "occu": 1 }],
        "abc": [0.827452, 0.654903, 0.75],
        "properties": { "magmom": -0.001 },
        "label": "Bi",
        "xyz": [5.06441249272, -1.0210569820100002, 4.49897625]
      },
      {
        "species": [{ "element": "Bi", "occu": 1 }],
        "abc": [0.345097, 0.172547999999999, 0.75],
        "properties": { "magmom": -0.0 },
        "label": "Bi",
        "xyz": [1.7685155072799965, -1.021056982010006, 4.49897625]
      },
      {
        "species": [{ "element": "Bi", "occu": 1 }],
        "abc": [0.827452, 0.172547999999999, 0.75],
        "properties": { "magmom": 0.001 },
        "label": "Bi",
        "xyz": [3.4164639999999964, -3.875387870960006, 4.49897625]
      }
    ]
  },
  "task_ids": null,
  "uncorrected_energy_per_atom": null,
  "energy_per_atom": -53.0317473925,
  "formation_energy_per_atom": -0.37478001125000304,
  "energy_above_hull": 0.11841694249999701,
  "is_stable": false,
  "equilibrium_reaction_energy_per_atom": null,
  "decomposes_to": null,
  "xas": null,
  "grain_boundaries": null,
  "band_gap": 0.0,
  "cbm": null,
  "vbm": null,
  "efermi": 6.17058066,
  "is_gap_direct": null,
  "is_metal": null,
  "es_source_calc_id": null,
  "bandstructure": null,
  "dos": null,
  "dos_energy_up": null,
  "dos_energy_down": null,
  "is_magnetic": null,
  "ordering": null,
  "total_magnetization": 0.0002668,
  "total_magnetization_normalized_vol": null,
  "total_magnetization_normalized_formula_units": null,
  "num_magnetic_sites": null,
  "num_unique_magnetic_sites": null,
  "types_of_magnetic_species": null,
  "bulk_modulus": null,
  "shear_modulus": null,
  "universal_anisotropy": null,
  "homogeneous_poisson": null,
  "e_total": null,
  "e_ionic": null,
  "e_electronic": null,
  "n": null,
  "e_ij_max": null,
  "weighted_surface_energy_EV_PER_ANG2": null,
  "weighted_surface_energy": null,
  "weighted_work_function": null,
  "surface_anisotropy": null,
  "shape_factor": null,
  "has_reconstructed": null,
  "possible_species": null,
  "has_props": null,
  "theoretical": null,
  "database_IDs": null,
  "fields_not_requested": [
    "builder_meta",
    "nsites",
    "elements",
    "nelements",
    "composition",
    "composition_reduced",
    "chemsys",
    "symmetry",
    "property_name",
    "deprecated",
    "deprecation_reasons",
    "last_updated",
    "origins",
    "warnings",
    "task_ids",
    "uncorrected_energy_per_atom",
    "equilibrium_reaction_energy_per_atom",
    "decomposes_to",
    "xas",
    "grain_boundaries",
    "cbm",
    "vbm",
    "is_gap_direct",
    "is_metal",
    "es_source_calc_id",
    "bandstructure",
    "dos",
    "dos_energy_up",
    "dos_energy_down",
    "is_magnetic",
    "ordering",
    "total_magnetization_normalized_vol",
    "total_magnetization_normalized_formula_units",
    "num_magnetic_sites",
    "num_unique_magnetic_sites",
    "types_of_magnetic_species",
    "bulk_modulus",
    "shear_modulus",
    "universal_anisotropy",
    "homogeneous_poisson",
    "e_total",
    "e_ionic",
    "e_electronic",
    "n",
    "e_ij_max",
    "weighted_surface_energy_EV_PER_ANG2",
    "weighted_surface_energy",
    "weighted_work_function",
    "surface_anisotropy",
    "shape_factor",
    "has_reconstructed",
    "possible_species",
    "has_props",
    "theoretical",
    "database_IDs"
  ]
}
