{"builder_meta": null, "nsites": null, "elements": null, "nelements": null, "composition": null, "composition_reduced": null, "formula_pretty": "TmBr3", "formula_anonymous": "AB3", "chemsys": null, "volume": 316.45780446839467, "density": 4.288552764643844, "density_atomic": 39.557225558549334, "symmetry": null, "property_name": null, "material_id": "mp-865301", "deprecated": null, "deprecation_reasons": null, "last_updated": null, "origins": null, "warnings": null, "structure": {"@module": "pymatgen.core.structure", "@class": "Structure", "charge": 0, "lattice": {"matrix": [[9.97632565, 3.9050000000000014e-05, 5.8070000000000025e-05], [-4.9881305, 8.63989643, -8.751000000000002e-05], [2.0840000000000004e-05, -2.4630000000000003e-05, 3.67143358]], "pbc": [true, true, true], "a": 9.976325650245432, "b": 9.976435045336336, "c": 3.6714335801417626, "alpha": 90.00099806720158, "beta": 89.999341269798, "gamma": 119.9991986362643, "volume": 316.45780446839467}, "properties": {}, "sites": [{"species": [{"element": "Tm", "occu": 1}], "abc": [0.33333623, 0.66666769, 0.75000165], "properties": {"magmom": -0.0}, "label": "Tm", "xyz": [6.0973604140496826e-05, 5.759934339066489, 2.753542259610731]}, {"species": [{"element": "Tm", "occu": 1}], "abc": [0.66666364, 0.33332964, 0.25000535], "properties": {"magmom": -0.0}, "label": "Tm", "xyz": [4.988167037927841, 2.8799534422325563, 0.9178875806504314]}, {"species": [{"element": "Br", "occu": 1}], "abc": [0.21302375, 0.42569737, 0.250023899999999], "properties": {"magmom": -0.0}, "label": "Br", "xyz": [0.0017654766154783204, 3.67798334781217, 0.9179212597748723]}, {"species": [{"element": "Br", "occu": 1}], "abc": [0.5743085, 0.78732941, 0.24999966], "properties": {"magmom": 0.0}, "label": "Br", "xyz": [1.8021919859879345, 6.802460827948306, 0.9178215976105087]}, {"species": [{"element": "Br", "occu": 1}], "abc": [0.21267315, 0.78697819, 0.24998144], "properties": {"magmom": -0.0}, "label": "Br", "xyz": [-1.8038481013492877, 6.799412202112502, 0.9177337346611688]}, {"species": [{"element": "Br", "occu": 1}], "abc": [0.78732725, 0.57430422, 0.75000954], "properties": {"magmom": 0.0}, "label": "Br", "xyz": [4.989944273257066, 4.961941252506078, 2.7536056732074683]}, {"species": [{"element": "Br", "occu": 1}], "abc": [0.42569347, 0.21302408, 0.7499836400000001], "properties": {"magmom": 0.0}, "label": "Br", "xyz": [3.184280402775123, 1.8405041395289845, 2.7535211986291936]}, {"species": [{"element": "Br", "occu": 1}], "abc": [0.78697501, 0.21267039000000001, 0.75000181], "properties": {"magmom": -0.0}, "label": "Br", "xyz": [6.790306949403832, 1.8374624021572683, 2.7536089191477813]}]}, "task_ids": null, "uncorrected_energy_per_atom": null, "energy_per_atom": -4.578211167500001, "formation_energy_per_atom": -2.229875896250003, "energy_above_hull": 0.0, "is_stable": true, "equilibrium_reaction_energy_per_atom": null, "decomposes_to": null, "xas": null, "grain_boundaries": null, "band_gap": 2.9866, "cbm": null, "vbm": null, "efermi": -1.92692931, "is_gap_direct": null, "is_metal": null, "es_source_calc_id": null, "bandstructure": null, "dos": null, "dos_energy_up": null, "dos_energy_down": null, "is_magnetic": null, "ordering": null, "total_magnetization": 0.0, "total_magnetization_normalized_vol": null, "total_magnetization_normalized_formula_units": null, "num_magnetic_sites": null, "num_unique_magnetic_sites": null, "types_of_magnetic_species": null, "bulk_modulus": null, "shear_modulus": null, "universal_anisotropy": null, "homogeneous_poisson": null, "e_total": null, "e_ionic": null, "e_electronic": null, "n": null, "e_ij_max": null, "weighted_surface_energy_EV_PER_ANG2": null, "weighted_surface_energy": null, "weighted_work_function": null, "surface_anisotropy": null, "shape_factor": null, "has_reconstructed": null, "possible_species": null, "has_props": null, "theoretical": null, "database_IDs": null, "fields_not_requested": ["builder_meta", "nsites", "elements", "nelements", "composition", "composition_reduced", "chemsys", "symmetry", "property_name", "deprecated", "deprecation_reasons", "last_updated", "origins", "warnings", "task_ids", "uncorrected_energy_per_atom", "equilibrium_reaction_energy_per_atom", "decomposes_to", "xas", "grain_boundaries", "cbm", "vbm", "is_gap_direct", "is_metal", "es_source_calc_id", "bandstructure", "dos", "dos_energy_up", "dos_energy_down", "is_magnetic", "ordering", "total_magnetization_normalized_vol", "total_magnetization_normalized_formula_units", "num_magnetic_sites", "num_unique_magnetic_sites", "types_of_magnetic_species", "bulk_modulus", "shear_modulus", "universal_anisotropy", "homogeneous_poisson", "e_total", "e_ionic", "e_electronic", "n", "e_ij_max", "weighted_surface_energy_EV_PER_ANG2", "weighted_surface_energy", "weighted_work_function", "surface_anisotropy", "shape_factor", "has_reconstructed", "possible_species", "has_props", "theoretical", "database_IDs"]}