{
  "builder_meta": null,
  "nsites": null,
  "elements": null,
  "nelements": null,
  "composition": null,
  "composition_reduced": null,
  "formula_pretty": "TmBr2",
  "formula_anonymous": "AB2",
  "chemsys": null,
  "volume": 648.4313376314768,
  "density": 6.7348908156029506,
  "density_atomic": 27.017972401311535,
  "symmetry": null,
  "property_name": null,
  "material_id": "mp-1208104",
  "deprecated": null,
  "deprecation_reasons": null,
  "last_updated": null,
  "origins": null,
  "warnings": null,
  "structure": {
    "@module": "pymatgen.core.structure",
    "@class": "Structure",
    "charge": 0,
    "lattice": {
      "matrix": [
        [6.584004, 0.0, 0.0],
        [0.0, 7.703629, 0.0],
        [0.0, 0.0, 12.784347]
      ],
      "pbc": [true, true, true],
      "a": 6.584004,
      "b": 7.703629,
      "c": 12.784347,
      "alpha": 90.0,
      "beta": 90.0,
      "gamma": 90.0,
      "volume": 648.4313376314768
    },
    "properties": {},
    "sites": [
      {
        "species": [{ "element": "Tm", "occu": 1 }],
        "abc": [0.169464, 0.547576, 0.903343],
        "properties": { "magmom": -0.0 },
        "label": "Tm",
        "xyz": [1.115751653856, 4.218322353304, 11.548650372021001]
      },
      {
        "species": [{ "element": "Tm", "occu": 1 }],
        "abc": [0.830535999999999, 0.452424, 0.09665699999999901],
        "properties": { "magmom": -0.0 },
        "label": "Tm",
        "xyz": [5.468252346143994, 3.485306646696, 1.2356966279789874]
      },
      {
        "species": [{ "element": "Tm", "occu": 1 }],
        "abc": [0.330536, 0.047576, 0.09665699999999901],
        "properties": { "magmom": -0.001 },
        "label": "Tm",
        "xyz": [2.176250346144, 0.36650785330400004, 1.2356966279789874]
      },
      {
        "species": [{ "element": "Tm", "occu": 1 }],
        "abc": [0.830535999999999, 0.952423999999999, 0.403343],
        "properties": { "magmom": 0.0 },
        "label": "Tm",
        "xyz": [5.468252346143994, 7.337121146695993, 5.156476872021]
      },
      {
        "species": [{ "element": "Tm", "occu": 1 }],
        "abc": [0.669464, 0.952423999999999, 0.903343],
        "properties": { "magmom": -0.001 },
        "label": "Tm",
        "xyz": [4.407753653856, 7.337121146695993, 11.548650372021001]
      },
      {
        "species": [{ "element": "Tm", "occu": 1 }],
        "abc": [0.169464, 0.047576, 0.596657],
        "properties": { "magmom": 0.0 },
        "label": "Tm",
        "xyz": [1.115751653856, 0.36650785330400004, 7.627870127979]
      },
      {
        "species": [{ "element": "Tm", "occu": 1 }],
        "abc": [0.669464, 0.452424, 0.596657],
        "properties": { "magmom": 0.0 },
        "label": "Tm",
        "xyz": [4.407753653856, 3.485306646696, 7.627870127979]
      },
      {
        "species": [{ "element": "Tm", "occu": 1 }],
        "abc": [0.330536, 0.547576, 0.403343],
        "properties": { "magmom": 0.0 },
        "label": "Tm",
        "xyz": [2.176250346144, 4.218322353304, 5.156476872021]
      },
      {
        "species": [{ "element": "Br", "occu": 1 }],
        "abc": [0.296141, 0.876518999999999, 0.793944],
        "properties": { "magmom": 0.0 },
        "label": "Br",
        "xyz": [1.949793528564, 6.752377187450993, 10.150055594568]
      },
      {
        "species": [{ "element": "Br", "occu": 1 }],
        "abc": [0.703859, 0.123481, 0.206056],
        "properties": { "magmom": 0.0 },
        "label": "Br",
        "xyz": [4.634210471436, 0.9512518125489999, 2.634291405432]
      },
      {
        "species": [{ "element": "Br", "occu": 1 }],
        "abc": [0.203858999999999, 0.376519, 0.206056],
        "properties": { "magmom": -0.0 },
        "label": "Br",
        "xyz": [1.3422084714359936, 2.900562687451, 2.634291405432]
      },
      {
        "species": [{ "element": "Br", "occu": 1 }],
        "abc": [0.703859, 0.623481, 0.293944],
        "properties": { "magmom": 0.0 },
        "label": "Br",
        "xyz": [4.634210471436, 4.803066312548999, 3.757882094568]
      },
      {
        "species": [{ "element": "Br", "occu": 1 }],
        "abc": [0.796141, 0.623481, 0.793944],
        "properties": { "magmom": -0.0 },
        "label": "Br",
        "xyz": [5.241795528564, 4.803066312548999, 10.150055594568]
      },
      {
        "species": [{ "element": "Br", "occu": 1 }],
        "abc": [0.296141, 0.376519, 0.706056],
        "properties": { "magmom": 0.0 },
        "label": "Br",
        "xyz": [1.949793528564, 2.900562687451, 9.026464905432]
      },
      {
        "species": [{ "element": "Br", "occu": 1 }],
        "abc": [0.796141, 0.123481, 0.706056],
        "properties": { "magmom": 0.0 },
        "label": "Br",
        "xyz": [5.241795528564, 0.9512518125489999, 9.026464905432]
      },
      {
        "species": [{ "element": "Br", "occu": 1 }],
        "abc": [0.203858999999999, 0.876518999999999, 0.293944],
        "properties": { "magmom": 0.0 },
        "label": "Br",
        "xyz": [1.3422084714359936, 6.752377187450993, 3.757882094568]
      },
      {
        "species": [{ "element": "Br", "occu": 1 }],
        "abc": [0.024895, 0.703241999999999, 0.542531],
        "properties": { "magmom": 0.0 },
        "label": "Br",
        "xyz": [0.16390877958, 5.417515465217993, 6.935904562257]
      },
      {
        "species": [{ "element": "Br", "occu": 1 }],
        "abc": [0.975105, 0.296757999999999, 0.457468999999999],
        "properties": { "magmom": 0.0 },
        "label": "Br",
        "xyz": [6.42009522042, 2.2861135347819928, 5.848442437742988]
      },
      {
        "species": [{ "element": "Br", "occu": 1 }],
        "abc": [0.475105, 0.203241999999999, 0.457468999999999],
        "properties": { "magmom": 0.0 },
        "label": "Br",
        "xyz": [3.1280932204200003, 1.5657009652179925, 5.848442437742988]
      },
      {
        "species": [{ "element": "Br", "occu": 1 }],
        "abc": [0.975105, 0.796758, 0.042531],
        "properties": { "magmom": -0.0 },
        "label": "Br",
        "xyz": [6.42009522042, 6.137928034782, 0.543731062257]
      },
      {
        "species": [{ "element": "Br", "occu": 1 }],
        "abc": [0.524895, 0.796758, 0.542531],
        "properties": { "magmom": 0.0 },
        "label": "Br",
        "xyz": [3.45591077958, 6.137928034782, 6.935904562257]
      },
      {
        "species": [{ "element": "Br", "occu": 1 }],
        "abc": [0.024895, 0.203241999999999, 0.9574689999999991],
        "properties": { "magmom": -0.0 },
        "label": "Br",
        "xyz": [0.16390877958, 1.5657009652179925, 12.240615937742989]
      },
      {
        "species": [{ "element": "Br", "occu": 1 }],
        "abc": [0.524895, 0.296757999999999, 0.9574689999999991],
        "properties": { "magmom": 0.0 },
        "label": "Br",
        "xyz": [3.45591077958, 2.2861135347819928, 12.240615937742989]
      },
      {
        "species": [{ "element": "Br", "occu": 1 }],
        "abc": [0.475105, 0.703241999999999, 0.042531],
        "properties": { "magmom": 0.0 },
        "label": "Br",
        "xyz": [3.1280932204200003, 5.417515465217993, 0.543731062257]
      }
    ]
  },
  "task_ids": null,
  "uncorrected_energy_per_atom": null,
  "energy_per_atom": -4.31067176625,
  "formation_energy_per_atom": -1.725206916250002,
  "energy_above_hull": 0.256904991527777,
  "is_stable": false,
  "equilibrium_reaction_energy_per_atom": null,
  "decomposes_to": null,
  "xas": null,
  "grain_boundaries": null,
  "band_gap": 0.0,
  "cbm": null,
  "vbm": null,
  "efermi": 5.07033546,
  "is_gap_direct": null,
  "is_metal": null,
  "es_source_calc_id": null,
  "bandstructure": null,
  "dos": null,
  "dos_energy_up": null,
  "dos_energy_down": null,
  "is_magnetic": null,
  "ordering": null,
  "total_magnetization": 0.0025163,
  "total_magnetization_normalized_vol": null,
  "total_magnetization_normalized_formula_units": null,
  "num_magnetic_sites": null,
  "num_unique_magnetic_sites": null,
  "types_of_magnetic_species": null,
  "bulk_modulus": null,
  "shear_modulus": null,
  "universal_anisotropy": null,
  "homogeneous_poisson": null,
  "e_total": null,
  "e_ionic": null,
  "e_electronic": null,
  "n": null,
  "e_ij_max": null,
  "weighted_surface_energy_EV_PER_ANG2": null,
  "weighted_surface_energy": null,
  "weighted_work_function": null,
  "surface_anisotropy": null,
  "shape_factor": null,
  "has_reconstructed": null,
  "possible_species": null,
  "has_props": null,
  "theoretical": null,
  "database_IDs": null,
  "fields_not_requested": [
    "builder_meta",
    "nsites",
    "elements",
    "nelements",
    "composition",
    "composition_reduced",
    "chemsys",
    "symmetry",
    "property_name",
    "deprecated",
    "deprecation_reasons",
    "last_updated",
    "origins",
    "warnings",
    "task_ids",
    "uncorrected_energy_per_atom",
    "equilibrium_reaction_energy_per_atom",
    "decomposes_to",
    "xas",
    "grain_boundaries",
    "cbm",
    "vbm",
    "is_gap_direct",
    "is_metal",
    "es_source_calc_id",
    "bandstructure",
    "dos",
    "dos_energy_up",
    "dos_energy_down",
    "is_magnetic",
    "ordering",
    "total_magnetization_normalized_vol",
    "total_magnetization_normalized_formula_units",
    "num_magnetic_sites",
    "num_unique_magnetic_sites",
    "types_of_magnetic_species",
    "bulk_modulus",
    "shear_modulus",
    "universal_anisotropy",
    "homogeneous_poisson",
    "e_total",
    "e_ionic",
    "e_electronic",
    "n",
    "e_ij_max",
    "weighted_surface_energy_EV_PER_ANG2",
    "weighted_surface_energy",
    "weighted_work_function",
    "surface_anisotropy",
    "shape_factor",
    "has_reconstructed",
    "possible_species",
    "has_props",
    "theoretical",
    "database_IDs"
  ]
}
