{
  "builder_meta": null,
  "nsites": null,
  "elements": null,
  "nelements": null,
  "composition": null,
  "composition_reduced": null,
  "formula_pretty": "TmCl2",
  "formula_anonymous": "AB2",
  "chemsys": null,
  "volume": 546.565416653866,
  "density": 5.829333892140699,
  "density_atomic": 22.773559027244417,
  "symmetry": null,
  "property_name": null,
  "material_id": "mp-27302",
  "deprecated": null,
  "deprecation_reasons": null,
  "last_updated": null,
  "origins": null,
  "warnings": null,
  "structure": {
    "@module": "pymatgen.core.structure",
    "@class": "Structure",
    "charge": 0,
    "lattice": {
      "matrix": [
        [6.215128, 0.0, 0.0],
        [0.0, 7.197731, 0.0],
        [0.0, 0.0, 12.217897]
      ],
      "pbc": [true, true, true],
      "a": 6.215128,
      "b": 7.197731,
      "c": 12.217897,
      "alpha": 90.0,
      "beta": 90.0,
      "gamma": 90.0,
      "volume": 546.565416653866
    },
    "properties": {},
    "sites": [
      {
        "species": [{ "element": "Tm", "occu": 1 }],
        "abc": [0.319063, 0.045885999999999004, 0.402495999999999],
        "properties": { "magmom": -0.0 },
        "label": "Tm",
        "xyz": [1.9830173850639998, 0.3302750846659928, 4.917654670911988]
      },
      {
        "species": [{ "element": "Tm", "occu": 1 }],
        "abc": [0.819063, 0.9541139999999991, 0.097504],
        "properties": { "magmom": -0.0 },
        "label": "Tm",
        "xyz": [5.090581385064, 6.867455915333994, 1.191293829088]
      },
      {
        "species": [{ "element": "Tm", "occu": 1 }],
        "abc": [0.180937, 0.545886, 0.597503999999999],
        "properties": { "magmom": 0.0 },
        "label": "Tm",
        "xyz": [1.124546614936, 3.929140584666, 7.300242329087989]
      },
      {
        "species": [{ "element": "Tm", "occu": 1 }],
        "abc": [0.680937, 0.454113999999999, 0.902496],
        "properties": { "magmom": -0.0 },
        "label": "Tm",
        "xyz": [4.232110614936, 3.268590415333993, 11.026603170912]
      },
      {
        "species": [{ "element": "Tm", "occu": 1 }],
        "abc": [0.680937, 0.9541139999999991, 0.597503999999999],
        "properties": { "magmom": -0.0 },
        "label": "Tm",
        "xyz": [4.232110614936, 6.867455915333994, 7.300242329087989]
      },
      {
        "species": [{ "element": "Tm", "occu": 1 }],
        "abc": [0.180937, 0.045885999999999004, 0.902496],
        "properties": { "magmom": -0.0 },
        "label": "Tm",
        "xyz": [1.124546614936, 0.3302750846659928, 11.026603170912]
      },
      {
        "species": [{ "element": "Tm", "occu": 1 }],
        "abc": [0.819063, 0.454113999999999, 0.402495999999999],
        "properties": { "magmom": 0.0 },
        "label": "Tm",
        "xyz": [5.090581385064, 3.268590415333993, 4.917654670911988]
      },
      {
        "species": [{ "element": "Tm", "occu": 1 }],
        "abc": [0.319063, 0.545886, 0.097504],
        "properties": { "magmom": -0.0 },
        "label": "Tm",
        "xyz": [1.9830173850639998, 3.929140584666, 1.191293829088]
      },
      {
        "species": [{ "element": "Cl", "occu": 1 }],
        "abc": [0.021415999999999002, 0.205734, 0.54357],
        "properties": { "magmom": -0.0 },
        "label": "Cl",
        "xyz": [0.1331031812479938, 1.4808179895540001, 6.641282272290001]
      },
      {
        "species": [{ "element": "Cl", "occu": 1 }],
        "abc": [0.521416, 0.794265999999999, 0.9564300000000001],
        "properties": { "magmom": -0.0 },
        "label": "Cl",
        "xyz": [3.240667181248, 5.716913010445993, 11.685563227710002]
      },
      {
        "species": [{ "element": "Cl", "occu": 1 }],
        "abc": [0.478583999999999, 0.705734, 0.45643000000000006],
        "properties": { "magmom": -0.0 },
        "label": "Cl",
        "xyz": [2.974460818751994, 5.079683489554, 5.576614727710001]
      },
      {
        "species": [{ "element": "Cl", "occu": 1 }],
        "abc": [0.978584, 0.29426599999999903, 0.043570000000000005],
        "properties": { "magmom": -0.0 },
        "label": "Cl",
        "xyz": [6.082024818752, 2.118047510445993, 0.5323337722900001]
      },
      {
        "species": [{ "element": "Cl", "occu": 1 }],
        "abc": [0.978584, 0.794265999999999, 0.45643000000000006],
        "properties": { "magmom": -0.0 },
        "label": "Cl",
        "xyz": [6.082024818752, 5.716913010445993, 5.576614727710001]
      },
      {
        "species": [{ "element": "Cl", "occu": 1 }],
        "abc": [0.478583999999999, 0.205734, 0.043570000000000005],
        "properties": { "magmom": -0.0 },
        "label": "Cl",
        "xyz": [2.974460818751994, 1.4808179895540001, 0.5323337722900001]
      },
      {
        "species": [{ "element": "Cl", "occu": 1 }],
        "abc": [0.521416, 0.29426599999999903, 0.54357],
        "properties": { "magmom": -0.0 },
        "label": "Cl",
        "xyz": [3.240667181248, 2.118047510445993, 6.641282272290001]
      },
      {
        "species": [{ "element": "Cl", "occu": 1 }],
        "abc": [0.021415999999999002, 0.705734, 0.9564300000000001],
        "properties": { "magmom": -0.0 },
        "label": "Cl",
        "xyz": [0.1331031812479938, 5.079683489554, 11.685563227710002]
      },
      {
        "species": [{ "element": "Cl", "occu": 1 }],
        "abc": [0.193582, 0.874421999999999, 0.207504],
        "properties": { "magmom": -0.0 },
        "label": "Cl",
        "xyz": [1.203136908496, 6.293854336481993, 2.535262499088]
      },
      {
        "species": [{ "element": "Cl", "occu": 1 }],
        "abc": [0.693581999999999, 0.125578, 0.292496],
        "properties": { "magmom": -0.0 },
        "label": "Cl",
        "xyz": [4.310700908495994, 0.903876663518, 3.5736860009119997]
      },
      {
        "species": [{ "element": "Cl", "occu": 1 }],
        "abc": [0.306417999999999, 0.374422, 0.792496],
        "properties": { "magmom": -0.0 },
        "label": "Cl",
        "xyz": [1.904427091503994, 2.694988836482, 9.682634500912]
      },
      {
        "species": [{ "element": "Cl", "occu": 1 }],
        "abc": [0.806418, 0.625578, 0.707504],
        "properties": { "magmom": -0.0 },
        "label": "Cl",
        "xyz": [5.011991091504, 4.502742163518, 8.644210999088001]
      },
      {
        "species": [{ "element": "Cl", "occu": 1 }],
        "abc": [0.806418, 0.125578, 0.792496],
        "properties": { "magmom": -0.0 },
        "label": "Cl",
        "xyz": [5.011991091504, 0.903876663518, 9.682634500912]
      },
      {
        "species": [{ "element": "Cl", "occu": 1 }],
        "abc": [0.306417999999999, 0.874421999999999, 0.707504],
        "properties": { "magmom": -0.0 },
        "label": "Cl",
        "xyz": [1.904427091503994, 6.293854336481993, 8.644210999088001]
      },
      {
        "species": [{ "element": "Cl", "occu": 1 }],
        "abc": [0.693581999999999, 0.625578, 0.207504],
        "properties": { "magmom": -0.0 },
        "label": "Cl",
        "xyz": [4.310700908495994, 4.502742163518, 2.535262499088]
      },
      {
        "species": [{ "element": "Cl", "occu": 1 }],
        "abc": [0.193582, 0.374422, 0.292496],
        "properties": { "magmom": -0.0 },
        "label": "Cl",
        "xyz": [1.203136908496, 2.694988836482, 3.5736860009119997]
      }
    ]
  },
  "task_ids": null,
  "uncorrected_energy_per_atom": null,
  "energy_per_atom": -17.773419048101854,
  "formation_energy_per_atom": -1.964777019768519,
  "energy_above_hull": 0.268692874120368,
  "is_stable": false,
  "equilibrium_reaction_energy_per_atom": null,
  "decomposes_to": null,
  "xas": null,
  "grain_boundaries": null,
  "band_gap": 0.0,
  "cbm": null,
  "vbm": null,
  "efermi": 5.94479623,
  "is_gap_direct": null,
  "is_metal": null,
  "es_source_calc_id": null,
  "bandstructure": null,
  "dos": null,
  "dos_energy_up": null,
  "dos_energy_down": null,
  "is_magnetic": null,
  "ordering": null,
  "total_magnetization": 0.0001035,
  "total_magnetization_normalized_vol": null,
  "total_magnetization_normalized_formula_units": null,
  "num_magnetic_sites": null,
  "num_unique_magnetic_sites": null,
  "types_of_magnetic_species": null,
  "bulk_modulus": null,
  "shear_modulus": null,
  "universal_anisotropy": null,
  "homogeneous_poisson": null,
  "e_total": null,
  "e_ionic": null,
  "e_electronic": null,
  "n": null,
  "e_ij_max": null,
  "weighted_surface_energy_EV_PER_ANG2": null,
  "weighted_surface_energy": null,
  "weighted_work_function": null,
  "surface_anisotropy": null,
  "shape_factor": null,
  "has_reconstructed": null,
  "possible_species": null,
  "has_props": null,
  "theoretical": null,
  "database_IDs": null,
  "fields_not_requested": [
    "builder_meta",
    "nsites",
    "elements",
    "nelements",
    "composition",
    "composition_reduced",
    "chemsys",
    "symmetry",
    "property_name",
    "deprecated",
    "deprecation_reasons",
    "last_updated",
    "origins",
    "warnings",
    "task_ids",
    "uncorrected_energy_per_atom",
    "equilibrium_reaction_energy_per_atom",
    "decomposes_to",
    "xas",
    "grain_boundaries",
    "cbm",
    "vbm",
    "is_gap_direct",
    "is_metal",
    "es_source_calc_id",
    "bandstructure",
    "dos",
    "dos_energy_up",
    "dos_energy_down",
    "is_magnetic",
    "ordering",
    "total_magnetization_normalized_vol",
    "total_magnetization_normalized_formula_units",
    "num_magnetic_sites",
    "num_unique_magnetic_sites",
    "types_of_magnetic_species",
    "bulk_modulus",
    "shear_modulus",
    "universal_anisotropy",
    "homogeneous_poisson",
    "e_total",
    "e_ionic",
    "e_electronic",
    "n",
    "e_ij_max",
    "weighted_surface_energy_EV_PER_ANG2",
    "weighted_surface_energy",
    "weighted_work_function",
    "surface_anisotropy",
    "shape_factor",
    "has_reconstructed",
    "possible_species",
    "has_props",
    "theoretical",
    "database_IDs"
  ]
}
