{
  "builder_meta": null,
  "nsites": null,
  "elements": null,
  "nelements": null,
  "composition": null,
  "composition_reduced": null,
  "formula_pretty": "TmCl3",
  "formula_anonymous": "AB3",
  "chemsys": null,
  "volume": 216.66925624428163,
  "density": 4.219658459152371,
  "density_atomic": 27.083657030535203,
  "symmetry": null,
  "property_name": null,
  "material_id": "mp-28044",
  "deprecated": null,
  "deprecation_reasons": null,
  "last_updated": null,
  "origins": null,
  "warnings": null,
  "structure": {
    "@module": "pymatgen.core.structure",
    "@class": "Structure",
    "charge": 0,
    "lattice": {
      "matrix": [
        [5.73253164, -0.01966395, 4.09372939],
        [2.09635293, 5.33550534, 4.09372939],
        [-0.02896005, -0.01966395, 7.04412544]
      ],
      "pbc": [true, true, true],
      "a": 7.044212233676699,
      "b": 7.044212742303989,
      "c": 7.044212416578649,
      "alpha": 54.70384459920585,
      "beta": 54.70384186296533,
      "gamma": 54.70384784188331,
      "volume": 216.66925624428163
    },
    "properties": {},
    "sites": [
      {
        "species": [{ "element": "Tm", "occu": 1 }],
        "abc": [0.5, 0.5, 0.5],
        "properties": { "magmom": 0.0 },
        "label": "Tm",
        "xyz": [3.89996226, 2.64808872, 7.61579211]
      },
      {
        "species": [{ "element": "Tm", "occu": 1 }],
        "abc": [-0.0, 0.0, -0.0],
        "properties": { "magmom": 0.0 },
        "label": "Tm",
        "xyz": [0.0, 0.0, 0.0]
      },
      {
        "species": [{ "element": "Cl", "occu": 1 }],
        "abc": [0.40840199, 0.75, 0.09159801000000001],
        "properties": { "magmom": 0.0 },
        "label": "Cl",
        "xyz": [3.9107893440644634, 3.99179703, 5.387412144391861]
      },
      {
        "species": [{ "element": "Cl", "occu": 1 }],
        "abc": [0.75, 0.09159801000000001, 0.40840199],
        "properties": { "magmom": 0.0 },
        "label": "Cl",
        "xyz": [4.47959314459517, 0.4659429126771129, 6.32210935560814]
      },
      {
        "species": [{ "element": "Cl", "occu": 1 }],
        "abc": [0.90840199, 0.59159801, 0.25],
        "properties": { "magmom": 0.0 },
        "label": "Cl",
        "xyz": [6.440401358659633, 3.1336955826771127, 7.9016254450000005]
      },
      {
        "species": [{ "element": "Cl", "occu": 1 }],
        "abc": [0.25, 0.90840199, 0.59159801],
        "properties": { "magmom": 0.0 },
        "label": "Cl",
        "xyz": [3.3203313754048307, 4.830234527322887, 8.90947486439186]
      },
      {
        "species": [{ "element": "Cl", "occu": 1 }],
        "abc": [0.59159801, 0.25, 0.90840199],
        "properties": { "magmom": 0.0 },
        "label": "Cl",
        "xyz": [3.8891351759355373, 1.30438041, 9.844172075608139]
      },
      {
        "species": [{ "element": "Cl", "occu": 1 }],
        "abc": [0.09159801000000001, 0.40840199, 0.75],
        "properties": { "magmom": 0.0 },
        "label": "Cl",
        "xyz": [1.3595231613403673, 2.1624818573228874, 7.329958775]
      }
    ]
  },
  "task_ids": null,
  "uncorrected_energy_per_atom": null,
  "energy_per_atom": -15.90724487625,
  "formation_energy_per_atom": -2.512653630624999,
  "energy_above_hull": 0.0,
  "is_stable": true,
  "equilibrium_reaction_energy_per_atom": null,
  "decomposes_to": null,
  "xas": null,
  "grain_boundaries": null,
  "band_gap": 4.918,
  "cbm": null,
  "vbm": null,
  "efermi": -0.91109114,
  "is_gap_direct": null,
  "is_metal": null,
  "es_source_calc_id": null,
  "bandstructure": null,
  "dos": null,
  "dos_energy_up": null,
  "dos_energy_down": null,
  "is_magnetic": null,
  "ordering": null,
  "total_magnetization": 0.0,
  "total_magnetization_normalized_vol": null,
  "total_magnetization_normalized_formula_units": null,
  "num_magnetic_sites": null,
  "num_unique_magnetic_sites": null,
  "types_of_magnetic_species": null,
  "bulk_modulus": null,
  "shear_modulus": null,
  "universal_anisotropy": null,
  "homogeneous_poisson": null,
  "e_total": null,
  "e_ionic": null,
  "e_electronic": null,
  "n": null,
  "e_ij_max": null,
  "weighted_surface_energy_EV_PER_ANG2": null,
  "weighted_surface_energy": null,
  "weighted_work_function": null,
  "surface_anisotropy": null,
  "shape_factor": null,
  "has_reconstructed": null,
  "possible_species": null,
  "has_props": null,
  "theoretical": null,
  "database_IDs": null,
  "fields_not_requested": [
    "builder_meta",
    "nsites",
    "elements",
    "nelements",
    "composition",
    "composition_reduced",
    "chemsys",
    "symmetry",
    "property_name",
    "deprecated",
    "deprecation_reasons",
    "last_updated",
    "origins",
    "warnings",
    "task_ids",
    "uncorrected_energy_per_atom",
    "equilibrium_reaction_energy_per_atom",
    "decomposes_to",
    "xas",
    "grain_boundaries",
    "cbm",
    "vbm",
    "is_gap_direct",
    "is_metal",
    "es_source_calc_id",
    "bandstructure",
    "dos",
    "dos_energy_up",
    "dos_energy_down",
    "is_magnetic",
    "ordering",
    "total_magnetization_normalized_vol",
    "total_magnetization_normalized_formula_units",
    "num_magnetic_sites",
    "num_unique_magnetic_sites",
    "types_of_magnetic_species",
    "bulk_modulus",
    "shear_modulus",
    "universal_anisotropy",
    "homogeneous_poisson",
    "e_total",
    "e_ionic",
    "e_electronic",
    "n",
    "e_ij_max",
    "weighted_surface_energy_EV_PER_ANG2",
    "weighted_surface_energy",
    "weighted_work_function",
    "surface_anisotropy",
    "shape_factor",
    "has_reconstructed",
    "possible_species",
    "has_props",
    "theoretical",
    "database_IDs"
  ]
}
