{"builder_meta": null, "nsites": null, "elements": null, "nelements": null, "composition": null, "composition_reduced": null, "formula_pretty": "TmCo3", "formula_anonymous": "AB3", "chemsys": null, "volume": 169.12508852605367, "density": 10.183666035206864, "density_atomic": 14.093757377171139, "symmetry": null, "property_name": null, "material_id": "mp-1102252", "deprecated": null, "deprecation_reasons": null, "last_updated": null, "origins": null, "warnings": null, "structure": {"@module": "pymatgen.core.structure", "@class": "Structure", "charge": 0, "lattice": {"matrix": [[-2.459733, -4.260382, 0.0], [-4.919465, 0.0, 0.0], [-2.459733, -1.420127, -8.069407]], "pbc": [true, true, true], "a": 4.919465541825962, "b": 4.919465, "c": 8.55466986265788, "alpha": 73.28980027542595, "beta": 73.28980282809775, "gamma": 59.99999691912155, "volume": 169.12508852605367}, "properties": {}, "sites": [{"species": [{"element": "Tm", "occu": 1}], "abc": [0.8603000000000001, 0.8603000000000001, 0.41910000000000003], "properties": {"magmom": 0.193}, "label": "Tm", "xyz": [-7.3791981397, -4.2603818603, -3.3818884737]}, {"species": [{"element": "Tm", "occu": 1}], "abc": [0.13970000000000002, 0.13970000000000002, 0.5809000000000001], "properties": {"magmom": 0.193}, "label": "Tm", "xyz": [-2.4597328603000004, -1.4201271397000002, -4.687518526300001]}, {"species": [{"element": "Tm", "occu": 1}], "abc": [0.0, 0.0, 0.0], "properties": {"magmom": 0.107}, "label": "Tm", "xyz": [0.0, 0.0, 0.0]}, {"species": [{"element": "Co", "occu": 1}], "abc": [0.417221, 0.417221, 0.245078], "properties": {"magmom": -0.845}, "label": "Co", "xyz": [-3.6815828129319996, -2.125562723328, -1.977634128746]}, {"species": [{"element": "Co", "occu": 1}], "abc": [0.9204800000000001, 0.417221, 0.245078], "properties": {"magmom": -0.845}, "label": "Co", "xyz": [-4.919465582779, -4.269638308266, -1.977634128746]}, {"species": [{"element": "Co", "occu": 1}], "abc": [0.417221, 0.9204800000000001, 0.245078], "properties": {"magmom": -0.845}, "label": "Co", "xyz": [-6.157347849367, -2.125562723328, -1.977634128746]}, {"species": [{"element": "Co", "occu": 1}], "abc": [0.582778999999999, 0.582778999999999, 0.754922], "properties": {"magmom": -0.845}, "label": "Co", "xyz": [-6.157348187067993, -3.5549462766719957, -6.091772871254]}, {"species": [{"element": "Co", "occu": 1}], "abc": [0.07952000000000001, 0.582778999999999, 0.754922], "properties": {"magmom": -0.845}, "label": "Co", "xyz": [-4.919465417220994, -1.410870691734, -6.091772871254]}, {"species": [{"element": "Co", "occu": 1}], "abc": [0.582778999999999, 0.07952000000000001, 0.754922], "properties": {"magmom": -0.845}, "label": "Co", "xyz": [-3.6815831506329975, -3.5549462766719957, -6.091772871254]}, {"species": [{"element": "Co", "occu": 1}], "abc": [0.665113, 0.665113, 0.004661999999999], "properties": {"magmom": 0.595}, "label": "Co", "xyz": [-4.9194677946199965, -2.8402560852399983, -0.037619575433991935]}, {"species": [{"element": "Co", "occu": 1}], "abc": [0.334887, 0.334887, 0.995338], "properties": {"magmom": 0.595}, "label": "Co", "xyz": [-4.91946320538, -2.8402529147599997, -8.031787424566]}, {"species": [{"element": "Co", "occu": 1}], "abc": [0.5, 0.5, 0.5], "properties": {"magmom": -0.167}, "label": "Co", "xyz": [-4.919465499999999, -2.8402545, -4.0347035]}]}, "task_ids": null, "uncorrected_energy_per_atom": null, "energy_per_atom": -6.610814769166667, "formation_energy_per_atom": -0.140126859166669, "energy_above_hull": 0.04710631871794901, "is_stable": false, "equilibrium_reaction_energy_per_atom": null, "decomposes_to": null, "xas": null, "grain_boundaries": null, "band_gap": 0.0, "cbm": null, "vbm": null, "efermi": 4.48827437, "is_gap_direct": null, "is_metal": null, "es_source_calc_id": null, "bandstructure": null, "dos": null, "dos_energy_up": null, "dos_energy_down": null, "is_magnetic": null, "ordering": null, "total_magnetization": 2.908002299999999, "total_magnetization_normalized_vol": null, "total_magnetization_normalized_formula_units": null, "num_magnetic_sites": null, "num_unique_magnetic_sites": null, "types_of_magnetic_species": null, "bulk_modulus": null, "shear_modulus": null, "universal_anisotropy": null, "homogeneous_poisson": null, "e_total": null, "e_ionic": null, "e_electronic": null, "n": null, "e_ij_max": null, "weighted_surface_energy_EV_PER_ANG2": null, "weighted_surface_energy": null, "weighted_work_function": null, "surface_anisotropy": null, "shape_factor": null, "has_reconstructed": null, "possible_species": null, "has_props": null, "theoretical": null, "database_IDs": null, "fields_not_requested": ["builder_meta", "nsites", "elements", "nelements", "composition", "composition_reduced", "chemsys", "symmetry", "property_name", "deprecated", "deprecation_reasons", "last_updated", "origins", "warnings", "task_ids", "uncorrected_energy_per_atom", "equilibrium_reaction_energy_per_atom", "decomposes_to", "xas", "grain_boundaries", "cbm", "vbm", "is_gap_direct", "is_metal", "es_source_calc_id", "bandstructure", "dos", "dos_energy_up", "dos_energy_down", "is_magnetic", "ordering", "total_magnetization_normalized_vol", "total_magnetization_normalized_formula_units", "num_magnetic_sites", "num_unique_magnetic_sites", "types_of_magnetic_species", "bulk_modulus", "shear_modulus", "universal_anisotropy", "homogeneous_poisson", "e_total", "e_ionic", "e_electronic", "n", "e_ij_max", "weighted_surface_energy_EV_PER_ANG2", "weighted_surface_energy", "weighted_work_function", "surface_anisotropy", "shape_factor", "has_reconstructed", "possible_species", "has_props", "theoretical", "database_IDs"]}