{"builder_meta": null, "nsites": null, "elements": null, "nelements": null, "composition": null, "composition_reduced": null, "formula_pretty": "TmCo2", "formula_anonymous": "AB2", "chemsys": null, "volume": 88.68243182605184, "density": 10.740427180852656, "density_atomic": 14.780405304341974, "symmetry": null, "property_name": null, "material_id": "mp-632", "deprecated": null, "deprecation_reasons": null, "last_updated": null, "origins": null, "warnings": null, "structure": {"@module": "pymatgen.core.structure", "@class": "Structure", "charge": 0, "lattice": {"matrix": [[4.33484324, 0.00020508, 2.5029094], [1.44479012, 4.08751835, 2.50352119], [0.00016331, 0.0008650999999990001, 5.0055359]], "pbc": [true, true, true], "a": 5.005539074069831, "b": 5.006280365822049, "c": 5.005535977421097, "alpha": 59.98500550573183, "beta": 59.9962820793967, "gamma": 59.99921408369019, "volume": 88.68243182605184}, "properties": {}, "sites": [{"species": [{"element": "Tm", "occu": 1}], "abc": [0.87500477, 0.87499045, 0.8750111500000001], "properties": {"magmom": -0.629}, "label": "Tm", "xyz": [5.057328967527515, 3.577475938573853, 8.760514520725758]}, {"species": [{"element": "Tm", "occu": 1}], "abc": [0.12499323, 0.12500955, 0.12498985], "properties": {"magmom": -0.629}, "label": "Tm", "xyz": [0.7224590329493147, 0.5111125918810857, 1.2514519689913415]}, {"species": [{"element": "Co", "occu": 1}], "abc": [0.5, 0.5, 0.5], "properties": {"magmom": 1.405}, "label": "Co", "xyz": [2.889898335, 2.044294264999999, 5.0059832449999995]}, {"species": [{"element": "Co", "occu": 1}], "abc": [0.5, 0.5, -0.0], "properties": {"magmom": 1.408}, "label": "Co", "xyz": [2.88981668, 2.043861715, 2.503215295]}, {"species": [{"element": "Co", "occu": 1}], "abc": [1e-06, 0.499998999999999, 0.5], "properties": {"magmom": 1.4060000000000001}, "label": "Co", "xyz": [0.7224796050531186, 2.044187637686725, 3.7545285443882075]}, {"species": [{"element": "Co", "occu": 1}], "abc": [0.5, 1e-06, 0.5], "properties": {"magmom": 1.4060000000000001}, "label": "Co", "xyz": [2.1675047197901196, 0.0005391775183495001, 3.75422515352119]}]}, "task_ids": null, "uncorrected_energy_per_atom": null, "energy_per_atom": -6.494736151666667, "formation_energy_per_atom": -0.24495784500000303, "energy_above_hull": 0.0, "is_stable": true, "equilibrium_reaction_energy_per_atom": null, "decomposes_to": null, "xas": null, "grain_boundaries": null, "band_gap": 0.0, "cbm": null, "vbm": null, "efermi": 4.4537493, "is_gap_direct": null, "is_metal": null, "es_source_calc_id": null, "bandstructure": null, "dos": null, "dos_energy_up": null, "dos_energy_down": null, "is_magnetic": null, "ordering": null, "total_magnetization": 4.2013949, "total_magnetization_normalized_vol": null, "total_magnetization_normalized_formula_units": null, "num_magnetic_sites": null, "num_unique_magnetic_sites": null, "types_of_magnetic_species": null, "bulk_modulus": null, "shear_modulus": null, "universal_anisotropy": null, "homogeneous_poisson": null, "e_total": null, "e_ionic": null, "e_electronic": null, "n": null, "e_ij_max": null, "weighted_surface_energy_EV_PER_ANG2": null, "weighted_surface_energy": null, "weighted_work_function": null, "surface_anisotropy": null, "shape_factor": null, "has_reconstructed": null, "possible_species": null, "has_props": null, "theoretical": null, "database_IDs": null, "fields_not_requested": ["builder_meta", "nsites", "elements", "nelements", "composition", "composition_reduced", "chemsys", "symmetry", "property_name", "deprecated", "deprecation_reasons", "last_updated", "origins", "warnings", "task_ids", "uncorrected_energy_per_atom", "equilibrium_reaction_energy_per_atom", "decomposes_to", "xas", "grain_boundaries", "cbm", "vbm", "is_gap_direct", "is_metal", "es_source_calc_id", "bandstructure", "dos", "dos_energy_up", "dos_energy_down", "is_magnetic", "ordering", "total_magnetization_normalized_vol", "total_magnetization_normalized_formula_units", "num_magnetic_sites", "num_unique_magnetic_sites", "types_of_magnetic_species", "bulk_modulus", "shear_modulus", "universal_anisotropy", "homogeneous_poisson", "e_total", "e_ionic", "e_electronic", "n", "e_ij_max", "weighted_surface_energy_EV_PER_ANG2", "weighted_surface_energy", "weighted_work_function", "surface_anisotropy", "shape_factor", "has_reconstructed", "possible_species", "has_props", "theoretical", "database_IDs"]}