{"builder_meta": null, "nsites": null, "elements": null, "nelements": null, "composition": null, "composition_reduced": null, "formula_pretty": "TmCu2", "formula_anonymous": "AB2", "chemsys": null, "volume": 100.84790645773745, "density": 9.748602697043312, "density_atomic": 16.807984409622907, "symmetry": null, "property_name": null, "material_id": "mp-1077209", "deprecated": null, "deprecation_reasons": null, "last_updated": null, "origins": null, "warnings": null, "structure": {"@module": "pymatgen.core.structure", "@class": "Structure", "charge": 0, "lattice": {"matrix": [[-4.24723629, -0.0, 0.0], [-2.12361865, -3.30466104, 3.59255601], [-2.12361865, 3.30466104, 3.59255601]], "pbc": [true, true, true], "a": 4.24723629, "b": 5.323250834303116, "c": 5.323250834303116, "alpha": 76.74879744958169, "beta": 66.4885287487422, "gamma": 66.4885287487422, "volume": 100.84790645773745}, "properties": {}, "sites": [{"species": [{"element": "Tm", "occu": 1}], "abc": [0.547196799999999, 0.7028032, 0.2028032], "properties": {"magmom": 0.0}, "label": "Tm", "xyz": [-4.247236747331227, -1.6523305199999998, 3.2534417150144637]}, {"species": [{"element": "Tm", "occu": 1}], "abc": [0.452803199999999, 0.2971968, 0.797196799999999], "properties": {"magmom": 0.0}, "label": "Tm", "xyz": [-4.2472368426687614, 1.652330519999997, 3.9316703049855324]}, {"species": [{"element": "Cu", "occu": 1}], "abc": [0.16426027, 0.28251267, 0.3889658], "properties": {"magmom": -0.0}, "label": "Cu", "xyz": [-2.1236163817146636, 0.351791511297055, 2.4123240129841044]}, {"species": [{"element": "Cu", "occu": 1}], "abc": [0.83573973, 0.71748733, 0.6110342], "properties": {"magmom": -0.0}, "label": "Cu", "xyz": [-6.370857208285336, -0.3517915112970553, 4.772788007015895]}, {"species": [{"element": "Cu", "occu": 1}], "abc": [0.83573973, 0.1110342, 0.21748733], "properties": {"magmom": -0.0}, "label": "Cu", "xyz": [-4.247238558285336, 0.35179151129705527, 1.1802319970158954]}, {"species": [{"element": "Cu", "occu": 1}], "abc": [0.16426027, 0.888965799999999, 0.78251267], "properties": {"magmom": -0.0}, "label": "Cu", "xyz": [-4.247235031714662, -0.3517915112970522, 6.004880022984102]}]}, "task_ids": null, "uncorrected_energy_per_atom": null, "energy_per_atom": -19.232330473333334, "formation_energy_per_atom": -0.29411704333333405, "energy_above_hull": 0.0, "is_stable": true, "equilibrium_reaction_energy_per_atom": null, "decomposes_to": null, "xas": null, "grain_boundaries": null, "band_gap": 0.0, "cbm": null, "vbm": null, "efermi": 5.07914908, "is_gap_direct": null, "is_metal": null, "es_source_calc_id": null, "bandstructure": null, "dos": null, "dos_energy_up": null, "dos_energy_down": null, "is_magnetic": null, "ordering": null, "total_magnetization": 0.0, "total_magnetization_normalized_vol": null, "total_magnetization_normalized_formula_units": null, "num_magnetic_sites": null, "num_unique_magnetic_sites": null, "types_of_magnetic_species": null, "bulk_modulus": null, "shear_modulus": null, "universal_anisotropy": null, "homogeneous_poisson": null, "e_total": null, "e_ionic": null, "e_electronic": null, "n": null, "e_ij_max": null, "weighted_surface_energy_EV_PER_ANG2": null, "weighted_surface_energy": null, "weighted_work_function": null, "surface_anisotropy": null, "shape_factor": null, "has_reconstructed": null, "possible_species": null, "has_props": null, "theoretical": null, "database_IDs": null, "fields_not_requested": ["builder_meta", "nsites", "elements", "nelements", "composition", "composition_reduced", "chemsys", "symmetry", "property_name", "deprecated", "deprecation_reasons", "last_updated", "origins", "warnings", "task_ids", "uncorrected_energy_per_atom", "equilibrium_reaction_energy_per_atom", "decomposes_to", "xas", "grain_boundaries", "cbm", "vbm", "is_gap_direct", "is_metal", "es_source_calc_id", "bandstructure", "dos", "dos_energy_up", "dos_energy_down", "is_magnetic", "ordering", "total_magnetization_normalized_vol", "total_magnetization_normalized_formula_units", "num_magnetic_sites", "num_unique_magnetic_sites", "types_of_magnetic_species", "bulk_modulus", "shear_modulus", "universal_anisotropy", "homogeneous_poisson", "e_total", "e_ionic", "e_electronic", "n", "e_ij_max", "weighted_surface_energy_EV_PER_ANG2", "weighted_surface_energy", "weighted_work_function", "surface_anisotropy", "shape_factor", "has_reconstructed", "possible_species", "has_props", "theoretical", "database_IDs"]}