{
  "builder_meta": null,
  "nsites": null,
  "elements": null,
  "nelements": null,
  "composition": null,
  "composition_reduced": null,
  "formula_pretty": "TmCu5",
  "formula_anonymous": "AB5",
  "chemsys": null,
  "volume": 82.61053076358085,
  "density": 9.782347668649662,
  "density_atomic": 13.768421793930143,
  "symmetry": null,
  "property_name": null,
  "material_id": "mp-30600",
  "deprecated": null,
  "deprecation_reasons": null,
  "last_updated": null,
  "origins": null,
  "warnings": null,
  "structure": {
    "@module": "pymatgen.core.structure",
    "@class": "Structure",
    "charge": 0,
    "lattice": {
      "matrix": [
        [4.23364143, 1.009999999999998e-6, 2.44429565],
        [1.411214489999999, 3.99151555, 2.44429565],
        [0.0, 0.0, 4.88858928]
      ],
      "pbc": [true, true, true],
      "a": 4.8885888538945865,
      "b": 4.888589157137945,
      "c": 4.88858928,
      "alpha": 59.999985499842786,
      "beta": 59.99998344787731,
      "gamma": 59.99997188688941,
      "volume": 82.61053076358085
    },
    "properties": {},
    "sites": [
      {
        "species": [{ "element": "Tm", "occu": 1 }],
        "abc": [-0.0, 0.0, -0.0],
        "properties": { "magmom": 0.0 },
        "label": "Tm",
        "xyz": [0.0, 0.0, 0.0]
      },
      {
        "species": [{ "element": "Cu", "occu": 1 }],
        "abc": [0.25, 0.25, 0.25],
        "properties": { "magmom": 0.0 },
        "label": "Cu",
        "xyz": [1.4112139799999996, 0.99787914, 2.444295145]
      },
      {
        "species": [{ "element": "Cu", "occu": 1 }],
        "abc": [0.62407946, 0.62407946, 0.62407946],
        "properties": { "magmom": 0.0 },
        "label": "Cu",
        "xyz": [3.5228386343314027, 2.4910234993458578, 6.101737576688887]
      },
      {
        "species": [{ "element": "Cu", "occu": 1 }],
        "abc": [0.62407946, 0.62407946, 0.12776161],
        "properties": { "magmom": 0.0 },
        "label": "Cu",
        "xyz": [3.5228386343314027, 2.4910234993458578, 3.675443455706239]
      },
      {
        "species": [{ "element": "Cu", "occu": 1 }],
        "abc": [0.12776161, 0.62407946, 0.62407946],
        "properties": { "magmom": 0.0 },
        "label": "Cu",
        "xyz": [1.421606822122877, 2.491022998064829, 4.888590014916534]
      },
      {
        "species": [{ "element": "Cu", "occu": 1 }],
        "abc": [0.62407946, 0.12776161, 0.62407946],
        "properties": { "magmom": 0.0 },
        "label": "Cu",
        "xyz": [2.8224276927657566, 0.50996308332829, 4.888590014916534]
      }
    ]
  },
  "task_ids": null,
  "uncorrected_energy_per_atom": null,
  "energy_per_atom": -15.090444386666666,
  "formation_energy_per_atom": -0.197939671666667,
  "energy_above_hull": 0.0,
  "is_stable": true,
  "equilibrium_reaction_energy_per_atom": null,
  "decomposes_to": null,
  "xas": null,
  "grain_boundaries": null,
  "band_gap": 0.0,
  "cbm": null,
  "vbm": null,
  "efermi": 5.91370448,
  "is_gap_direct": null,
  "is_metal": null,
  "es_source_calc_id": null,
  "bandstructure": null,
  "dos": null,
  "dos_energy_up": null,
  "dos_energy_down": null,
  "is_magnetic": null,
  "ordering": null,
  "total_magnetization": 4e-7,
  "total_magnetization_normalized_vol": null,
  "total_magnetization_normalized_formula_units": null,
  "num_magnetic_sites": null,
  "num_unique_magnetic_sites": null,
  "types_of_magnetic_species": null,
  "bulk_modulus": null,
  "shear_modulus": null,
  "universal_anisotropy": null,
  "homogeneous_poisson": null,
  "e_total": null,
  "e_ionic": null,
  "e_electronic": null,
  "n": null,
  "e_ij_max": null,
  "weighted_surface_energy_EV_PER_ANG2": null,
  "weighted_surface_energy": null,
  "weighted_work_function": null,
  "surface_anisotropy": null,
  "shape_factor": null,
  "has_reconstructed": null,
  "possible_species": null,
  "has_props": null,
  "theoretical": null,
  "database_IDs": null,
  "fields_not_requested": [
    "builder_meta",
    "nsites",
    "elements",
    "nelements",
    "composition",
    "composition_reduced",
    "chemsys",
    "symmetry",
    "property_name",
    "deprecated",
    "deprecation_reasons",
    "last_updated",
    "origins",
    "warnings",
    "task_ids",
    "uncorrected_energy_per_atom",
    "equilibrium_reaction_energy_per_atom",
    "decomposes_to",
    "xas",
    "grain_boundaries",
    "cbm",
    "vbm",
    "is_gap_direct",
    "is_metal",
    "es_source_calc_id",
    "bandstructure",
    "dos",
    "dos_energy_up",
    "dos_energy_down",
    "is_magnetic",
    "ordering",
    "total_magnetization_normalized_vol",
    "total_magnetization_normalized_formula_units",
    "num_magnetic_sites",
    "num_unique_magnetic_sites",
    "types_of_magnetic_species",
    "bulk_modulus",
    "shear_modulus",
    "universal_anisotropy",
    "homogeneous_poisson",
    "e_total",
    "e_ionic",
    "e_electronic",
    "n",
    "e_ij_max",
    "weighted_surface_energy_EV_PER_ANG2",
    "weighted_surface_energy",
    "weighted_work_function",
    "surface_anisotropy",
    "shape_factor",
    "has_reconstructed",
    "possible_species",
    "has_props",
    "theoretical",
    "database_IDs"
  ]
}
