{"builder_meta": null, "nsites": null, "elements": null, "nelements": null, "composition": null, "composition_reduced": null, "formula_pretty": "TmFe3", "formula_anonymous": "AB3", "chemsys": null, "volume": 177.70877335242457, "density": 9.432065576273075, "density_atomic": 14.80906444603538, "symmetry": null, "property_name": null, "material_id": "mp-1103015", "deprecated": null, "deprecation_reasons": null, "last_updated": null, "origins": null, "warnings": null, "structure": {"@module": "pymatgen.core.structure", "@class": "Structure", "charge": 0, "lattice": {"matrix": [[-2.530261, -4.38254, 0.0], [2.530261, -4.38254, 0.0], [0.0, -2.921693, 8.012862]], "pbc": [true, true, true], "a": 5.0605214731014625, "b": 5.0605214731014625, "c": 8.528906578061047, "alpha": 72.74236852254386, "beta": 72.74236852254386, "gamma": 60.000006888485196, "volume": 177.70877335242457}, "properties": {}, "sites": [{"species": [{"element": "Tm", "occu": 1}], "abc": [0.141908, 0.141908, 0.574275], "properties": {"magmom": -0.582}, "label": "Tm", "xyz": [0.0, -2.921690220215, 4.6015863250499995]}, {"species": [{"element": "Tm", "occu": 1}], "abc": [0.858092, 0.858092, 0.425724999999999], "properties": {"magmom": -0.582}, "label": "Tm", "xyz": [0.0, -8.765082779784997, 3.411275674949992]}, {"species": [{"element": "Tm", "occu": 1}], "abc": [0.0, 0.0, 0.0], "properties": {"magmom": -0.448}, "label": "Tm", "xyz": [0.0, 0.0, 0.0]}, {"species": [{"element": "Fe", "occu": 1}], "abc": [0.082174, 0.581732, 0.754361], "properties": {"magmom": 1.956}, "label": "Fe", "xyz": [1.264012124638, -5.113605854413, 6.044590591182]}, {"species": [{"element": "Fe", "occu": 1}], "abc": [0.581732, 0.581732, 0.754361], "properties": {"magmom": 1.957}, "label": "Fe", "xyz": [0.0, -7.302938771733, 6.044590591182]}, {"species": [{"element": "Fe", "occu": 1}], "abc": [0.581732, 0.082174, 0.754361], "properties": {"magmom": 1.957}, "label": "Fe", "xyz": [-1.264012124638, -5.113605854413, 6.044590591182]}, {"species": [{"element": "Fe", "occu": 1}], "abc": [0.917825999999999, 0.418268, 0.245639], "properties": {"magmom": 1.96}, "label": "Fe", "xyz": [-1.2640121246379974, -6.5731671455869956, 1.968271408818]}, {"species": [{"element": "Fe", "occu": 1}], "abc": [0.418268, 0.418268, 0.245639], "properties": {"magmom": 1.96}, "label": "Fe", "xyz": [0.0, -4.383834228266999, 1.968271408818]}, {"species": [{"element": "Fe", "occu": 1}], "abc": [0.418268, 0.917825999999999, 0.245639], "properties": {"magmom": 1.960999999999999}, "label": "Fe", "xyz": [1.2640121246379974, -6.5731671455869956, 1.968271408818]}, {"species": [{"element": "Fe", "occu": 1}], "abc": [0.332692999999999, 0.332692999999999, 0.001921], "properties": {"magmom": 2.159}, "label": "Fe", "xyz": [0.0, -2.921693332692991, 0.015392707902]}, {"species": [{"element": "Fe", "occu": 1}], "abc": [0.667307, 0.667307, 0.998078999999999], "properties": {"magmom": 2.159}, "label": "Fe", "xyz": [0.0, -8.765079667306996, 7.997469292097993]}, {"species": [{"element": "Fe", "occu": 1}], "abc": [0.5, 0.5, 0.5], "properties": {"magmom": 1.730999999999999}, "label": "Fe", "xyz": [0.0, -5.843386499999999, 4.006431]}]}, "task_ids": null, "uncorrected_energy_per_atom": null, "energy_per_atom": -7.585700568333333, "formation_energy_per_atom": -0.112559290833335, "energy_above_hull": 0.0, "is_stable": true, "equilibrium_reaction_energy_per_atom": null, "decomposes_to": null, "xas": null, "grain_boundaries": null, "band_gap": 0.0, "cbm": null, "vbm": null, "efermi": 4.38503082, "is_gap_direct": null, "is_metal": null, "es_source_calc_id": null, "bandstructure": null, "dos": null, "dos_energy_up": null, "dos_energy_down": null, "is_magnetic": null, "ordering": null, "total_magnetization": 16.1462388, "total_magnetization_normalized_vol": null, "total_magnetization_normalized_formula_units": null, "num_magnetic_sites": null, "num_unique_magnetic_sites": null, "types_of_magnetic_species": null, "bulk_modulus": null, "shear_modulus": null, "universal_anisotropy": null, "homogeneous_poisson": null, "e_total": null, "e_ionic": null, "e_electronic": null, "n": null, "e_ij_max": null, "weighted_surface_energy_EV_PER_ANG2": null, "weighted_surface_energy": null, "weighted_work_function": null, "surface_anisotropy": null, "shape_factor": null, "has_reconstructed": null, "possible_species": null, "has_props": null, "theoretical": null, "database_IDs": null, "fields_not_requested": ["builder_meta", "nsites", "elements", "nelements", "composition", "composition_reduced", "chemsys", "symmetry", "property_name", "deprecated", "deprecation_reasons", "last_updated", "origins", "warnings", "task_ids", "uncorrected_energy_per_atom", "equilibrium_reaction_energy_per_atom", "decomposes_to", "xas", "grain_boundaries", "cbm", "vbm", "is_gap_direct", "is_metal", "es_source_calc_id", "bandstructure", "dos", "dos_energy_up", "dos_energy_down", "is_magnetic", "ordering", "total_magnetization_normalized_vol", "total_magnetization_normalized_formula_units", "num_magnetic_sites", "num_unique_magnetic_sites", "types_of_magnetic_species", "bulk_modulus", "shear_modulus", "universal_anisotropy", "homogeneous_poisson", "e_total", "e_ionic", "e_electronic", "n", "e_ij_max", "weighted_surface_energy_EV_PER_ANG2", "weighted_surface_energy", "weighted_work_function", "surface_anisotropy", "shape_factor", "has_reconstructed", "possible_species", "has_props", "theoretical", "database_IDs"]}