{
  "builder_meta": null,
  "nsites": null,
  "elements": null,
  "nelements": null,
  "composition": null,
  "composition_reduced": null,
  "formula_pretty": "TmFe2",
  "formula_anonymous": "AB2",
  "chemsys": null,
  "volume": 94.76238407435949,
  "density": 9.834861549559678,
  "density_atomic": 15.793730679059914,
  "symmetry": null,
  "property_name": null,
  "material_id": "mp-571183",
  "deprecated": null,
  "deprecation_reasons": null,
  "last_updated": null,
  "origins": null,
  "warnings": null,
  "structure": {
    "@module": "pymatgen.core.structure",
    "@class": "Structure",
    "charge": 0,
    "lattice": {
      "matrix": [
        [4.43199461, -0.00056226, 2.55818827],
        [1.47679673, 4.17776679, 2.55819896],
        [-0.00050144, -0.00034067, 5.11725097]
      ],
      "pbc": [true, true, true],
      "a": 5.117314116210862,
      "b": 5.1165462816543235,
      "c": 5.117251005907768,
      "alpha": 60.00642671401683,
      "beta": 60.011674576111346,
      "gamma": 60.01093172457151,
      "volume": 94.76238407435949
    },
    "properties": {},
    "sites": [
      {
        "species": [{ "element": "Tm", "occu": 1 }],
        "abc": [0.87496523, 0.8750182400000001, 0.87497815],
        "properties": { "magmom": -1.051 },
        "label": "Tm",
        "xyz": [5.16962650977623, 3.6548321069596694, 8.954279326409189]
      },
      {
        "species": [{ "element": "Tm", "occu": 1 }],
        "abc": [0.12503477, 0.12498176, 0.12502185],
        "properties": { "magmom": -1.051 },
        "label": "Tm",
        "xyz": [0.7386633902237705, 0.5220317530403307, 1.279358873590812]
      },
      {
        "species": [{ "element": "Fe", "occu": 1 }],
        "abc": [0.5, 0.0, 0.5],
        "properties": { "magmom": 2.452 },
        "label": "Fe",
        "xyz": [2.215746585, -0.00045146499999999996, 3.8377196199999997]
      },
      {
        "species": [{ "element": "Fe", "occu": 1 }],
        "abc": [0.0, 0.5, 0.5],
        "properties": { "magmom": 2.452 },
        "label": "Fe",
        "xyz": [0.738147645, 2.08871306, 3.8377249649999996]
      },
      {
        "species": [{ "element": "Fe", "occu": 1 }],
        "abc": [0.5, 0.5, 0.5],
        "properties": { "magmom": 2.452 },
        "label": "Fe",
        "xyz": [2.9541449500000003, 2.08843193, 5.1168191]
      },
      {
        "species": [{ "element": "Fe", "occu": 1 }],
        "abc": [0.5, 0.5, -0.0],
        "properties": { "magmom": 2.452 },
        "label": "Fe",
        "xyz": [2.9543956700000003, 2.088602265, 2.558193615]
      }
    ]
  },
  "task_ids": null,
  "uncorrected_energy_per_atom": null,
  "energy_per_atom": -7.281741035,
  "formation_energy_per_atom": -0.140893068333336,
  "energy_above_hull": 0.0,
  "is_stable": true,
  "equilibrium_reaction_energy_per_atom": null,
  "decomposes_to": null,
  "xas": null,
  "grain_boundaries": null,
  "band_gap": 0.0,
  "cbm": null,
  "vbm": null,
  "efermi": 4.38798697,
  "is_gap_direct": null,
  "is_metal": null,
  "es_source_calc_id": null,
  "bandstructure": null,
  "dos": null,
  "dos_energy_up": null,
  "dos_energy_down": null,
  "is_magnetic": null,
  "ordering": null,
  "total_magnetization": 7.3161317,
  "total_magnetization_normalized_vol": null,
  "total_magnetization_normalized_formula_units": null,
  "num_magnetic_sites": null,
  "num_unique_magnetic_sites": null,
  "types_of_magnetic_species": null,
  "bulk_modulus": null,
  "shear_modulus": null,
  "universal_anisotropy": null,
  "homogeneous_poisson": null,
  "e_total": null,
  "e_ionic": null,
  "e_electronic": null,
  "n": null,
  "e_ij_max": null,
  "weighted_surface_energy_EV_PER_ANG2": null,
  "weighted_surface_energy": null,
  "weighted_work_function": null,
  "surface_anisotropy": null,
  "shape_factor": null,
  "has_reconstructed": null,
  "possible_species": null,
  "has_props": null,
  "theoretical": null,
  "database_IDs": null,
  "fields_not_requested": [
    "builder_meta",
    "nsites",
    "elements",
    "nelements",
    "composition",
    "composition_reduced",
    "chemsys",
    "symmetry",
    "property_name",
    "deprecated",
    "deprecation_reasons",
    "last_updated",
    "origins",
    "warnings",
    "task_ids",
    "uncorrected_energy_per_atom",
    "equilibrium_reaction_energy_per_atom",
    "decomposes_to",
    "xas",
    "grain_boundaries",
    "cbm",
    "vbm",
    "is_gap_direct",
    "is_metal",
    "es_source_calc_id",
    "bandstructure",
    "dos",
    "dos_energy_up",
    "dos_energy_down",
    "is_magnetic",
    "ordering",
    "total_magnetization_normalized_vol",
    "total_magnetization_normalized_formula_units",
    "num_magnetic_sites",
    "num_unique_magnetic_sites",
    "types_of_magnetic_species",
    "bulk_modulus",
    "shear_modulus",
    "universal_anisotropy",
    "homogeneous_poisson",
    "e_total",
    "e_ionic",
    "e_electronic",
    "n",
    "e_ij_max",
    "weighted_surface_energy_EV_PER_ANG2",
    "weighted_surface_energy",
    "weighted_work_function",
    "surface_anisotropy",
    "shape_factor",
    "has_reconstructed",
    "possible_species",
    "has_props",
    "theoretical",
    "database_IDs"
  ]
}
