{"builder_meta": null, "nsites": null, "elements": null, "nelements": null, "composition": null, "composition_reduced": null, "formula_pretty": "TmH3", "formula_anonymous": "AB3", "chemsys": null, "volume": 212.81033651903118, "density": 8.05063413651543, "density_atomic": 8.867097354959633, "symmetry": null, "property_name": null, "material_id": "mp-1191179", "deprecated": null, "deprecation_reasons": null, "last_updated": null, "origins": null, "warnings": null, "structure": {"@module": "pymatgen.core.structure", "@class": "Structure", "charge": 0, "lattice": {"matrix": [[-3.08611921, -5.345326079999999, 6.4e-06], [-3.08612176, 5.34532716, 1.559999999999999e-06], [1.1360000000000001e-05, 3.95e-06, -6.4502359]], "pbc": [true, true, true], "a": 6.172247781797174, "b": 6.172249992100254, "c": 6.450235900011213, "alpha": 90.00003454899587, "beta": 90.0001402499569, "gamma": 120.00008486058849, "volume": 212.81033651903118}, "properties": {}, "sites": [{"species": [{"element": "Tm", "occu": 1}], "abc": [0.33741167, 0.33741293, 0.74999982], "properties": {"magmom": -0.0}, "label": "Tm", "xyz": [-2.082581501845582, 1.0062016114759266e-05, -4.837673078158679]}, {"species": [{"element": "Tm", "occu": 1}], "abc": [0.662589, 1.42e-06, 0.75000022], "properties": {"magmom": -0.0}, "label": "Tm", "xyz": [-2.0448245035250903, -3.541743709155683, -4.837674103480082]}, {"species": [{"element": "Tm", "occu": 1}], "abc": [2e-07, 0.66258951, 0.7500001], "properties": {"magmom": 0.0}, "label": "Tm", "xyz": [-2.044824001981443, 3.541759597169271, -4.8376765363826735]}, {"species": [{"element": "Tm", "occu": 1}], "abc": [0.337410999999999, -1.42e-06, 0.24999978], "properties": {"magmom": -0.0}, "label": "Tm", "xyz": [-1.041283346474907, -1.8035784208443104, -1.6125553965199173]}, {"species": [{"element": "Tm", "occu": 1}], "abc": [-2e-07, 0.33741049, 0.2499999], "properties": {"magmom": 0.0}, "label": "Tm", "xyz": [-1.0412863980185563, 1.8035715128307293, -1.6125578036173256]}, {"species": [{"element": "Tm", "occu": 1}], "abc": [0.6625883300000001, 0.66258807, 0.25000018], "properties": {"magmom": -0.0}, "label": "Tm", "xyz": [-4.089651194276177, 3.1331104645986337e-07, -1.612554861839761]}, {"species": [{"element": "H", "occu": 1}], "abc": [0.67971982, 0.64715478, 0.59001136], "properties": {"magmom": -0.0}, "label": "H", "xyz": [-4.094888140036705, -0.1740677281362075, -3.805707095911519]}, {"species": [{"element": "H", "occu": 1}], "abc": [0.35284606, 0.03256608, 0.59001102], "properties": {"magmom": -0.0}, "label": "H", "xyz": [-1.1894211895395261, -1.7119985642809827, -3.8057079535817495]}, {"species": [{"element": "H", "occu": 1}], "abc": [0.9674357100000001, 0.32028168, 0.59001107], "properties": {"magmom": -0.0}, "label": "H", "xyz": [-3.9740434885225913, -3.4592466378881603, -3.8057038938834484]}, {"species": [{"element": "H", "occu": 1}], "abc": [0.67972023, 0.03256425, 0.09001148], "properties": {"magmom": -0.0}, "label": "H", "xyz": [-2.1981938772212857, -3.4592593470072215, -0.5805908786984301]}, {"species": [{"element": "H", "occu": 1}], "abc": [0.96743799, 0.64715772, 0.090011899999999], "properties": {"magmom": 0.0}, "label": "H", "xyz": [-4.982835464731592, -1.7120014256630969, -0.5805907876380244]}, {"species": [{"element": "H", "occu": 1}], "abc": [0.35284404, 0.32027931, 0.09001099], "properties": {"magmom": -0.0}, "label": "H", "xyz": [-2.0773386953219477, -0.17406839911209282, -0.5805893612549614]}, {"species": [{"element": "H", "occu": 1}], "abc": [0.32028018, 0.35284522, 0.40998864], "properties": {"magmom": -0.0}, "label": "H", "xyz": [-2.077341469963295, 0.17407275813620915, -2.644520844088481]}, {"species": [{"element": "H", "occu": 1}], "abc": [0.6471549400000001, 0.9674339200000001, 0.40998898], "properties": {"magmom": -0.0}, "label": "H", "xyz": [-4.982811506579685, 1.7119982489549035, -2.6445199864118507]}, {"species": [{"element": "H", "occu": 1}], "abc": [0.03256429, 0.67971932, 0.40998893000000003], "properties": {"magmom": -0.0}, "label": "H", "xyz": [-2.1981892075991696, 3.4592570132153218, -2.644524046114992]}, {"species": [{"element": "H", "occu": 1}], "abc": [0.32027977, 0.96743575, 0.90998852], "properties": {"magmom": -0.0}, "label": "H", "xyz": [-3.974035732778715, 3.459264377007223, -5.86963706130157]}, {"species": [{"element": "H", "occu": 1}], "abc": [0.03256201, 0.35284228, 0.9099881], "properties": {"magmom": 0.0}, "label": "H", "xyz": [-1.1893941452684091, 1.7120064556630992, -5.869637152361969]}, {"species": [{"element": "H", "occu": 1}], "abc": [0.64715596, 0.67972069, 0.90998901], "properties": {"magmom": -0.0}, "label": "H", "xyz": [-4.094890914678053, 0.17407342911209447, -5.869638578745038]}, {"species": [{"element": "H", "occu": 1}], "abc": [-1.899999999999999e-07, 5e-08, 0.74999806], "properties": {"magmom": 0.0}, "label": "H", "xyz": [8.952034523500002e-06, 4.2453706502e-06, -4.837664411543492]}, {"species": [{"element": "H", "occu": 1}], "abc": [1.899999999999999e-07, -5e-08, 0.25000194], "properties": {"magmom": 0.0}, "label": "H", "xyz": [2.4079654765000004e-06, -2.953706501999993e-07, -1.6125714884565079]}, {"species": [{"element": "H", "occu": 1}], "abc": [0.33333342, 0.6666675200000001, 0.68789796], "properties": {"magmom": 0.0}, "label": "H", "xyz": [-3.0861159964334086, 1.7817828952811925, -4.437100943793545]}, {"species": [{"element": "H", "occu": 1}], "abc": [0.33333342, 0.66666527, 0.18789639], "properties": {"magmom": 0.0}, "label": "H", "xyz": [-3.0861147326772835, 1.7817688932888804, -1.2119728669266918]}, {"species": [{"element": "H", "occu": 1}], "abc": [0.66666658, 0.33333248, 0.31210204], "properties": {"magmom": 0.0}, "label": "H", "xyz": [-3.0861136135665923, -1.7817778652811906, -2.0131269962064553]}, {"species": [{"element": "H", "occu": 1}], "abc": [0.66666658, 0.33333473, 0.81210361], "properties": {"magmom": 0.0}, "label": "H", "xyz": [-3.0861148773227174, -1.7817638632888788, -5.238255073073308]}]}, "task_ids": null, "uncorrected_energy_per_atom": null, "energy_per_atom": -12.095023675, "formation_energy_per_atom": -0.723427301562502, "energy_above_hull": 0.0, "is_stable": true, "equilibrium_reaction_energy_per_atom": null, "decomposes_to": null, "xas": null, "grain_boundaries": null, "band_gap": 0.006099999999999, "cbm": null, "vbm": null, "efermi": 2.59876045, "is_gap_direct": null, "is_metal": null, "es_source_calc_id": null, "bandstructure": null, "dos": null, "dos_energy_up": null, "dos_energy_down": null, "is_magnetic": null, "ordering": null, "total_magnetization": 0.0, "total_magnetization_normalized_vol": null, "total_magnetization_normalized_formula_units": null, "num_magnetic_sites": null, "num_unique_magnetic_sites": null, "types_of_magnetic_species": null, "bulk_modulus": null, "shear_modulus": null, "universal_anisotropy": null, "homogeneous_poisson": null, "e_total": null, "e_ionic": null, "e_electronic": null, "n": null, "e_ij_max": null, "weighted_surface_energy_EV_PER_ANG2": null, "weighted_surface_energy": null, "weighted_work_function": null, "surface_anisotropy": null, "shape_factor": null, "has_reconstructed": null, "possible_species": null, "has_props": null, "theoretical": null, "database_IDs": null, "fields_not_requested": ["builder_meta", "nsites", "elements", "nelements", "composition", "composition_reduced", "chemsys", "symmetry", "property_name", "deprecated", "deprecation_reasons", "last_updated", "origins", "warnings", "task_ids", "uncorrected_energy_per_atom", "equilibrium_reaction_energy_per_atom", "decomposes_to", "xas", "grain_boundaries", "cbm", "vbm", "is_gap_direct", "is_metal", "es_source_calc_id", "bandstructure", "dos", "dos_energy_up", "dos_energy_down", "is_magnetic", "ordering", "total_magnetization_normalized_vol", "total_magnetization_normalized_formula_units", "num_magnetic_sites", "num_unique_magnetic_sites", "types_of_magnetic_species", "bulk_modulus", "shear_modulus", "universal_anisotropy", "homogeneous_poisson", "e_total", "e_ionic", "e_electronic", "n", "e_ij_max", "weighted_surface_energy_EV_PER_ANG2", "weighted_surface_energy", "weighted_work_function", "surface_anisotropy", "shape_factor", "has_reconstructed", "possible_species", "has_props", "theoretical", "database_IDs"]}