{
  "builder_meta": null,
  "nsites": null,
  "elements": null,
  "nelements": null,
  "composition": null,
  "composition_reduced": null,
  "formula_pretty": "TmHg3",
  "formula_anonymous": "AB3",
  "chemsys": null,
  "volume": 182.7661034241777,
  "density": 14.004614920611047,
  "density_atomic": 22.84576292802221,
  "symmetry": null,
  "property_name": null,
  "material_id": "mp-865327",
  "deprecated": null,
  "deprecation_reasons": null,
  "last_updated": null,
  "origins": null,
  "warnings": null,
  "structure": {
    "@module": "pymatgen.core.structure",
    "@class": "Structure",
    "charge": 0,
    "lattice": {
      "matrix": [
        [6.54723607, -2.47e-6, -1e-8],
        [-3.27362095, 5.67007262, 0.0],
        [-1e-8, -0.0, 4.92321867]
      ],
      "pbc": [true, true, true],
      "a": 6.547236070000467,
      "b": 6.547237405223105,
      "c": 4.92321867,
      "alpha": 89.99999994181061,
      "beta": 90.00000020389011,
      "gamma": 120.00004432505288,
      "volume": 182.7661034241777
    },
    "properties": {},
    "sites": [
      {
        "species": [{ "element": "Tm", "occu": 1 }],
        "abc": [0.33333295, 0.66666693, 0.74999983],
        "properties": { "magmom": 0.0 },
        "label": "Tm",
        "xyz": [-5.3226606752219485e-6, 3.78004908312007, 3.6924131622194967]
      },
      {
        "species": [{ "element": "Tm", "occu": 1 }],
        "abc": [0.66666798, 0.33333403, 0.24999935],
        "properties": { "magmom": -0.0 },
        "label": "Tm",
        "xyz": [3.273623378914117, 1.890026510147348, 1.2308014607411846]
      },
      {
        "species": [{ "element": "Hg", "occu": 1 }],
        "abc": [0.16703752, 0.33407389, 0.24999919],
        "properties": { "magmom": 0.0 },
        "label": "Hg",
        "xyz": [2.78833535891881e-6, 1.8942228041632172, 1.230800678022502]
      },
      {
        "species": [{ "element": "Hg", "occu": 1 }],
        "abc": [0.66592606, 0.83296253, 0.24999919],
        "properties": { "magmom": -0.0 },
        "label": "Hg",
        "xyz": [1.6331715287119886, 4.72295639000156, 1.2308006730336165]
      },
      {
        "species": [{ "element": "Hg", "occu": 1 }],
        "abc": [0.16703844, 0.8329626, 0.24999919],
        "properties": { "magmom": 0.0 },
        "label": "Hg",
        "xyz": [-1.633163720981931, 4.722958019159066, 1.2308006780224927]
      },
      {
        "species": [{ "element": "Hg", "occu": 1 }],
        "abc": [0.83296163, 0.66592621, 0.75000075],
        "properties": { "magmom": 0.0 },
        "label": "Hg",
        "xyz": [3.2736064291518874, 3.7758479128461437, 3.692417686584386]
      },
      {
        "species": [{ "element": "Hg", "occu": 1 }],
        "abc": [0.33407575, 0.16703842, 0.75000075],
        "properties": { "magmom": -0.0 },
        "label": "Hg",
        "xyz": [1.6404523218453961, 0.9471191465629578, 3.6924176915732447]
      },
      {
        "species": [{ "element": "Hg", "occu": 1 }],
        "abc": [0.83296167, 0.1670384, 0.75000075],
        "properties": { "magmom": 0.0 },
        "label": "Hg",
        "xyz": [4.90677627755695, 0.9471178009132831, 3.6924176865843856]
      }
    ]
  },
  "task_ids": null,
  "uncorrected_energy_per_atom": null,
  "energy_per_atom": -46.1694327475,
  "formation_energy_per_atom": -0.363315783124996,
  "energy_above_hull": 0.0,
  "is_stable": true,
  "equilibrium_reaction_energy_per_atom": null,
  "decomposes_to": null,
  "xas": null,
  "grain_boundaries": null,
  "band_gap": 0.0,
  "cbm": null,
  "vbm": null,
  "efermi": 3.58862723,
  "is_gap_direct": null,
  "is_metal": null,
  "es_source_calc_id": null,
  "bandstructure": null,
  "dos": null,
  "dos_energy_up": null,
  "dos_energy_down": null,
  "is_magnetic": null,
  "ordering": null,
  "total_magnetization": 0.0,
  "total_magnetization_normalized_vol": null,
  "total_magnetization_normalized_formula_units": null,
  "num_magnetic_sites": null,
  "num_unique_magnetic_sites": null,
  "types_of_magnetic_species": null,
  "bulk_modulus": null,
  "shear_modulus": null,
  "universal_anisotropy": null,
  "homogeneous_poisson": null,
  "e_total": null,
  "e_ionic": null,
  "e_electronic": null,
  "n": null,
  "e_ij_max": null,
  "weighted_surface_energy_EV_PER_ANG2": null,
  "weighted_surface_energy": null,
  "weighted_work_function": null,
  "surface_anisotropy": null,
  "shape_factor": null,
  "has_reconstructed": null,
  "possible_species": null,
  "has_props": null,
  "theoretical": null,
  "database_IDs": null,
  "fields_not_requested": [
    "builder_meta",
    "nsites",
    "elements",
    "nelements",
    "composition",
    "composition_reduced",
    "chemsys",
    "symmetry",
    "property_name",
    "deprecated",
    "deprecation_reasons",
    "last_updated",
    "origins",
    "warnings",
    "task_ids",
    "uncorrected_energy_per_atom",
    "equilibrium_reaction_energy_per_atom",
    "decomposes_to",
    "xas",
    "grain_boundaries",
    "cbm",
    "vbm",
    "is_gap_direct",
    "is_metal",
    "es_source_calc_id",
    "bandstructure",
    "dos",
    "dos_energy_up",
    "dos_energy_down",
    "is_magnetic",
    "ordering",
    "total_magnetization_normalized_vol",
    "total_magnetization_normalized_formula_units",
    "num_magnetic_sites",
    "num_unique_magnetic_sites",
    "types_of_magnetic_species",
    "bulk_modulus",
    "shear_modulus",
    "universal_anisotropy",
    "homogeneous_poisson",
    "e_total",
    "e_ionic",
    "e_electronic",
    "n",
    "e_ij_max",
    "weighted_surface_energy_EV_PER_ANG2",
    "weighted_surface_energy",
    "weighted_work_function",
    "surface_anisotropy",
    "shape_factor",
    "has_reconstructed",
    "possible_species",
    "has_props",
    "theoretical",
    "database_IDs"
  ]
}
