{"builder_meta": null, "nsites": null, "elements": null, "nelements": null, "composition": null, "composition_reduced": null, "formula_pretty": "TmI2", "formula_anonymous": "AB2", "chemsys": null, "volume": 110.24321244407109, "density": 6.3675713012143484, "density_atomic": 36.74773748135703, "symmetry": null, "property_name": null, "material_id": "mp-29671", "deprecated": null, "deprecation_reasons": null, "last_updated": null, "origins": null, "warnings": null, "structure": {"@module": "pymatgen.core.structure", "@class": "Structure", "charge": 0, "lattice": {"matrix": [[4.09015007, -2e-08, 0.0], [-2.04507556, 3.54217353, -0.0], [0.0, -0.0, 7.60926633]], "pbc": [true, true, true], "a": 4.09015007, "b": 4.090150041592848, "c": 7.60926633, "alpha": 90.0, "beta": 90.0, "gamma": 120.00000900195305, "volume": 110.24321244407109}, "properties": {}, "sites": [{"species": [{"element": "Tm", "occu": 1}], "abc": [-0.0, 0.0, -0.0], "properties": {"magmom": -0.0}, "label": "Tm", "xyz": [0.0, 0.0, 0.0]}, {"species": [{"element": "I", "occu": 1}], "abc": [0.666667, 0.333333, 0.75075616], "properties": {"magmom": -0.0}, "label": "I", "xyz": [2.0450769050752102, 1.18072331594215, 5.712703570328093]}, {"species": [{"element": "I", "occu": 1}], "abc": [0.333333, 0.666667, 0.24924384], "properties": {"magmom": -0.0}, "label": "I", "xyz": [-2.395075209937758e-06, 2.36145019405785, 1.896562759671907]}]}, "task_ids": null, "uncorrected_energy_per_atom": null, "energy_per_atom": -3.907539366666663, "formation_energy_per_atom": -1.397363796666666, "energy_above_hull": 0.042576936666669, "is_stable": false, "equilibrium_reaction_energy_per_atom": null, "decomposes_to": null, "xas": null, "grain_boundaries": null, "band_gap": 0.0, "cbm": null, "vbm": null, "efermi": 4.97696798, "is_gap_direct": null, "is_metal": null, "es_source_calc_id": null, "bandstructure": null, "dos": null, "dos_energy_up": null, "dos_energy_down": null, "is_magnetic": null, "ordering": null, "total_magnetization": 1.6e-06, "total_magnetization_normalized_vol": null, "total_magnetization_normalized_formula_units": null, "num_magnetic_sites": null, "num_unique_magnetic_sites": null, "types_of_magnetic_species": null, "bulk_modulus": null, "shear_modulus": null, "universal_anisotropy": null, "homogeneous_poisson": null, "e_total": null, "e_ionic": null, "e_electronic": null, "n": null, "e_ij_max": null, "weighted_surface_energy_EV_PER_ANG2": null, "weighted_surface_energy": null, "weighted_work_function": null, "surface_anisotropy": null, "shape_factor": null, "has_reconstructed": null, "possible_species": null, "has_props": null, "theoretical": null, "database_IDs": null, "fields_not_requested": ["builder_meta", "nsites", "elements", "nelements", "composition", "composition_reduced", "chemsys", "symmetry", "property_name", "deprecated", "deprecation_reasons", "last_updated", "origins", "warnings", "task_ids", "uncorrected_energy_per_atom", "equilibrium_reaction_energy_per_atom", "decomposes_to", "xas", "grain_boundaries", "cbm", "vbm", "is_gap_direct", "is_metal", "es_source_calc_id", "bandstructure", "dos", "dos_energy_up", "dos_energy_down", "is_magnetic", "ordering", "total_magnetization_normalized_vol", "total_magnetization_normalized_formula_units", "num_magnetic_sites", "num_unique_magnetic_sites", "types_of_magnetic_species", "bulk_modulus", "shear_modulus", "universal_anisotropy", "homogeneous_poisson", "e_total", "e_ionic", "e_electronic", "n", "e_ij_max", "weighted_surface_energy_EV_PER_ANG2", "weighted_surface_energy", "weighted_work_function", "surface_anisotropy", "shape_factor", "has_reconstructed", "possible_species", "has_props", "theoretical", "database_IDs"]}