{"builder_meta": null, "nsites": null, "elements": null, "nelements": null, "composition": null, "composition_reduced": null, "formula_pretty": "TmI3", "formula_anonymous": "AB3", "chemsys": null, "volume": 411.3811817430747, "density": 4.437302367631093, "density_atomic": 51.42264771788434, "symmetry": null, "property_name": null, "material_id": "mp-865353", "deprecated": null, "deprecation_reasons": null, "last_updated": null, "origins": null, "warnings": null, "structure": {"@module": "pymatgen.core.structure", "@class": "Structure", "charge": 0, "lattice": {"matrix": [[10.98064731, -4.409e-05, -4e-08], [-5.49036134, 9.50942166, 4e-08], [-1e-08, 1e-08, 3.93970207]], "pbc": [true, true, true], "a": 10.980647310088516, "b": 10.980581403160933, "c": 3.93970207, "alpha": 89.99999959261939, "beta": 90.00000035414783, "gamma": 120.00065566346004, "volume": 411.3811817430747}, "properties": {}, "sites": [{"species": [{"element": "Tm", "occu": 1}], "abc": [0.33332965000000003, 0.66666715, 0.749996999999999], "properties": {"magmom": 0.0}, "label": "Tm", "xyz": [-6.822989220858162e-05, 6.33960434721617, 2.954764746727286]}, {"species": [{"element": "Tm", "occu": 1}], "abc": [0.66667415, 0.33333363, 0.25000185], "properties": {"magmom": -0.0}, "label": "Tm", "xyz": [5.4903916338701535, 3.1697806499651704, 0.9849327926152088]}, {"species": [{"element": "I", "occu": 1}], "abc": [0.21323371, 0.4264709, 0.24999761], "properties": {"magmom": -0.0}, "label": "I", "xyz": [-3.5180382161977254e-05, 4.055482214845396, 0.9849161101415403]}, {"species": [{"element": "I", "occu": 1}], "abc": [0.57352868, 0.78676799, 0.2499976], "properties": {"magmom": -0.0}, "label": "I", "xyz": [1.9780755989043686, 7.481683281121137, 0.9849160707446043]}, {"species": [{"element": "I", "occu": 1}], "abc": [0.21324578, 0.7867548, 0.2499976], "properties": {"magmom": -0.0}, "label": "I", "xyz": [-1.9779914399535559, 7.4815737367225035, 0.9849160851553928]}, {"species": [{"element": "I", "occu": 1}], "abc": [0.78675816, 0.57351939, 0.74999878], "properties": {"magmom": -0.0}, "label": "I", "xyz": [5.490285179128178, 5.4538030290287, 2.9547717375339237]}, {"species": [{"element": "I", "occu": 1}], "abc": [0.42648085, 0.21324225, 0.74999878], "properties": {"magmom": -0.0}, "label": "I", "xyz": [3.5122587853644114, 2.027791674936446, 2.9547717375339304]}, {"species": [{"element": "I", "occu": 1}], "abc": [0.78675203, 0.21324389, 0.74999878], "properties": {"magmom": 0.0}, "label": "I", "xyz": [7.46826054470934, 2.0277913860316423, 2.954771723123149]}]}, "task_ids": null, "uncorrected_energy_per_atom": null, "energy_per_atom": -3.88356815625, "formation_energy_per_atom": -1.6199333250000012, "energy_above_hull": 0.0, "is_stable": true, "equilibrium_reaction_energy_per_atom": null, "decomposes_to": null, "xas": null, "grain_boundaries": null, "band_gap": 2.2545, "cbm": null, "vbm": null, "efermi": -0.67603084, "is_gap_direct": null, "is_metal": null, "es_source_calc_id": null, "bandstructure": null, "dos": null, "dos_energy_up": null, "dos_energy_down": null, "is_magnetic": null, "ordering": null, "total_magnetization": 0.0, "total_magnetization_normalized_vol": null, "total_magnetization_normalized_formula_units": null, "num_magnetic_sites": null, "num_unique_magnetic_sites": null, "types_of_magnetic_species": null, "bulk_modulus": null, "shear_modulus": null, "universal_anisotropy": null, "homogeneous_poisson": null, "e_total": null, "e_ionic": null, "e_electronic": null, "n": null, "e_ij_max": null, "weighted_surface_energy_EV_PER_ANG2": null, "weighted_surface_energy": null, "weighted_work_function": null, "surface_anisotropy": null, "shape_factor": null, "has_reconstructed": null, "possible_species": null, "has_props": null, "theoretical": null, "database_IDs": null, "fields_not_requested": ["builder_meta", "nsites", "elements", "nelements", "composition", "composition_reduced", "chemsys", "symmetry", "property_name", "deprecated", "deprecation_reasons", "last_updated", "origins", "warnings", "task_ids", "uncorrected_energy_per_atom", "equilibrium_reaction_energy_per_atom", "decomposes_to", "xas", "grain_boundaries", "cbm", "vbm", "is_gap_direct", "is_metal", "es_source_calc_id", "bandstructure", "dos", "dos_energy_up", "dos_energy_down", "is_magnetic", "ordering", "total_magnetization_normalized_vol", "total_magnetization_normalized_formula_units", "num_magnetic_sites", "num_unique_magnetic_sites", "types_of_magnetic_species", "bulk_modulus", "shear_modulus", "universal_anisotropy", "homogeneous_poisson", "e_total", "e_ionic", "e_electronic", "n", "e_ij_max", "weighted_surface_energy_EV_PER_ANG2", "weighted_surface_energy", "weighted_work_function", "surface_anisotropy", "shape_factor", "has_reconstructed", "possible_species", "has_props", "theoretical", "database_IDs"]}