{
  "builder_meta": null,
  "nsites": null,
  "elements": null,
  "nelements": null,
  "composition": null,
  "composition_reduced": null,
  "formula_pretty": "TmLu3",
  "formula_anonymous": "AB3",
  "chemsys": null,
  "volume": 235.84050688479533,
  "density": 9.770505391174545,
  "density_atomic": 29.480063360599416,
  "symmetry": null,
  "property_name": null,
  "material_id": "mp-1187686",
  "deprecated": null,
  "deprecation_reasons": null,
  "last_updated": null,
  "origins": null,
  "warnings": null,
  "structure": {
    "@module": "pymatgen.core.structure",
    "@class": "Structure",
    "charge": 0,
    "lattice": {
      "matrix": [
        [7.06539592, 1.6920000000000004e-5, 3.5540000000000015e-5],
        [-3.53268261, 6.11866735, -1.9880000000000003e-5],
        [3.433e-5, -5.95e-6, 5.45537304]
      ],
      "pbc": [true, true, true],
      "a": 7.065395920109646,
      "b": 7.065262667682473,
      "c": 5.455373040111262,
      "alpha": 90.00039561549893,
      "beta": 89.99935123841273,
      "gamma": 120.00034294392593,
      "volume": 235.84050688479533
    },
    "properties": {},
    "sites": [
      {
        "species": [{ "element": "Tm", "occu": 1 }],
        "abc": [0.33334289, 0.66666322, 0.74999832],
        "properties": { "magmom": 0.0 },
        "label": "Tm",
        "xyz": [0.00011567838873045921, 4.0790916553315615, 4.091519208714789]
      },
      {
        "species": [{ "element": "Tm", "occu": 1 }],
        "abc": [0.6666502400000001, 0.33332966, 0.25000376],
        "properties": { "magmom": 0.0 },
        "label": "Tm",
        "xyz": [3.532608575112889, 2.03954309962829, 1.363880838358519]
      },
      {
        "species": [{ "element": "Lu", "occu": 1 }],
        "abc": [0.16646682000000002, 0.33291091, 0.25001025],
        "properties": { "magmom": 0.0 },
        "label": "Lu",
        "xyz": [9.399125898186326e-5, 2.0369724445333954, 1.3638984755355517]
      },
      {
        "species": [{ "element": "Lu", "occu": 1 }],
        "abc": [0.6670693, 0.8335219700000001, 0.25000407],
        "properties": { "magmom": 0.0 },
        "label": "Lu",
        "xyz": [1.7685487247450367, 5.100053462635019, 1.363872600594431]
      },
      {
        "species": [{ "element": "Lu", "occu": 1 }],
        "abc": [0.16645436, 0.833532899999999, 0.24998438],
        "properties": { "magmom": 0.0 },
        "label": "Lu",
        "xyz": [-1.768532642718889, 5.10011186938152, 1.3637473922270176]
      },
      {
        "species": [{ "element": "Lu", "occu": 1 }],
        "abc": [0.8335431, 0.66710249, 0.74999236],
        "properties": { "magmom": 0.0 },
        "label": "Lu",
        "xyz": [3.532676399611172, 4.081787865761411, 4.091504463074247]
      },
      {
        "species": [{ "element": "Lu", "occu": 1 }],
        "abc": [0.33292162000000003, 0.166475899999999, 0.7499944900000001],
        "properties": { "magmom": 0.0 },
        "label": "Lu",
        "xyz": [1.7641422860245368, 1.0186118244584537, 4.0915082433880325]
      },
      {
        "species": [{ "element": "Lu", "occu": 1 }],
        "abc": [0.83355068, 0.16646494, 0.75001237],
        "properties": { "magmom": 0.0 },
        "label": "Lu",
        "xyz": [5.301323522797194, 1.018553234401613, 4.091623578032665]
      }
    ]
  },
  "task_ids": null,
  "uncorrected_energy_per_atom": null,
  "energy_per_atom": -37.33940854375,
  "formation_energy_per_atom": 0.000763666250009,
  "energy_above_hull": 0.000763666250009,
  "is_stable": false,
  "equilibrium_reaction_energy_per_atom": null,
  "decomposes_to": null,
  "xas": null,
  "grain_boundaries": null,
  "band_gap": 0.0,
  "cbm": null,
  "vbm": null,
  "efermi": 2.9176759,
  "is_gap_direct": null,
  "is_metal": null,
  "es_source_calc_id": null,
  "bandstructure": null,
  "dos": null,
  "dos_energy_up": null,
  "dos_energy_down": null,
  "is_magnetic": null,
  "ordering": null,
  "total_magnetization": 0.000488399999999,
  "total_magnetization_normalized_vol": null,
  "total_magnetization_normalized_formula_units": null,
  "num_magnetic_sites": null,
  "num_unique_magnetic_sites": null,
  "types_of_magnetic_species": null,
  "bulk_modulus": null,
  "shear_modulus": null,
  "universal_anisotropy": null,
  "homogeneous_poisson": null,
  "e_total": null,
  "e_ionic": null,
  "e_electronic": null,
  "n": null,
  "e_ij_max": null,
  "weighted_surface_energy_EV_PER_ANG2": null,
  "weighted_surface_energy": null,
  "weighted_work_function": null,
  "surface_anisotropy": null,
  "shape_factor": null,
  "has_reconstructed": null,
  "possible_species": null,
  "has_props": null,
  "theoretical": null,
  "database_IDs": null,
  "fields_not_requested": [
    "builder_meta",
    "nsites",
    "elements",
    "nelements",
    "composition",
    "composition_reduced",
    "chemsys",
    "symmetry",
    "property_name",
    "deprecated",
    "deprecation_reasons",
    "last_updated",
    "origins",
    "warnings",
    "task_ids",
    "uncorrected_energy_per_atom",
    "equilibrium_reaction_energy_per_atom",
    "decomposes_to",
    "xas",
    "grain_boundaries",
    "cbm",
    "vbm",
    "is_gap_direct",
    "is_metal",
    "es_source_calc_id",
    "bandstructure",
    "dos",
    "dos_energy_up",
    "dos_energy_down",
    "is_magnetic",
    "ordering",
    "total_magnetization_normalized_vol",
    "total_magnetization_normalized_formula_units",
    "num_magnetic_sites",
    "num_unique_magnetic_sites",
    "types_of_magnetic_species",
    "bulk_modulus",
    "shear_modulus",
    "universal_anisotropy",
    "homogeneous_poisson",
    "e_total",
    "e_ionic",
    "e_electronic",
    "n",
    "e_ij_max",
    "weighted_surface_energy_EV_PER_ANG2",
    "weighted_surface_energy",
    "weighted_work_function",
    "surface_anisotropy",
    "shape_factor",
    "has_reconstructed",
    "possible_species",
    "has_props",
    "theoretical",
    "database_IDs"
  ]
}
