{
  "builder_meta": null,
  "nsites": null,
  "elements": null,
  "nelements": null,
  "composition": null,
  "composition_reduced": null,
  "formula_pretty": "TmMg2",
  "formula_anonymous": "AB2",
  "chemsys": null,
  "volume": 149.66036475539755,
  "density": 4.8274726579484195,
  "density_atomic": 24.94339412589959,
  "symmetry": null,
  "property_name": null,
  "material_id": "mp-1187676",
  "deprecated": null,
  "deprecation_reasons": null,
  "last_updated": null,
  "origins": null,
  "warnings": null,
  "structure": {
    "@module": "pymatgen.core.structure",
    "@class": "Structure",
    "charge": 0,
    "lattice": {
      "matrix": [
        [-0.0, 4.21397889, 4.21397889],
        [4.21397685, 1.029999999999998e-6, 4.21397685],
        [4.21397889, 4.21397889, -0.0]
      ],
      "pbc": [true, true, true],
      "a": 5.959466097791921,
      "b": 5.959463212796343,
      "c": 5.959466097791921,
      "alpha": 59.99999191449639,
      "beta": 60.00000000000001,
      "gamma": 59.99999191449639,
      "volume": 149.66036475539755
    },
    "properties": {},
    "sites": [
      {
        "species": [{ "element": "Tm", "occu": 1 }],
        "abc": [0.75, 0.75, 0.75],
        "properties": { "magmom": 0.106 },
        "label": "Tm",
        "xyz": [6.320966804999999, 6.3209691075, 6.320966804999999]
      },
      {
        "species": [{ "element": "Tm", "occu": 1 }],
        "abc": [0.5, 0.5, 0.5],
        "properties": { "magmom": 0.106 },
        "label": "Tm",
        "xyz": [4.21397787, 4.213979405, 4.21397787]
      },
      {
        "species": [{ "element": "Mg", "occu": 1 }],
        "abc": [0.125, 0.625, 0.125],
        "properties": { "magmom": 0.004 },
        "label": "Mg",
        "xyz": [3.1604828925, 1.05349536625, 3.1604828925]
      },
      {
        "species": [{ "element": "Mg", "occu": 1 }],
        "abc": [0.125, 0.125, 0.125],
        "properties": { "magmom": 0.004 },
        "label": "Mg",
        "xyz": [1.0534944675, 1.05349485125, 1.0534944675]
      },
      {
        "species": [{ "element": "Mg", "occu": 1 }],
        "abc": [0.625, 0.125, 0.125],
        "properties": { "magmom": 0.004 },
        "label": "Mg",
        "xyz": [1.0534944675, 3.16048429625, 3.1604839125]
      },
      {
        "species": [{ "element": "Mg", "occu": 1 }],
        "abc": [0.125, 0.125, 0.625],
        "properties": { "magmom": 0.004 },
        "label": "Mg",
        "xyz": [3.1604839125, 3.16048429625, 1.0534944675]
      }
    ]
  },
  "task_ids": null,
  "uncorrected_energy_per_atom": null,
  "energy_per_atom": -14.549890793333333,
  "formation_energy_per_atom": -0.063338973333335,
  "energy_above_hull": 0.0,
  "is_stable": true,
  "equilibrium_reaction_energy_per_atom": null,
  "decomposes_to": null,
  "xas": null,
  "grain_boundaries": null,
  "band_gap": 0.0,
  "cbm": null,
  "vbm": null,
  "efermi": 3.20555725,
  "is_gap_direct": null,
  "is_metal": null,
  "es_source_calc_id": null,
  "bandstructure": null,
  "dos": null,
  "dos_energy_up": null,
  "dos_energy_down": null,
  "is_magnetic": null,
  "ordering": null,
  "total_magnetization": 0.4106063,
  "total_magnetization_normalized_vol": null,
  "total_magnetization_normalized_formula_units": null,
  "num_magnetic_sites": null,
  "num_unique_magnetic_sites": null,
  "types_of_magnetic_species": null,
  "bulk_modulus": null,
  "shear_modulus": null,
  "universal_anisotropy": null,
  "homogeneous_poisson": null,
  "e_total": null,
  "e_ionic": null,
  "e_electronic": null,
  "n": null,
  "e_ij_max": null,
  "weighted_surface_energy_EV_PER_ANG2": null,
  "weighted_surface_energy": null,
  "weighted_work_function": null,
  "surface_anisotropy": null,
  "shape_factor": null,
  "has_reconstructed": null,
  "possible_species": null,
  "has_props": null,
  "theoretical": null,
  "database_IDs": null,
  "fields_not_requested": [
    "builder_meta",
    "nsites",
    "elements",
    "nelements",
    "composition",
    "composition_reduced",
    "chemsys",
    "symmetry",
    "property_name",
    "deprecated",
    "deprecation_reasons",
    "last_updated",
    "origins",
    "warnings",
    "task_ids",
    "uncorrected_energy_per_atom",
    "equilibrium_reaction_energy_per_atom",
    "decomposes_to",
    "xas",
    "grain_boundaries",
    "cbm",
    "vbm",
    "is_gap_direct",
    "is_metal",
    "es_source_calc_id",
    "bandstructure",
    "dos",
    "dos_energy_up",
    "dos_energy_down",
    "is_magnetic",
    "ordering",
    "total_magnetization_normalized_vol",
    "total_magnetization_normalized_formula_units",
    "num_magnetic_sites",
    "num_unique_magnetic_sites",
    "types_of_magnetic_species",
    "bulk_modulus",
    "shear_modulus",
    "universal_anisotropy",
    "homogeneous_poisson",
    "e_total",
    "e_ionic",
    "e_electronic",
    "n",
    "e_ij_max",
    "weighted_surface_energy_EV_PER_ANG2",
    "weighted_surface_energy",
    "weighted_work_function",
    "surface_anisotropy",
    "shape_factor",
    "has_reconstructed",
    "possible_species",
    "has_props",
    "theoretical",
    "database_IDs"
  ]
}
