{
  "builder_meta": null,
  "nsites": null,
  "elements": null,
  "nelements": null,
  "composition": null,
  "composition_reduced": null,
  "formula_pretty": "TmMg5",
  "formula_anonymous": "AB5",
  "chemsys": null,
  "volume": 146.89903900566696,
  "density": 3.283335743538572,
  "density_atomic": 24.48317316761116,
  "symmetry": null,
  "property_name": null,
  "material_id": "mp-978991",
  "deprecated": null,
  "deprecation_reasons": null,
  "last_updated": null,
  "origins": null,
  "warnings": null,
  "structure": {
    "@module": "pymatgen.core.structure",
    "@class": "Structure",
    "charge": 0,
    "lattice": {
      "matrix": [
        [1.696521, 6.09973, 0.0],
        [-1.696521, 6.09973, 0.0],
        [0.0, 2.076682, 7.097724]
      ],
      "pbc": [true, true, true],
      "a": 6.331262873735461,
      "b": 6.331262873735461,
      "c": 7.395288642730587,
      "alpha": 74.30346218480243,
      "beta": 74.30346218480243,
      "gamma": 31.08574301438501,
      "volume": 146.89903900566696
    },
    "properties": {},
    "sites": [
      {
        "species": [{ "element": "Tm", "occu": 1 }],
        "abc": [0.621022, 0.621022, 0.257666],
        "properties": { "magmom": 0.006 },
        "label": "Tm",
        "xyz": [0.0, 8.111223392332, 1.8288421521840001]
      },
      {
        "species": [{ "element": "Mg", "occu": 1 }],
        "abc": [0.986097, 0.986097, 0.009727],
        "properties": { "magmom": -0.0 },
        "label": "Mg",
        "xyz": [0.0, 12.050050793434, 0.069039561348]
      },
      {
        "species": [{ "element": "Mg", "occu": 1 }],
        "abc": [0.288655999999999, 0.288655999999999, 0.9244429999999991],
        "properties": { "magmom": -0.0 },
        "label": "Mg",
        "xyz": [0.0, 5.441221463885986, 6.561441267731994]
      },
      {
        "species": [{ "element": "Mg", "occu": 1 }],
        "abc": [0.658056, 0.658056, 0.6857700000000001],
        "properties": { "magmom": -0.0 },
        "label": "Mg",
        "xyz": [0.0, 9.4520540649, 4.867406187480001]
      },
      {
        "species": [{ "element": "Mg", "occu": 1 }],
        "abc": [0.947278, 0.947278, 0.604565999999999],
        "properties": { "magmom": -0.0 },
        "label": "Mg",
        "xyz": [0.0, 12.811771399891997, 4.291042607783994]
      },
      {
        "species": [{ "element": "Mg", "occu": 1 }],
        "abc": [0.332225, 0.332225, 0.351161],
        "properties": { "magmom": 0.0 },
        "label": "Mg",
        "xyz": [0.0, 4.782215326302, 2.492443857564]
      }
    ]
  },
  "task_ids": null,
  "uncorrected_energy_per_atom": null,
  "energy_per_atom": -9.327734420166667,
  "formation_energy_per_atom": 0.00019328233333200002,
  "energy_above_hull": 0.032262601666666,
  "is_stable": false,
  "equilibrium_reaction_energy_per_atom": null,
  "decomposes_to": null,
  "xas": null,
  "grain_boundaries": null,
  "band_gap": 0.0,
  "cbm": null,
  "vbm": null,
  "efermi": 3.18913512,
  "is_gap_direct": null,
  "is_metal": null,
  "es_source_calc_id": null,
  "bandstructure": null,
  "dos": null,
  "dos_energy_up": null,
  "dos_energy_down": null,
  "is_magnetic": null,
  "ordering": null,
  "total_magnetization": 0.0083052,
  "total_magnetization_normalized_vol": null,
  "total_magnetization_normalized_formula_units": null,
  "num_magnetic_sites": null,
  "num_unique_magnetic_sites": null,
  "types_of_magnetic_species": null,
  "bulk_modulus": null,
  "shear_modulus": null,
  "universal_anisotropy": null,
  "homogeneous_poisson": null,
  "e_total": null,
  "e_ionic": null,
  "e_electronic": null,
  "n": null,
  "e_ij_max": null,
  "weighted_surface_energy_EV_PER_ANG2": null,
  "weighted_surface_energy": null,
  "weighted_work_function": null,
  "surface_anisotropy": null,
  "shape_factor": null,
  "has_reconstructed": null,
  "possible_species": null,
  "has_props": null,
  "theoretical": null,
  "database_IDs": null,
  "fields_not_requested": [
    "builder_meta",
    "nsites",
    "elements",
    "nelements",
    "composition",
    "composition_reduced",
    "chemsys",
    "symmetry",
    "property_name",
    "deprecated",
    "deprecation_reasons",
    "last_updated",
    "origins",
    "warnings",
    "task_ids",
    "uncorrected_energy_per_atom",
    "equilibrium_reaction_energy_per_atom",
    "decomposes_to",
    "xas",
    "grain_boundaries",
    "cbm",
    "vbm",
    "is_gap_direct",
    "is_metal",
    "es_source_calc_id",
    "bandstructure",
    "dos",
    "dos_energy_up",
    "dos_energy_down",
    "is_magnetic",
    "ordering",
    "total_magnetization_normalized_vol",
    "total_magnetization_normalized_formula_units",
    "num_magnetic_sites",
    "num_unique_magnetic_sites",
    "types_of_magnetic_species",
    "bulk_modulus",
    "shear_modulus",
    "universal_anisotropy",
    "homogeneous_poisson",
    "e_total",
    "e_ionic",
    "e_electronic",
    "n",
    "e_ij_max",
    "weighted_surface_energy_EV_PER_ANG2",
    "weighted_surface_energy",
    "weighted_work_function",
    "surface_anisotropy",
    "shape_factor",
    "has_reconstructed",
    "possible_species",
    "has_props",
    "theoretical",
    "database_IDs"
  ]
}
