{
  "builder_meta": null,
  "nsites": null,
  "elements": null,
  "nelements": null,
  "composition": null,
  "composition_reduced": null,
  "formula_pretty": "TmMn2",
  "formula_anonymous": "AB2",
  "chemsys": null,
  "volume": 237.61468269560214,
  "density": 7.7937169550008605,
  "density_atomic": 19.801223557966846,
  "symmetry": null,
  "property_name": null,
  "material_id": "mp-30786",
  "deprecated": null,
  "deprecation_reasons": null,
  "last_updated": null,
  "origins": null,
  "warnings": null,
  "structure": {
    "@module": "pymatgen.core.structure",
    "@class": "Structure",
    "charge": 0,
    "lattice": {
      "matrix": [
        [5.60805222, 6.493e-5, 2.299999999999999e-7],
        [-2.80396938, 4.85674167, 2e-8],
        [-2.9e-7, 4e-7, 8.723953]
      ],
      "pbc": [true, true, true],
      "a": 5.6080522203758845,
      "b": 5.608046356182514,
      "c": 8.723953000000014,
      "alpha": 89.99999656826468,
      "beta": 89.99999955474439,
      "gamma": 119.99870196280527,
      "volume": 237.61468269560214
    },
    "properties": {},
    "sites": [
      {
        "species": [{ "element": "Tm", "occu": 1 }],
        "abc": [0.333334099999999, 0.66667094, 0.05940088],
        "properties": { "magmom": -0.912 },
        "label": "Tm",
        "xyz": [3.0119984624321703e-5, 3.237870201619535, 0.5182105752789018]
      },
      {
        "species": [{ "element": "Tm", "occu": 1 }],
        "abc": [0.66666587, 0.33333113000000003, 0.55942636],
        "properties": { "magmom": -0.912 },
        "label": "Tm",
        "xyz": [2.8040465680972875, 1.6189466993646704, 4.880409431600852]
      },
      {
        "species": [{ "element": "Tm", "occu": 1 }],
        "abc": [0.66666603, 0.33333075, 0.94054408],
        "properties": { "magmom": -0.911 },
        "label": "Tm",
        "xyz": [2.804048420369869, 1.6189450062603123, 8.205262508348042]
      },
      {
        "species": [{ "element": "Tm", "occu": 1 }],
        "abc": [0.3333345, 0.66667071, 0.44062752],
        "properties": { "magmom": -0.912 },
        "label": "Tm",
        "xyz": [3.2897562749464195e-5, 3.2378692370855786, 3.844013864986909]
      },
      {
        "species": [{ "element": "Mn", "occu": 1 }],
        "abc": [-2e-7, -1.83e-6, -6.312e-5],
        "properties": { "magmom": 3.8280000000000003 },
        "label": "Mn",
        "xyz": [
          4.0096718262000006e-6, -8.887875490099999e-6, -0.0005506559134426001
        ]
      },
      {
        "species": [{ "element": "Mn", "occu": 1 }],
        "abc": [-3.0000000000000004e-8, -1.36e-6, 0.50006431],
        "properties": { "magmom": 3.827 },
        "label": "Mn",
        "xyz": [3.500138140299999e-6, -6.405144895099999e-6, 4.362537537417396]
      },
      {
        "species": [{ "element": "Mn", "occu": 1 }],
        "abc": [0.82737004, 0.6547544200000001, 0.25005212],
        "properties": { "magmom": 3.6630000000000003 },
        "label": "Mn",
        "xyz": [2.804022971968715, 3.180026896388227, 2.1814431458205576]
      },
      {
        "species": [{ "element": "Mn", "occu": 1 }],
        "abc": [0.17262657, 0.82737309, 0.74994807],
        "properties": { "magmom": 3.662 },
        "label": "Mn",
        "xyz": [-1.3518302085614389, 4.018348871462079, 6.542511771372283]
      },
      {
        "species": [{ "element": "Mn", "occu": 1 }],
        "abc": [0.65473329, 0.82735852, 0.74994833],
        "properties": { "magmom": 3.662 },
        "label": "Mn",
        "xyz": [1.351890306645271, 4.01830941192538, 6.542514150484317]
      },
      {
        "species": [{ "element": "Mn", "occu": 1 }],
        "abc": [0.34524449, 0.17262993000000001, 0.25005149],
        "properties": { "magmom": 3.6630000000000003 },
        "label": "Mn",
        "xyz": [1.4521000182807926, 0.8384414912655148, 2.181437529198801]
      },
      {
        "species": [{ "element": "Mn", "occu": 1 }],
        "abc": [0.82738572, 0.17261774, 0.25005208],
        "properties": { "magmom": 3.6630000000000003 },
        "label": "Mn",
        "xyz": [4.156007393922394, 0.8384135930148573, 2.18144278722331]
      },
      {
        "species": [{ "element": "Mn", "occu": 1 }],
        "abc": [0.17263962, 0.34526597000000003, 0.74994788],
        "properties": { "magmom": 3.662 },
        "label": "Mn",
        "xyz": [5.6578880072500796e-5, 1.6768791332016486, 6.542510104182072]
      }
    ]
  },
  "task_ids": null,
  "uncorrected_energy_per_atom": null,
  "energy_per_atom": -7.585218219166667,
  "formation_energy_per_atom": 0.016959135545973,
  "energy_above_hull": 0.033991375615940005,
  "is_stable": false,
  "equilibrium_reaction_energy_per_atom": null,
  "decomposes_to": null,
  "xas": null,
  "grain_boundaries": null,
  "band_gap": 0.0,
  "cbm": null,
  "vbm": null,
  "efermi": 4.57399585,
  "is_gap_direct": null,
  "is_metal": null,
  "es_source_calc_id": null,
  "bandstructure": null,
  "dos": null,
  "dos_energy_up": null,
  "dos_energy_down": null,
  "is_magnetic": null,
  "ordering": null,
  "total_magnetization": 26.1301017,
  "total_magnetization_normalized_vol": null,
  "total_magnetization_normalized_formula_units": null,
  "num_magnetic_sites": null,
  "num_unique_magnetic_sites": null,
  "types_of_magnetic_species": null,
  "bulk_modulus": null,
  "shear_modulus": null,
  "universal_anisotropy": null,
  "homogeneous_poisson": null,
  "e_total": null,
  "e_ionic": null,
  "e_electronic": null,
  "n": null,
  "e_ij_max": null,
  "weighted_surface_energy_EV_PER_ANG2": null,
  "weighted_surface_energy": null,
  "weighted_work_function": null,
  "surface_anisotropy": null,
  "shape_factor": null,
  "has_reconstructed": null,
  "possible_species": null,
  "has_props": null,
  "theoretical": null,
  "database_IDs": null,
  "fields_not_requested": [
    "builder_meta",
    "nsites",
    "elements",
    "nelements",
    "composition",
    "composition_reduced",
    "chemsys",
    "symmetry",
    "property_name",
    "deprecated",
    "deprecation_reasons",
    "last_updated",
    "origins",
    "warnings",
    "task_ids",
    "uncorrected_energy_per_atom",
    "equilibrium_reaction_energy_per_atom",
    "decomposes_to",
    "xas",
    "grain_boundaries",
    "cbm",
    "vbm",
    "is_gap_direct",
    "is_metal",
    "es_source_calc_id",
    "bandstructure",
    "dos",
    "dos_energy_up",
    "dos_energy_down",
    "is_magnetic",
    "ordering",
    "total_magnetization_normalized_vol",
    "total_magnetization_normalized_formula_units",
    "num_magnetic_sites",
    "num_unique_magnetic_sites",
    "types_of_magnetic_species",
    "bulk_modulus",
    "shear_modulus",
    "universal_anisotropy",
    "homogeneous_poisson",
    "e_total",
    "e_ionic",
    "e_electronic",
    "n",
    "e_ij_max",
    "weighted_surface_energy_EV_PER_ANG2",
    "weighted_surface_energy",
    "weighted_work_function",
    "surface_anisotropy",
    "shape_factor",
    "has_reconstructed",
    "possible_species",
    "has_props",
    "theoretical",
    "database_IDs"
  ]
}
