{
  "builder_meta": null,
  "nsites": null,
  "elements": null,
  "nelements": null,
  "composition": null,
  "composition_reduced": null,
  "formula_pretty": "TmNi3",
  "formula_anonymous": "AB3",
  "chemsys": null,
  "volume": 164.10063108096008,
  "density": 10.473632597956938,
  "density_atomic": 13.675052590080007,
  "symmetry": null,
  "property_name": null,
  "material_id": "mp-1102684",
  "deprecated": null,
  "deprecation_reasons": null,
  "last_updated": null,
  "origins": null,
  "warnings": null,
  "structure": {
    "@module": "pymatgen.core.structure",
    "@class": "Structure",
    "charge": 0.0,
    "lattice": {
      "matrix": [
        [-2.44060802, -4.22429853, -0.0009724800000000001],
        [2.44060802, -4.22429853, -0.0009724800000000001],
        [0.0, -2.81436557, 7.95778611]
      ],
      "pbc": [true, true, true],
      "a": 4.878654171343347,
      "b": 4.878654171343347,
      "c": 8.440794591394246,
      "alpha": 73.23090567488563,
      "beta": 73.23090567488563,
      "gamma": 60.03474456256027,
      "volume": 164.10063108096008
    },
    "properties": {},
    "sites": [
      {
        "species": [{ "element": "Tm", "occu": 1 }],
        "abc": [0.13900646, 0.13900646, 0.58317895],
        "properties": { "magmom": -0.11900000000000001 },
        "label": "Tm",
        "xyz": [0.0, -2.815688327305759, 4.640542985949942]
      },
      {
        "species": [{ "element": "Tm", "occu": 1 }],
        "abc": [0.86103324, 0.86103324, 0.41670032],
        "properties": { "magmom": -0.11900000000000001 },
        "label": "Tm",
        "xyz": [0.0, -8.447269933642257, 3.3143373433180847]
      },
      {
        "species": [{ "element": "Tm", "occu": 1 }],
        "abc": [-7.41e-6, -7.41e-6, 2.0960000000000003e-5],
        "properties": { "magmom": -0.114 },
        "label": "Tm",
        "xyz": [0.0, 3.615001867399991e-6, 0.0001668096090192]
      },
      {
        "species": [{ "element": "Ni", "occu": 1 }],
        "abc": [0.080227399999999, 0.5831740400000001, 0.75391031],
        "properties": { "magmom": 0.317 },
        "label": "Ni",
        "xyz": [1.2274956032160553, -4.924184947123907, 5.998811848471422]
      },
      {
        "species": [{ "element": "Ni", "occu": 1 }],
        "abc": [0.58309725, 0.58309725, 0.75389987],
        "properties": { "magmom": 0.317 },
        "label": "Ni",
        "xyz": [0.0, -7.048103549399562, 5.998239812989445]
      },
      {
        "species": [{ "element": "Ni", "occu": 1 }],
        "abc": [0.5831740400000001, 0.080227399999999, 0.75391031],
        "properties": { "magmom": 0.317 },
        "label": "Ni",
        "xyz": [-1.2274956032160553, -4.924184947123907, 5.998811848471422]
      },
      {
        "species": [{ "element": "Ni", "occu": 1 }],
        "abc": [0.91978496, 0.41680925, 0.24610848000000002],
        "properties": { "magmom": 0.317 },
        "label": "Ni",
        "xyz": [-1.227566551691194, -6.338812189106545, 1.957178832559872]
      },
      {
        "species": [{ "element": "Ni", "occu": 1 }],
        "abc": [0.41688644, 0.41688644, 0.24611822],
        "properties": { "magmom": 0.317 },
        "label": "Ni",
        "xyz": [0.0, -4.214772195855552, 1.9577453250835817]
      },
      {
        "species": [{ "element": "Ni", "occu": 1 }],
        "abc": [0.41680925, 0.91978496, 0.24610848000000002],
        "properties": { "magmom": 0.317 },
        "label": "Ni",
        "xyz": [1.227566551691194, -6.338812189106545, 1.957178832559872]
      },
      {
        "species": [{ "element": "Ni", "occu": 1 }],
        "abc": [0.33340749000000003, 0.33340749000000003, -0.00014457],
        "properties": { "magmom": 0.4 },
        "label": "Ni",
        "xyz": [0.0, -2.816418666965525, -0.0017989213696731]
      },
      {
        "species": [{ "element": "Ni", "occu": 1 }],
        "abc": [0.66654525, 0.66654525, 0.00029478],
        "properties": { "magmom": 0.4 },
        "label": "Ni",
        "xyz": [0.0, -5.63220185818969, 0.0010493923400658]
      },
      {
        "species": [{ "element": "Ni", "occu": 1 }],
        "abc": [0.5000356300000001, 0.5000356300000001, 0.4998939],
        "properties": { "magmom": 0.151 },
        "label": "Ni",
        "xyz": [0.0, -5.631483734326272, 3.9770761845948037]
      }
    ]
  },
  "task_ids": null,
  "uncorrected_energy_per_atom": null,
  "energy_per_atom": -5.901833000833323,
  "formation_energy_per_atom": -0.44610512083332404,
  "energy_above_hull": 0.0,
  "is_stable": true,
  "equilibrium_reaction_energy_per_atom": null,
  "decomposes_to": null,
  "xas": null,
  "grain_boundaries": null,
  "band_gap": 0.0,
  "cbm": null,
  "vbm": null,
  "efermi": 6.07197,
  "is_gap_direct": null,
  "is_metal": null,
  "es_source_calc_id": null,
  "bandstructure": null,
  "dos": null,
  "dos_energy_up": null,
  "dos_energy_down": null,
  "is_magnetic": null,
  "ordering": null,
  "total_magnetization": 2.2676002,
  "total_magnetization_normalized_vol": null,
  "total_magnetization_normalized_formula_units": null,
  "num_magnetic_sites": null,
  "num_unique_magnetic_sites": null,
  "types_of_magnetic_species": null,
  "bulk_modulus": null,
  "shear_modulus": null,
  "universal_anisotropy": null,
  "homogeneous_poisson": null,
  "e_total": null,
  "e_ionic": null,
  "e_electronic": null,
  "n": null,
  "e_ij_max": null,
  "weighted_surface_energy_EV_PER_ANG2": null,
  "weighted_surface_energy": null,
  "weighted_work_function": null,
  "surface_anisotropy": null,
  "shape_factor": null,
  "has_reconstructed": null,
  "possible_species": null,
  "has_props": null,
  "theoretical": null,
  "database_IDs": null,
  "fields_not_requested": [
    "builder_meta",
    "nsites",
    "elements",
    "nelements",
    "composition",
    "composition_reduced",
    "chemsys",
    "symmetry",
    "property_name",
    "deprecated",
    "deprecation_reasons",
    "last_updated",
    "origins",
    "warnings",
    "task_ids",
    "uncorrected_energy_per_atom",
    "equilibrium_reaction_energy_per_atom",
    "decomposes_to",
    "xas",
    "grain_boundaries",
    "cbm",
    "vbm",
    "is_gap_direct",
    "is_metal",
    "es_source_calc_id",
    "bandstructure",
    "dos",
    "dos_energy_up",
    "dos_energy_down",
    "is_magnetic",
    "ordering",
    "total_magnetization_normalized_vol",
    "total_magnetization_normalized_formula_units",
    "num_magnetic_sites",
    "num_unique_magnetic_sites",
    "types_of_magnetic_species",
    "bulk_modulus",
    "shear_modulus",
    "universal_anisotropy",
    "homogeneous_poisson",
    "e_total",
    "e_ionic",
    "e_electronic",
    "n",
    "e_ij_max",
    "weighted_surface_energy_EV_PER_ANG2",
    "weighted_surface_energy",
    "weighted_work_function",
    "surface_anisotropy",
    "shape_factor",
    "has_reconstructed",
    "possible_species",
    "has_props",
    "theoretical",
    "database_IDs"
  ]
}
