{"builder_meta": null, "nsites": null, "elements": null, "nelements": null, "composition": null, "composition_reduced": null, "formula_pretty": "TmNi2", "formula_anonymous": "AB2", "chemsys": null, "volume": 694.1435760989568, "density": 10.959052024720364, "density_atomic": 14.4613245020616, "symmetry": null, "property_name": null, "material_id": "mp-1576", "deprecated": null, "deprecation_reasons": null, "last_updated": null, "origins": null, "warnings": null, "structure": {"@module": "pymatgen.core.structure", "@class": "Structure", "charge": 0, "lattice": {"matrix": [[8.60697079, -9.501e-05, 4.96908213], [2.86890086, 8.11476288, 4.96908214], [-0.00013563, -9.502000000000001e-05, 9.93839684]], "pbc": [true, true, true], "a": 9.938396420128624, "b": 9.938397559828326, "c": 9.938396841379713, "alpha": 60.00155356885585, "beta": 60.001554651863145, "gamma": 60.001550748093244, "volume": 694.1435760989568}, "properties": {}, "sites": [{"species": [{"element": "Tm", "occu": 1}], "abc": [2.99e-06, 2.99e-06, 3.99e-06], "properties": {"magmom": 0.0}, "label": "Tm", "xyz": [3.43123150698e-05, 2.42624778015e-05, 6.936931455890001e-05]}, {"species": [{"element": "Tm", "occu": 1}], "abc": [0.49999526, 0.49999626, 0.49999526], "properties": {"magmom": 0.0}, "label": "Tm", "xyz": [5.737816483912125, 4.057256076687572, 9.938191309182479]}, {"species": [{"element": "Tm", "occu": 1}], "abc": [0.62502111, 0.62502111, 0.62502111], "properties": {"magmom": 0.0}, "label": "Tm", "xyz": [7.172577265287383, 5.071779329882864, 12.423270287955033]}, {"species": [{"element": "Tm", "occu": 1}], "abc": [0.62501289, 0.62501389, 0.12494367], "properties": {"magmom": 0.0}, "label": "Tm", "xyz": [7.172553628026466, 5.071768259434201, 7.453225515875584]}, {"species": [{"element": "Tm", "occu": 1}], "abc": [0.12494267, 0.62501389, 0.62501189], "properties": {"magmom": 0.0}, "label": "Tm", "xyz": [2.868396027284914, 5.071768254623539, 9.938211939360839]}, {"species": [{"element": "Tm", "occu": 1}], "abc": [0.62501389, 0.12494367, 0.62501289], "properties": {"magmom": 0.0}, "label": "Tm", "xyz": [5.737842526390558, 1.0137694841124731, 9.938226841839107]}, {"species": [{"element": "Tm", "occu": 1}], "abc": [0.12499407, 0.12499307, 0.12499507], "properties": {"magmom": 0.0}, "label": "Tm", "xyz": [1.4343960823489115, 1.0142653719750996, 2.484457240057318]}, {"species": [{"element": "Tm", "occu": 1}], "abc": [0.12500007, 0.12500007, 0.62501282], "properties": {"magmom": 0.0}, "label": "Tm", "xyz": [1.434399989072239, 1.0142746630585944, 7.453896664668987]}, {"species": [{"element": "Tm", "occu": 1}], "abc": [0.62501382, 0.12500007, 0.12500007], "properties": {"magmom": 0.0}, "label": "Tm", "xyz": [5.738071546649884, 1.014274667963712, 4.969180919988565]}, {"species": [{"element": "Tm", "occu": 1}], "abc": [0.12500007, 0.62501282, 0.12500007], "properties": {"magmom": 0.0}, "label": "Tm", "xyz": [2.8689548142874868, 5.07180707749682, 4.969175955906563]}, {"species": [{"element": "Tm", "occu": 1}], "abc": [0.500024999999999, 0.99996909, 0.99997009], "properties": {"magmom": 0.0}, "label": "Tm", "xyz": [7.172377125600853, 8.11436952814618, 17.391693420274812]}, {"species": [{"element": "Tm", "occu": 1}], "abc": [0.99997009, 0.99997009, 0.500024], "properties": {"magmom": 0.0}, "label": "Tm", "xyz": [11.475460588423829, 8.11437764800353, 14.907303961030845]}, {"species": [{"element": "Tm", "occu": 1}], "abc": [0.50003165, 0.50003165, 0.99997639], "properties": {"magmom": 0.0}, "label": "Tm", "xyz": [5.738163409539948, 4.057495746481509, 14.907558872349753]}, {"species": [{"element": "Tm", "occu": 1}], "abc": [0.99997639, 0.50003265, 0.50003165], "properties": {"magmom": 0.0}, "label": "Tm", "xyz": [10.041243859740037, 4.057503866243835, 12.423181090762768]}, {"species": [{"element": "Tm", "occu": 1}], "abc": [0.99996909, 0.500024999999999, 0.99997009], "properties": {"magmom": 0.0}, "label": "Tm", "xyz": [10.041091275111071, 4.0573942848508, 17.391693415275373]}, {"species": [{"element": "Tm", "occu": 1}], "abc": [0.50003265, 0.99997639, 0.50003165], "properties": {"magmom": 0.0}, "label": "Tm", "xyz": [7.1725317185543, 8.114476269338946, 12.423181095762207]}, {"species": [{"element": "Ni", "occu": 1}], "abc": [0.31254389, 0.31254389, 0.31254389], "properties": {"magmom": -0.0}, "label": "Ni", "xyz": [3.5866711763039176, 2.536160164227387, 6.212297729142118]}, {"species": [{"element": "Ni", "occu": 1}], "abc": [0.31251843, 0.31251743, 0.06243369], "properties": {"magmom": -0.0}, "label": "Ni", "xyz": [3.586410054157275, 2.53596921549174, 3.726345313065896]}, {"species": [{"element": "Ni", "occu": 1}], "abc": [0.06243169, 0.31251743, 0.31251743], "properties": {"magmom": -0.0}, "label": "Ni", "xyz": [1.433886869153294, 2.535969213275933, 4.969075213733321]}, {"species": [{"element": "Ni", "occu": 1}], "abc": [0.31251843, 0.06243369, 0.31251743], "properties": {"magmom": -0.0}, "label": "Ni", "xyz": [2.868910678541602, 0.5065752022911943, 4.969090118478874]}, {"species": [{"element": "Ni", "occu": 1}], "abc": [0.8124736, 0.812474599999999, 0.812474599999999], "properties": {"magmom": -0.0}, "label": "Ni", "xyz": [9.3237354255843, 6.592884330569613, 16.14919606814066]}, {"species": [{"element": "Ni", "occu": 1}], "abc": [0.81249127, 0.81249127, 0.5625135], "properties": {"magmom": 0.0}, "label": "Ni", "xyz": [9.32396923755949, 6.593043353291725, 13.665154100058263]}, {"species": [{"element": "Ni", "occu": 1}], "abc": [0.5625145, 0.81249127, 0.81249127], "properties": {"magmom": 0.0}, "label": "Ni", "xyz": [7.172392575505997, 6.593043350696938, 14.907377278774389]}, {"species": [{"element": "Ni", "occu": 1}], "abc": [0.8124902700000001, 0.5625145, 0.8124902700000001], "properties": {"magmom": 0.0}, "label": "Ni", "xyz": [8.606768155806364, 4.564517386535753, 14.907362368795653]}, {"species": [{"element": "Ni", "occu": 1}], "abc": [0.81254145, 0.81254145, 0.31254976], "properties": {"magmom": 0.0}, "label": "Ni", "xyz": [9.324578999380945, 6.593474298880017, 11.18141395341075]}, {"species": [{"element": "Ni", "occu": 1}], "abc": [0.81251511, 0.31253072, 0.06243278], "properties": {"magmom": -0.0}, "label": "Ni", "xyz": [7.889905001830105, 2.5360295560923167, 6.21092687587374]}, {"species": [{"element": "Ni", "occu": 1}], "abc": [0.062433090000000004, 0.81252225, 0.81252225], "properties": {"magmom": 0.0}, "label": "Ni", "xyz": [2.8682953613608086, 6.593342255842004, 12.422893514496987]}, {"species": [{"element": "Ni", "occu": 1}], "abc": [0.81252025, 0.062434090000000005, 0.81252225], "properties": {"magmom": 0.0}, "label": "Ni", "xyz": [7.172345070135047, 0.5064834325654317, 12.422888537913977]}, {"species": [{"element": "Ni", "occu": 1}], "abc": [0.31252972, 0.81251311, 0.06243378], "properties": {"magmom": -0.0}, "label": "Ni", "xyz": [5.020945263193573, 6.593315598634884, 6.2109219120240144]}, {"species": [{"element": "Ni", "occu": 1}], "abc": [0.31253072, 0.06243278, 0.8125141100000001], "properties": {"magmom": -0.0}, "label": "Ni", "xyz": [2.8689460329631205, 0.5065203070047671, 9.938312091155995]}, {"species": [{"element": "Ni", "occu": 1}], "abc": [0.06243278, 0.31253172, 0.81251511], "properties": {"magmom": -0.0}, "label": "Ni", "xyz": [1.4338694326594061, 2.536037663354374, 9.938327001135955]}, {"species": [{"element": "Ni", "occu": 1}], "abc": [0.31254876, 0.81254045, 0.81254145], "properties": {"magmom": 0.0}, "label": "Ni", "xyz": [5.021085838563644, 6.593466179212229, 13.666020075241239]}, {"species": [{"element": "Ni", "occu": 1}], "abc": [0.81254145, 0.31254976, 0.81254145], "properties": {"magmom": 0.0}, "label": "Ni", "xyz": [7.890084596074176, 2.5361127833491657, 13.666030008405592]}, {"species": [{"element": "Ni", "occu": 1}], "abc": [0.06243278, 0.81251511, 0.31253072], "properties": {"magmom": -0.0}, "label": "Ni", "xyz": [2.868340023098937, 6.593331825659675, 7.453742253056282]}, {"species": [{"element": "Ni", "occu": 1}], "abc": [0.81251611, 0.06243178, 0.31253072], "properties": {"magmom": -0.0}, "label": "Ni", "xyz": [7.172370623966205, 0.5065121970517009, 7.453742245555448]}, {"species": [{"element": "Ni", "occu": 1}], "abc": [0.81252125, 0.81252225, 0.062434090000000005], "properties": {"magmom": 0.0}, "label": "Ni", "xyz": [9.324383978862794, 6.593342263342886, 8.695469387212155]}, {"species": [{"element": "Ni", "occu": 1}], "abc": [0.31247739, 0.31247639, 0.81247543], "properties": {"magmom": -0.0}, "label": "Ni", "xyz": [3.585837356223563, 2.5355649205562205, 11.180149909488357]}, {"species": [{"element": "Ni", "occu": 1}], "abc": [0.31249281, 0.8124992600000001, 0.56251279], "properties": {"magmom": -0.0}, "label": "Ni", "xyz": [5.020520019908676, 6.593155695168285, 11.180653334149286]}, {"species": [{"element": "Ni", "occu": 1}], "abc": [0.56251298, 0.3124994, 0.3124994], "properties": {"magmom": -0.0}, "label": "Ni", "xyz": [5.738020200971716, 2.5357753930910545, 7.453751433573659]}, {"species": [{"element": "Ni", "occu": 1}], "abc": [0.3124994, 0.56251398, 0.3124994], "properties": {"magmom": -0.0}, "label": "Ni", "xyz": [4.303427664382927, 4.56460818012408, 7.453756405155936]}, {"species": [{"element": "Ni", "occu": 1}], "abc": [0.81249826, 0.31249281, 0.56251379], "properties": {"magmom": -0.0}, "label": "Ni", "xyz": [7.889583388353305, 2.5356744093348844, 11.180658298463932]}, {"species": [{"element": "Ni", "occu": 1}], "abc": [0.81249826, 0.56251279, 0.31249281], "properties": {"magmom": -0.0}, "label": "Ni", "xyz": [8.606899834338003, 4.564551019290747, 9.938220398159384]}, {"species": [{"element": "Ni", "occu": 1}], "abc": [0.56251279, 0.8124992600000001, 0.31249281], "properties": {"magmom": -0.0}, "label": "Ni", "xyz": [7.172468594894949, 6.593155697668485, 9.93822536974138]}, {"species": [{"element": "Ni", "occu": 1}], "abc": [0.81247543, 0.31247539, 0.31247639], "properties": {"magmom": -0.0}, "label": "Ni", "xyz": [7.889370827529749, 2.535556810888341, 8.695487386866208]}, {"species": [{"element": "Ni", "occu": 1}], "abc": [0.31247639, 0.81247543, 0.31247639], "properties": {"magmom": -0.0}, "label": "Ni", "xyz": [5.020344239977742, 6.5929860803876466, 8.695492360948338]}, {"species": [{"element": "Ni", "occu": 1}], "abc": [0.56251379, 0.31249281, 0.8124992600000001], "properties": {"magmom": -0.0}, "label": "Ni", "xyz": [5.737940451580378, 2.5356744067400196, 12.422919740903325]}, {"species": [{"element": "Ni", "occu": 1}], "abc": [0.31249381, 0.56251279, 0.8124992600000001], "properties": {"magmom": -0.0}, "label": "Ni", "xyz": [4.303308322443176, 4.564551014100663, 12.422919743403526]}, {"species": [{"element": "Ni", "occu": 1}], "abc": [0.3124994, 0.3124994, 0.56251298], "properties": {"magmom": -0.0}, "label": "Ni", "xyz": [3.5861267114665325, 2.5357753905909184, 8.696147594367421]}]}, "task_ids": null, "uncorrected_energy_per_atom": null, "energy_per_atom": -5.842789608333334, "formation_energy_per_atom": -0.49519799500000206, "energy_above_hull": 0.0, "is_stable": true, "equilibrium_reaction_energy_per_atom": null, "decomposes_to": null, "xas": null, "grain_boundaries": null, "band_gap": 0.0, "cbm": null, "vbm": null, "efermi": 5.92765295, "is_gap_direct": null, "is_metal": null, "es_source_calc_id": null, "bandstructure": null, "dos": null, "dos_energy_up": null, "dos_energy_down": null, "is_magnetic": null, "ordering": null, "total_magnetization": 2.2000000000000003e-05, "total_magnetization_normalized_vol": null, "total_magnetization_normalized_formula_units": null, "num_magnetic_sites": null, "num_unique_magnetic_sites": null, "types_of_magnetic_species": null, "bulk_modulus": null, "shear_modulus": null, "universal_anisotropy": null, "homogeneous_poisson": null, "e_total": null, "e_ionic": null, "e_electronic": null, "n": null, "e_ij_max": null, "weighted_surface_energy_EV_PER_ANG2": null, "weighted_surface_energy": null, "weighted_work_function": null, "surface_anisotropy": null, "shape_factor": null, "has_reconstructed": null, "possible_species": null, "has_props": null, "theoretical": null, "database_IDs": null, "fields_not_requested": ["builder_meta", "nsites", "elements", "nelements", "composition", "composition_reduced", "chemsys", "symmetry", "property_name", "deprecated", "deprecation_reasons", "last_updated", "origins", "warnings", "task_ids", "uncorrected_energy_per_atom", "equilibrium_reaction_energy_per_atom", "decomposes_to", "xas", "grain_boundaries", "cbm", "vbm", "is_gap_direct", "is_metal", "es_source_calc_id", "bandstructure", "dos", "dos_energy_up", "dos_energy_down", "is_magnetic", "ordering", "total_magnetization_normalized_vol", "total_magnetization_normalized_formula_units", "num_magnetic_sites", "num_unique_magnetic_sites", "types_of_magnetic_species", "bulk_modulus", "shear_modulus", "universal_anisotropy", "homogeneous_poisson", "e_total", "e_ionic", "e_electronic", "n", "e_ij_max", "weighted_surface_energy_EV_PER_ANG2", "weighted_surface_energy", "weighted_work_function", "surface_anisotropy", "shape_factor", "has_reconstructed", "possible_species", "has_props", "theoretical", "database_IDs"]}