{"builder_meta": null, "nsites": null, "elements": null, "nelements": null, "composition": null, "composition_reduced": null, "formula_pretty": "TmNi", "formula_anonymous": "AB", "chemsys": null, "volume": 150.41672291821524, "density": 10.051662653156113, "density_atomic": 18.802090364776905, "symmetry": null, "property_name": null, "material_id": "mp-11525", "deprecated": null, "deprecation_reasons": null, "last_updated": null, "origins": null, "warnings": null, "structure": {"@module": "pymatgen.core.structure", "@class": "Structure", "charge": 0, "lattice": {"matrix": [[4.0432159500000004, 0.0, 0.0], [-0.0, 5.34196598, 0.0], [0.0, 0.0, 6.9641492]], "pbc": [true, true, true], "a": 4.0432159500000004, "b": 5.34196598, "c": 6.9641492, "alpha": 90.0, "beta": 90.0, "gamma": 90.0, "volume": 150.4167229182153}, "properties": {}, "sites": [{"species": [{"element": "Tm", "occu": 1}], "abc": [0.25, 0.13231281, 0.18011849], "properties": {"magmom": -0.0}, "label": "Tm", "xyz": [1.0108039875000001, 0.7068105297382039, 1.2543720380387078]}, {"species": [{"element": "Tm", "occu": 1}], "abc": [0.75, 0.86768719, 0.81988151], "properties": {"magmom": -0.0}, "label": "Tm", "xyz": [3.0324119625000003, 4.635155450261797, 5.709777161961291]}, {"species": [{"element": "Tm", "occu": 1}], "abc": [0.75, 0.6323128100000001, 0.31988151], "properties": {"magmom": -0.0}, "label": "Tm", "xyz": [3.0324119625000003, 3.3777935197382045, 2.2277025619612916]}, {"species": [{"element": "Tm", "occu": 1}], "abc": [0.25, 0.36768719, 0.68011849], "properties": {"magmom": -0.0}, "label": "Tm", "xyz": [1.0108039875000001, 1.9641724602617963, 4.736446638038708]}, {"species": [{"element": "Ni", "occu": 1}], "abc": [0.25, 0.6239869, 0.035072110000000004], "properties": {"magmom": 0.0}, "label": "Ni", "xyz": [1.0108039875000001, 3.3333167917656623, 0.24424740679881202]}, {"species": [{"element": "Ni", "occu": 1}], "abc": [0.75, 0.3760131, 0.96492789], "properties": {"magmom": 0.0}, "label": "Ni", "xyz": [3.0324119625000003, 2.008649188234338, 6.7199017932011875]}, {"species": [{"element": "Ni", "occu": 1}], "abc": [0.75, 0.1239869, 0.46492789], "properties": {"magmom": 0.0}, "label": "Ni", "xyz": [3.0324119625000003, 0.662333801765662, 3.2378271932011877]}, {"species": [{"element": "Ni", "occu": 1}], "abc": [0.25, 0.8760131, 0.53507211], "properties": {"magmom": 0.0}, "label": "Ni", "xyz": [1.0108039875000001, 4.679632178234338, 3.726322006798812]}]}, "task_ids": null, "uncorrected_energy_per_atom": null, "energy_per_atom": -5.62922567, "formation_energy_per_atom": -0.49790659000000304, "energy_above_hull": 0.0, "is_stable": true, "equilibrium_reaction_energy_per_atom": null, "decomposes_to": null, "xas": null, "grain_boundaries": null, "band_gap": 0.0, "cbm": null, "vbm": null, "efermi": 4.70491014, "is_gap_direct": null, "is_metal": null, "es_source_calc_id": null, "bandstructure": null, "dos": null, "dos_energy_up": null, "dos_energy_down": null, "is_magnetic": null, "ordering": null, "total_magnetization": 1e-07, "total_magnetization_normalized_vol": null, "total_magnetization_normalized_formula_units": null, "num_magnetic_sites": null, "num_unique_magnetic_sites": null, "types_of_magnetic_species": null, "bulk_modulus": null, "shear_modulus": null, "universal_anisotropy": null, "homogeneous_poisson": null, "e_total": null, "e_ionic": null, "e_electronic": null, "n": null, "e_ij_max": null, "weighted_surface_energy_EV_PER_ANG2": null, "weighted_surface_energy": null, "weighted_work_function": null, "surface_anisotropy": null, "shape_factor": null, "has_reconstructed": null, "possible_species": null, "has_props": null, "theoretical": null, "database_IDs": null, "fields_not_requested": ["builder_meta", "nsites", "elements", "nelements", "composition", "composition_reduced", "chemsys", "symmetry", "property_name", "deprecated", "deprecation_reasons", "last_updated", "origins", "warnings", "task_ids", "uncorrected_energy_per_atom", "equilibrium_reaction_energy_per_atom", "decomposes_to", "xas", "grain_boundaries", "cbm", "vbm", "is_gap_direct", "is_metal", "es_source_calc_id", "bandstructure", "dos", "dos_energy_up", "dos_energy_down", "is_magnetic", "ordering", "total_magnetization_normalized_vol", "total_magnetization_normalized_formula_units", "num_magnetic_sites", "num_unique_magnetic_sites", "types_of_magnetic_species", "bulk_modulus", "shear_modulus", "universal_anisotropy", "homogeneous_poisson", "e_total", "e_ionic", "e_electronic", "n", "e_ij_max", "weighted_surface_energy_EV_PER_ANG2", "weighted_surface_energy", "weighted_work_function", "surface_anisotropy", "shape_factor", "has_reconstructed", "possible_species", "has_props", "theoretical", "database_IDs"]}