{
  "builder_meta": null,
  "nsites": null,
  "elements": null,
  "nelements": null,
  "composition": null,
  "composition_reduced": null,
  "formula_pretty": "TmO2",
  "formula_anonymous": "AB2",
  "chemsys": null,
  "volume": 85.86637894073145,
  "density": 7.77154264545923,
  "density_atomic": 14.311063156788576,
  "symmetry": null,
  "property_name": null,
  "material_id": "mp-1206313",
  "deprecated": null,
  "deprecation_reasons": null,
  "last_updated": null,
  "origins": null,
  "warnings": null,
  "structure": {
    "@module": "pymatgen.core.structure",
    "@class": "Structure",
    "charge": 0,
    "lattice": {
      "matrix": [
        [3.579486, 0.0, 0.0],
        [0.0, 4.14811, 0.0],
        [0.0, 1.832106, 5.782987]
      ],
      "pbc": [true, true, true],
      "a": 3.579486,
      "b": 4.14811,
      "c": 6.066263350482322,
      "alpha": 72.42129661228266,
      "beta": 90.0,
      "gamma": 90.0,
      "volume": 85.86637894073145
    },
    "properties": {},
    "sites": [
      {
        "species": [{ "element": "Tm", "occu": 1 }],
        "abc": [0.25, 0.169732, 0.185545],
        "properties": { "magmom": -0.002 },
        "label": "Tm",
        "xyz": [0.8948715, 1.04400511429, 1.073004322915]
      },
      {
        "species": [{ "element": "Tm", "occu": 1 }],
        "abc": [0.75, 0.830268, 0.814454999999999],
        "properties": { "magmom": -0.002 },
        "label": "Tm",
        "xyz": [2.6846145000000003, 4.936210885709999, 4.709982677084994]
      },
      {
        "species": [{ "element": "O", "occu": 1 }],
        "abc": [0.25, 0.815931, 0.553519],
        "properties": { "magmom": 0.784 },
        "label": "O",
        "xyz": [0.8948715, 4.398677021424, 3.200993181253]
      },
      {
        "species": [{ "element": "O", "occu": 1 }],
        "abc": [0.75, 0.184068999999999, 0.446480999999999],
        "properties": { "magmom": 0.784 },
        "label": "O",
        "xyz": [2.6846145000000003, 1.5815389785759941, 2.5819938187469944]
      },
      {
        "species": [{ "element": "O", "occu": 1 }],
        "abc": [0.25, 0.73309, 0.047524],
        "properties": { "magmom": 0.054 },
        "label": "O",
        "xyz": [0.8948715, 3.128006965444, 0.274830674188]
      },
      {
        "species": [{ "element": "O", "occu": 1 }],
        "abc": [0.75, 0.26691000000000004, 0.952476],
        "properties": { "magmom": 0.054 },
        "label": "O",
        "xyz": [2.6846145000000003, 2.852209034556, 5.508156325812]
      }
    ]
  },
  "task_ids": null,
  "uncorrected_energy_per_atom": null,
  "energy_per_atom": -8.017319721666667,
  "formation_energy_per_atom": -3.224511891666669,
  "energy_above_hull": 0.18388219458333302,
  "is_stable": false,
  "equilibrium_reaction_energy_per_atom": null,
  "decomposes_to": null,
  "xas": null,
  "grain_boundaries": null,
  "band_gap": 0.0,
  "cbm": null,
  "vbm": null,
  "efermi": 0.66510539,
  "is_gap_direct": null,
  "is_metal": null,
  "es_source_calc_id": null,
  "bandstructure": null,
  "dos": null,
  "dos_energy_up": null,
  "dos_energy_down": null,
  "is_magnetic": null,
  "ordering": null,
  "total_magnetization": 1.9985667,
  "total_magnetization_normalized_vol": null,
  "total_magnetization_normalized_formula_units": null,
  "num_magnetic_sites": null,
  "num_unique_magnetic_sites": null,
  "types_of_magnetic_species": null,
  "bulk_modulus": null,
  "shear_modulus": null,
  "universal_anisotropy": null,
  "homogeneous_poisson": null,
  "e_total": null,
  "e_ionic": null,
  "e_electronic": null,
  "n": null,
  "e_ij_max": null,
  "weighted_surface_energy_EV_PER_ANG2": null,
  "weighted_surface_energy": null,
  "weighted_work_function": null,
  "surface_anisotropy": null,
  "shape_factor": null,
  "has_reconstructed": null,
  "possible_species": null,
  "has_props": null,
  "theoretical": null,
  "database_IDs": null,
  "fields_not_requested": [
    "builder_meta",
    "nsites",
    "elements",
    "nelements",
    "composition",
    "composition_reduced",
    "chemsys",
    "symmetry",
    "property_name",
    "deprecated",
    "deprecation_reasons",
    "last_updated",
    "origins",
    "warnings",
    "task_ids",
    "uncorrected_energy_per_atom",
    "equilibrium_reaction_energy_per_atom",
    "decomposes_to",
    "xas",
    "grain_boundaries",
    "cbm",
    "vbm",
    "is_gap_direct",
    "is_metal",
    "es_source_calc_id",
    "bandstructure",
    "dos",
    "dos_energy_up",
    "dos_energy_down",
    "is_magnetic",
    "ordering",
    "total_magnetization_normalized_vol",
    "total_magnetization_normalized_formula_units",
    "num_magnetic_sites",
    "num_unique_magnetic_sites",
    "types_of_magnetic_species",
    "bulk_modulus",
    "shear_modulus",
    "universal_anisotropy",
    "homogeneous_poisson",
    "e_total",
    "e_ionic",
    "e_electronic",
    "n",
    "e_ij_max",
    "weighted_surface_energy_EV_PER_ANG2",
    "weighted_surface_energy",
    "weighted_work_function",
    "surface_anisotropy",
    "shape_factor",
    "has_reconstructed",
    "possible_species",
    "has_props",
    "theoretical",
    "database_IDs"
  ]
}
