{"builder_meta": null, "nsites": null, "elements": null, "nelements": null, "composition": null, "composition_reduced": null, "formula_pretty": "TmOs2", "formula_anonymous": "AB2", "chemsys": null, "volume": 210.1986454496281, "density": 17.360540962904828, "density_atomic": 17.516553787469007, "symmetry": null, "property_name": null, "material_id": "mp-1102316", "deprecated": null, "deprecation_reasons": null, "last_updated": null, "origins": null, "warnings": null, "structure": {"@module": "pymatgen.core.structure", "@class": "Structure", "charge": 0.0, "lattice": {"matrix": [[-2.62419697, -4.54520752, 0.0], [-2.62419697, 4.54520752, 0.0], [0.0, -0.0, -8.81149849]], "pbc": [true, true, true], "a": 5.248363662821178, "b": 5.248363662821178, "c": 8.81149849, "alpha": 90.0, "beta": 90.0, "gamma": 119.99961833362141, "volume": 210.1986454496281}, "properties": {}, "sites": [{"species": [{"element": "Tm", "occu": 1}], "abc": [0.6666708, 0.3333292, 0.56577029], "properties": {"magmom": 0.0}, "label": "Tm", "xyz": [-2.62419697, -1.515106747048832, -4.985284056021862]}, {"species": [{"element": "Tm", "occu": 1}], "abc": [0.3333292, 0.6666708, 0.43422971], "properties": {"magmom": 0.0}, "label": "Tm", "xyz": [-2.62419697, 1.515106747048832, -3.8262144339781377]}, {"species": [{"element": "Tm", "occu": 1}], "abc": [0.3333292, 0.6666708, 0.06577029], "properties": {"magmom": 0.0}, "label": "Tm", "xyz": [-2.62419697, 1.515106747048832, -0.5795348110218621]}, {"species": [{"element": "Tm", "occu": 1}], "abc": [0.6666708, 0.3333292, 0.93422971], "properties": {"magmom": 0.0}, "label": "Tm", "xyz": [-2.62419697, -1.515106747048832, -8.231963678978138]}, {"species": [{"element": "Os", "occu": 1}], "abc": [-0.0, -0.0, 0.5], "properties": {"magmom": 0.0}, "label": "Os", "xyz": [0.0, 0.0, -4.405749245]}, {"species": [{"element": "Os", "occu": 1}], "abc": [-0.0, -0.0, 0.0], "properties": {"magmom": 0.0}, "label": "Os", "xyz": [0.0, 0.0, 0.0]}, {"species": [{"element": "Os", "occu": 1}], "abc": [0.17193478, 0.34385701, 0.75], "properties": {"magmom": 0.0}, "label": "Os", "xyz": [-1.3535392524688763, 0.7814222126511696, -6.6086238675]}, {"species": [{"element": "Os", "occu": 1}], "abc": [0.17191974000000002, 0.82808026, 0.75], "properties": {"magmom": 0.0}, "label": "Os", "xyz": [-2.62419697, 2.98238572983111, -6.6086238675]}, {"species": [{"element": "Os", "occu": 1}], "abc": [0.65614299, 0.82806522, 0.75], "properties": {"magmom": 0.0}, "label": "Os", "xyz": [-3.894854687531123, 0.7814222126511701, -6.6086238675]}, {"species": [{"element": "Os", "occu": 1}], "abc": [0.82806522, 0.65614299, 0.25], "properties": {"magmom": 0.0}, "label": "Os", "xyz": [-3.894854687531123, -0.7814222126511701, -2.2028746225]}, {"species": [{"element": "Os", "occu": 1}], "abc": [0.82808026, 0.17191974000000002, 0.25], "properties": {"magmom": 0.0}, "label": "Os", "xyz": [-2.62419697, -2.98238572983111, -2.2028746225]}, {"species": [{"element": "Os", "occu": 1}], "abc": [0.34385701, 0.17193478, 0.25], "properties": {"magmom": 0.0}, "label": "Os", "xyz": [-1.3535392524688763, -0.7814222126511696, -2.2028746225]}]}, "task_ids": null, "uncorrected_energy_per_atom": null, "energy_per_atom": -47.47984663583333, "formation_energy_per_atom": -0.44934463916666806, "energy_above_hull": 0.0, "is_stable": true, "equilibrium_reaction_energy_per_atom": null, "decomposes_to": null, "xas": null, "grain_boundaries": null, "band_gap": 0.0, "cbm": null, "vbm": null, "efermi": 6.12215271, "is_gap_direct": null, "is_metal": null, "es_source_calc_id": null, "bandstructure": null, "dos": null, "dos_energy_up": null, "dos_energy_down": null, "is_magnetic": null, "ordering": null, "total_magnetization": 9.699999999999999e-06, "total_magnetization_normalized_vol": null, "total_magnetization_normalized_formula_units": null, "num_magnetic_sites": null, "num_unique_magnetic_sites": null, "types_of_magnetic_species": null, "bulk_modulus": null, "shear_modulus": null, "universal_anisotropy": null, "homogeneous_poisson": null, "e_total": null, "e_ionic": null, "e_electronic": null, "n": null, "e_ij_max": null, "weighted_surface_energy_EV_PER_ANG2": null, "weighted_surface_energy": null, "weighted_work_function": null, "surface_anisotropy": null, "shape_factor": null, "has_reconstructed": null, "possible_species": null, "has_props": null, "theoretical": null, "database_IDs": null, "fields_not_requested": ["builder_meta", "nsites", "elements", "nelements", "composition", "composition_reduced", "chemsys", "symmetry", "property_name", "deprecated", "deprecation_reasons", "last_updated", "origins", "warnings", "task_ids", "uncorrected_energy_per_atom", "equilibrium_reaction_energy_per_atom", "decomposes_to", "xas", "grain_boundaries", "cbm", "vbm", "is_gap_direct", "is_metal", "es_source_calc_id", "bandstructure", "dos", "dos_energy_up", "dos_energy_down", "is_magnetic", "ordering", "total_magnetization_normalized_vol", "total_magnetization_normalized_formula_units", "num_magnetic_sites", "num_unique_magnetic_sites", "types_of_magnetic_species", "bulk_modulus", "shear_modulus", "universal_anisotropy", "homogeneous_poisson", "e_total", "e_ionic", "e_electronic", "n", "e_ij_max", "weighted_surface_energy_EV_PER_ANG2", "weighted_surface_energy", "weighted_work_function", "surface_anisotropy", "shape_factor", "has_reconstructed", "possible_species", "has_props", "theoretical", "database_IDs"]}