{
  "builder_meta": null,
  "nsites": null,
  "elements": null,
  "nelements": null,
  "composition": null,
  "composition_reduced": null,
  "formula_pretty": "TmP5",
  "formula_anonymous": "AB5",
  "chemsys": null,
  "volume": 238.04309809244256,
  "density": 4.517564835122869,
  "density_atomic": 19.83692484103688,
  "symmetry": null,
  "property_name": null,
  "material_id": "mp-9852",
  "deprecated": null,
  "deprecation_reasons": null,
  "last_updated": null,
  "origins": null,
  "warnings": null,
  "structure": {
    "@module": "pymatgen.core.structure",
    "@class": "Structure",
    "charge": 0,
    "lattice": {
      "matrix": [
        [4.92407793, 0.00998463, 0.0],
        [-1.15157741, 5.18384141, 0.0],
        [0.0, 0.0, 9.32144808]
      ],
      "pbc": [true, true, true],
      "a": 4.924088052984971,
      "b": 5.310211134715182,
      "c": 9.32144808,
      "alpha": 90.0,
      "beta": 90.0,
      "gamma": 102.40854846102421,
      "volume": 238.04309809244256
    },
    "properties": {},
    "sites": [
      {
        "species": [{ "element": "Tm", "occu": 1 }],
        "abc": [0.00079846, 0.34730864, 0.25],
        "properties": { "magmom": 0.0 },
        "label": "Tm",
        "xyz": [-0.3960211048578346, 1.8004008824104523, 2.33036202]
      },
      {
        "species": [{ "element": "Tm", "occu": 1 }],
        "abc": [0.99920154, 0.65269136, 0.75],
        "properties": { "magmom": 0.0 },
        "label": "Tm",
        "xyz": [4.168521624857835, 3.3934251575895487, 6.99108606]
      },
      {
        "species": [{ "element": "P", "occu": 1 }],
        "abc": [0.27583644, 0.8913802, 0.25],
        "properties": { "magmom": -0.0 },
        "label": "P",
        "xyz": [0.3317468244524875, 4.623527717607999, 2.33036202]
      },
      {
        "species": [{ "element": "P", "occu": 1 }],
        "abc": [0.72416356, 0.108619799999999, 0.75],
        "properties": { "magmom": -0.0 },
        "label": "P",
        "xyz": [3.440753695547514, 0.5702983223919957, 6.99108606]
      },
      {
        "species": [{ "element": "P", "occu": 1 }],
        "abc": [0.61523602, 0.95568357, 0.40714736],
        "properties": { "magmom": 0.0 },
        "label": "P",
        "xyz": [1.928926497502885, 4.960254969045006, 3.795202977149069]
      },
      {
        "species": [{ "element": "P", "occu": 1 }],
        "abc": [0.38476398, 0.044316430000000004, 0.9071473600000001],
        "properties": { "magmom": 0.0 },
        "label": "P",
        "xyz": [1.8435740224971153, 0.23357107095499374, 8.455927017149069]
      },
      {
        "species": [{ "element": "P", "occu": 1 }],
        "abc": [0.38476398, 0.044316430000000004, 0.59285264],
        "properties": { "magmom": 0.0 },
        "label": "P",
        "xyz": [1.8435740224971153, 0.23357107095499374, 5.526245102850932]
      },
      {
        "species": [{ "element": "P", "occu": 1 }],
        "abc": [0.61523602, 0.95568357, 0.09285264],
        "properties": { "magmom": 0.0 },
        "label": "P",
        "xyz": [1.928926497502885, 4.960254969045006, 0.8655210628509312]
      },
      {
        "species": [{ "element": "P", "occu": 1 }],
        "abc": [0.71425681, 0.59633241, 0.47155029],
        "properties": { "magmom": -0.0 },
        "label": "P",
        "xyz": [2.830333262266345, 3.0984242310559287, 4.3955315453439425]
      },
      {
        "species": [{ "element": "P", "occu": 1 }],
        "abc": [0.28574319, 0.40366759, 0.97155029],
        "properties": { "magmom": -0.0 },
        "label": "P",
        "xyz": [0.9421672577336547, 2.0954018089440716, 9.056255585343944]
      },
      {
        "species": [{ "element": "P", "occu": 1 }],
        "abc": [0.28574319, 0.40366759, 0.52844971],
        "properties": { "magmom": -0.0 },
        "label": "P",
        "xyz": [0.9421672577336547, 2.0954018089440716, 4.925916534656056]
      },
      {
        "species": [{ "element": "P", "occu": 1 }],
        "abc": [0.71425681, 0.59633241, 0.02844971],
        "properties": { "magmom": -0.0 },
        "label": "P",
        "xyz": [2.830333262266345, 3.0984242310559287, 0.26519249465605677]
      }
    ]
  },
  "task_ids": null,
  "uncorrected_energy_per_atom": null,
  "energy_per_atom": -13.971970534999999,
  "formation_energy_per_atom": -0.616732226646824,
  "energy_above_hull": 0.0,
  "is_stable": true,
  "equilibrium_reaction_energy_per_atom": null,
  "decomposes_to": null,
  "xas": null,
  "grain_boundaries": null,
  "band_gap": 0.1259,
  "cbm": null,
  "vbm": null,
  "efermi": 5.57785461,
  "is_gap_direct": null,
  "is_metal": null,
  "es_source_calc_id": null,
  "bandstructure": null,
  "dos": null,
  "dos_energy_up": null,
  "dos_energy_down": null,
  "is_magnetic": null,
  "ordering": null,
  "total_magnetization": 0.0,
  "total_magnetization_normalized_vol": null,
  "total_magnetization_normalized_formula_units": null,
  "num_magnetic_sites": null,
  "num_unique_magnetic_sites": null,
  "types_of_magnetic_species": null,
  "bulk_modulus": null,
  "shear_modulus": null,
  "universal_anisotropy": null,
  "homogeneous_poisson": null,
  "e_total": null,
  "e_ionic": null,
  "e_electronic": null,
  "n": null,
  "e_ij_max": null,
  "weighted_surface_energy_EV_PER_ANG2": null,
  "weighted_surface_energy": null,
  "weighted_work_function": null,
  "surface_anisotropy": null,
  "shape_factor": null,
  "has_reconstructed": null,
  "possible_species": null,
  "has_props": null,
  "theoretical": null,
  "database_IDs": null,
  "fields_not_requested": [
    "builder_meta",
    "nsites",
    "elements",
    "nelements",
    "composition",
    "composition_reduced",
    "chemsys",
    "symmetry",
    "property_name",
    "deprecated",
    "deprecation_reasons",
    "last_updated",
    "origins",
    "warnings",
    "task_ids",
    "uncorrected_energy_per_atom",
    "equilibrium_reaction_energy_per_atom",
    "decomposes_to",
    "xas",
    "grain_boundaries",
    "cbm",
    "vbm",
    "is_gap_direct",
    "is_metal",
    "es_source_calc_id",
    "bandstructure",
    "dos",
    "dos_energy_up",
    "dos_energy_down",
    "is_magnetic",
    "ordering",
    "total_magnetization_normalized_vol",
    "total_magnetization_normalized_formula_units",
    "num_magnetic_sites",
    "num_unique_magnetic_sites",
    "types_of_magnetic_species",
    "bulk_modulus",
    "shear_modulus",
    "universal_anisotropy",
    "homogeneous_poisson",
    "e_total",
    "e_ionic",
    "e_electronic",
    "n",
    "e_ij_max",
    "weighted_surface_energy_EV_PER_ANG2",
    "weighted_surface_energy",
    "weighted_work_function",
    "surface_anisotropy",
    "shape_factor",
    "has_reconstructed",
    "possible_species",
    "has_props",
    "theoretical",
    "database_IDs"
  ]
}
