{
  "builder_meta": null,
  "nsites": null,
  "elements": null,
  "nelements": null,
  "composition": null,
  "composition_reduced": null,
  "formula_pretty": "TmRe2",
  "formula_anonymous": "AB2",
  "chemsys": null,
  "volume": 221.63736168003484,
  "density": 16.223435336443217,
  "density_atomic": 18.469780140002904,
  "symmetry": null,
  "property_name": null,
  "material_id": "mp-1101985",
  "deprecated": null,
  "deprecation_reasons": null,
  "last_updated": null,
  "origins": null,
  "warnings": null,
  "structure": {
    "@module": "pymatgen.core.structure",
    "@class": "Structure",
    "charge": 0,
    "lattice": {
      "matrix": [
        [-2.70236, -4.680625, 0.0],
        [-2.70236, 4.680625, 0.0],
        [0.0, 0.0, -8.761247000000001]
      ],
      "pbc": [true, true, true],
      "a": 5.404720155588539,
      "b": 5.404720155588539,
      "c": 8.761247000000001,
      "alpha": 90.0,
      "beta": 90.0,
      "gamma": 120.00000190456758,
      "volume": 221.63736168003487
    },
    "properties": {},
    "sites": [
      {
        "species": [{ "element": "Tm", "occu": 1 }],
        "abc": [0.666667, 0.333333999999999, 0.562947],
        "properties": { "magmom": -0.0 },
        "label": "Tm",
        "xyz": [-2.7023627023599976, -1.5602067731250047, -4.932117714909]
      },
      {
        "species": [{ "element": "Tm", "occu": 1 }],
        "abc": [0.333333, 0.666666, 0.437052999999999],
        "properties": { "magmom": -0.0 },
        "label": "Tm",
        "xyz": [-2.70235729764, 1.560206773125, -3.8291292850909917]
      },
      {
        "species": [{ "element": "Tm", "occu": 1 }],
        "abc": [0.333333, 0.666666, 0.062947],
        "properties": { "magmom": -0.0 },
        "label": "Tm",
        "xyz": [-2.70235729764, 1.560206773125, -0.5514942149090001]
      },
      {
        "species": [{ "element": "Tm", "occu": 1 }],
        "abc": [0.666667, 0.333333999999999, 0.937052999999999],
        "properties": { "magmom": -0.0 },
        "label": "Tm",
        "xyz": [-2.7023627023599976, -1.5602067731250047, -8.209752785090993]
      },
      {
        "species": [{ "element": "Re", "occu": 1 }],
        "abc": [0.0, 0.0, 0.5],
        "properties": { "magmom": 0.0 },
        "label": "Re",
        "xyz": [0.0, 0.0, -4.3806235000000004]
      },
      {
        "species": [{ "element": "Re", "occu": 1 }],
        "abc": [0.0, 0.0, 0.0],
        "properties": { "magmom": 0.0 },
        "label": "Re",
        "xyz": [0.0, 0.0, 0.0]
      },
      {
        "species": [{ "element": "Re", "occu": 1 }],
        "abc": [0.171855999999999, 0.343711999999999, 0.75],
        "properties": { "magmom": -0.001 },
        "label": "Re",
        "xyz": [-1.3932503404799947, 0.80439349, -6.570935250000001]
      },
      {
        "species": [{ "element": "Re", "occu": 1 }],
        "abc": [0.171855999999999, 0.828143, 0.75],
        "properties": { "magmom": 0.001 },
        "label": "Re",
        "xyz": [-2.702357297639997, 3.0718333393750044, -6.570935250000001]
      },
      {
        "species": [{ "element": "Re", "occu": 1 }],
        "abc": [0.656287, 0.828143, 0.75],
        "properties": { "magmom": -0.0 },
        "label": "Re",
        "xyz": [-4.0114642548, 0.8043934899999998, -6.570935250000001]
      },
      {
        "species": [{ "element": "Re", "occu": 1 }],
        "abc": [0.828144, 0.656288, 0.25],
        "properties": { "magmom": -0.001 },
        "label": "Re",
        "xyz": [-4.01146965952, -0.8043934899999998, -2.1903117500000002]
      },
      {
        "species": [{ "element": "Re", "occu": 1 }],
        "abc": [0.828144, 0.171856999999999, 0.25],
        "properties": { "magmom": 0.001 },
        "label": "Re",
        "xyz": [-2.702362702359997, -3.0718333393750044, -2.1903117500000002]
      },
      {
        "species": [{ "element": "Re", "occu": 1 }],
        "abc": [0.343713, 0.171856999999999, 0.25],
        "properties": { "magmom": -0.0 },
        "label": "Re",
        "xyz": [-1.3932557451999972, -0.8043934900000045, -2.1903117500000002]
      }
    ]
  },
  "task_ids": null,
  "uncorrected_energy_per_atom": null,
  "energy_per_atom": -10.081274499166666,
  "formation_energy_per_atom": -0.28836453416667,
  "energy_above_hull": 0.0,
  "is_stable": true,
  "equilibrium_reaction_energy_per_atom": null,
  "decomposes_to": null,
  "xas": null,
  "grain_boundaries": null,
  "band_gap": 0.0,
  "cbm": null,
  "vbm": null,
  "efermi": 5.48869296,
  "is_gap_direct": null,
  "is_metal": null,
  "es_source_calc_id": null,
  "bandstructure": null,
  "dos": null,
  "dos_energy_up": null,
  "dos_energy_down": null,
  "is_magnetic": null,
  "ordering": null,
  "total_magnetization": 5.799999999999999e-6,
  "total_magnetization_normalized_vol": null,
  "total_magnetization_normalized_formula_units": null,
  "num_magnetic_sites": null,
  "num_unique_magnetic_sites": null,
  "types_of_magnetic_species": null,
  "bulk_modulus": null,
  "shear_modulus": null,
  "universal_anisotropy": null,
  "homogeneous_poisson": null,
  "e_total": null,
  "e_ionic": null,
  "e_electronic": null,
  "n": null,
  "e_ij_max": null,
  "weighted_surface_energy_EV_PER_ANG2": null,
  "weighted_surface_energy": null,
  "weighted_work_function": null,
  "surface_anisotropy": null,
  "shape_factor": null,
  "has_reconstructed": null,
  "possible_species": null,
  "has_props": null,
  "theoretical": null,
  "database_IDs": null,
  "fields_not_requested": [
    "builder_meta",
    "nsites",
    "elements",
    "nelements",
    "composition",
    "composition_reduced",
    "chemsys",
    "symmetry",
    "property_name",
    "deprecated",
    "deprecation_reasons",
    "last_updated",
    "origins",
    "warnings",
    "task_ids",
    "uncorrected_energy_per_atom",
    "equilibrium_reaction_energy_per_atom",
    "decomposes_to",
    "xas",
    "grain_boundaries",
    "cbm",
    "vbm",
    "is_gap_direct",
    "is_metal",
    "es_source_calc_id",
    "bandstructure",
    "dos",
    "dos_energy_up",
    "dos_energy_down",
    "is_magnetic",
    "ordering",
    "total_magnetization_normalized_vol",
    "total_magnetization_normalized_formula_units",
    "num_magnetic_sites",
    "num_unique_magnetic_sites",
    "types_of_magnetic_species",
    "bulk_modulus",
    "shear_modulus",
    "universal_anisotropy",
    "homogeneous_poisson",
    "e_total",
    "e_ionic",
    "e_electronic",
    "n",
    "e_ij_max",
    "weighted_surface_energy_EV_PER_ANG2",
    "weighted_surface_energy",
    "weighted_work_function",
    "surface_anisotropy",
    "shape_factor",
    "has_reconstructed",
    "possible_species",
    "has_props",
    "theoretical",
    "database_IDs"
  ]
}
