{
  "builder_meta": null,
  "nsites": null,
  "elements": null,
  "nelements": null,
  "composition": null,
  "composition_reduced": null,
  "formula_pretty": "TmRu2",
  "formula_anonymous": "AB2",
  "chemsys": null,
  "volume": 211.18605273017997,
  "density": 11.67090751205987,
  "density_atomic": 17.598837727514997,
  "symmetry": null,
  "property_name": null,
  "material_id": "mp-1101770",
  "deprecated": null,
  "deprecation_reasons": null,
  "last_updated": null,
  "origins": null,
  "warnings": null,
  "structure": {
    "@module": "pymatgen.core.structure",
    "@class": "Structure",
    "charge": 0,
    "lattice": {
      "matrix": [
        [-2.619977999999999, -4.542978, 0.0],
        [-2.619977999999999, 4.542978, 0.0],
        [0.0, 0.0, -8.871498]
      ],
      "pbc": [true, true, true],
      "a": 5.244323963006861,
      "b": 5.244323963006861,
      "c": 8.871498,
      "alpha": 90.0,
      "beta": 90.0,
      "gamma": 120.05509614117346,
      "volume": 211.18605273017985
    },
    "properties": {},
    "sites": [
      {
        "species": [{ "element": "Tm", "occu": 1 }],
        "abc": [0.666659, 0.333341, 0.566738],
        "properties": { "magmom": -0.0 },
        "label": "Tm",
        "xyz": [-2.619977999999999, -1.5142563410039998, -5.027815033524]
      },
      {
        "species": [{ "element": "Tm", "occu": 1 }],
        "abc": [0.333341, 0.666659, 0.433262],
        "properties": { "magmom": -0.0 },
        "label": "Tm",
        "xyz": [-2.619977999999999, 1.5142563410039998, -3.843682966476]
      },
      {
        "species": [{ "element": "Tm", "occu": 1 }],
        "abc": [0.333341, 0.666659, 0.066737999999999],
        "properties": { "magmom": -0.0 },
        "label": "Tm",
        "xyz": [-2.619977999999999, 1.5142563410039998, -0.5920660335239912]
      },
      {
        "species": [{ "element": "Tm", "occu": 1 }],
        "abc": [0.666659, 0.333341, 0.933261999999999],
        "properties": { "magmom": -0.0 },
        "label": "Tm",
        "xyz": [-2.619977999999999, -1.5142563410039998, -8.279431966475991]
      },
      {
        "species": [{ "element": "Ru", "occu": 1 }],
        "abc": [0.0, 0.0, 0.5],
        "properties": { "magmom": 0.0 },
        "label": "Ru",
        "xyz": [0.0, 0.0, -4.435749]
      },
      {
        "species": [{ "element": "Ru", "occu": 1 }],
        "abc": [0.0, 0.0, 0.0],
        "properties": { "magmom": 0.0 },
        "label": "Ru",
        "xyz": [0.0, 0.0, 0.0]
      },
      {
        "species": [{ "element": "Ru", "occu": 1 }],
        "abc": [0.17126000000000002, 0.342694, 0.75],
        "properties": { "magmom": 0.001 },
        "label": "Ru",
        "xyz": [-1.3465481730119995, 0.7788208904519999, -6.6536235]
      },
      {
        "species": [{ "element": "Ru", "occu": 1 }],
        "abc": [0.171434, 0.828565999999999, 0.75],
        "properties": { "magmom": 0.001 },
        "label": "Ru",
        "xyz": [-2.619977999999996, 2.985336219095996, -6.6536235]
      },
      {
        "species": [{ "element": "Ru", "occu": 1 }],
        "abc": [0.657306, 0.82874, 0.75],
        "properties": { "magmom": 0.001 },
        "label": "Ru",
        "xyz": [-3.893407826987998, 0.7788208904520006, -6.6536235]
      },
      {
        "species": [{ "element": "Ru", "occu": 1 }],
        "abc": [0.82874, 0.657306, 0.25],
        "properties": { "magmom": 0.001 },
        "label": "Ru",
        "xyz": [-3.893407826987998, -0.7788208904520006, -2.2178745]
      },
      {
        "species": [{ "element": "Ru", "occu": 1 }],
        "abc": [0.828565999999999, 0.171434, 0.25],
        "properties": { "magmom": 0.001 },
        "label": "Ru",
        "xyz": [-2.619977999999996, -2.985336219095996, -2.2178745]
      },
      {
        "species": [{ "element": "Ru", "occu": 1 }],
        "abc": [0.342694, 0.17126000000000002, 0.25],
        "properties": { "magmom": 0.001 },
        "label": "Ru",
        "xyz": [-1.3465481730119995, -0.7788208904519999, -2.2178745]
      }
    ]
  },
  "task_ids": null,
  "uncorrected_energy_per_atom": null,
  "energy_per_atom": -8.055109303333333,
  "formation_energy_per_atom": -0.37800711666666803,
  "energy_above_hull": 0.0,
  "is_stable": true,
  "equilibrium_reaction_energy_per_atom": null,
  "decomposes_to": null,
  "xas": null,
  "grain_boundaries": null,
  "band_gap": 0.0,
  "cbm": null,
  "vbm": null,
  "efermi": 5.83870143,
  "is_gap_direct": null,
  "is_metal": null,
  "es_source_calc_id": null,
  "bandstructure": null,
  "dos": null,
  "dos_energy_up": null,
  "dos_energy_down": null,
  "is_magnetic": null,
  "ordering": null,
  "total_magnetization": 0.009125399999999001,
  "total_magnetization_normalized_vol": null,
  "total_magnetization_normalized_formula_units": null,
  "num_magnetic_sites": null,
  "num_unique_magnetic_sites": null,
  "types_of_magnetic_species": null,
  "bulk_modulus": null,
  "shear_modulus": null,
  "universal_anisotropy": null,
  "homogeneous_poisson": null,
  "e_total": null,
  "e_ionic": null,
  "e_electronic": null,
  "n": null,
  "e_ij_max": null,
  "weighted_surface_energy_EV_PER_ANG2": null,
  "weighted_surface_energy": null,
  "weighted_work_function": null,
  "surface_anisotropy": null,
  "shape_factor": null,
  "has_reconstructed": null,
  "possible_species": null,
  "has_props": null,
  "theoretical": null,
  "database_IDs": null,
  "fields_not_requested": [
    "builder_meta",
    "nsites",
    "elements",
    "nelements",
    "composition",
    "composition_reduced",
    "chemsys",
    "symmetry",
    "property_name",
    "deprecated",
    "deprecation_reasons",
    "last_updated",
    "origins",
    "warnings",
    "task_ids",
    "uncorrected_energy_per_atom",
    "equilibrium_reaction_energy_per_atom",
    "decomposes_to",
    "xas",
    "grain_boundaries",
    "cbm",
    "vbm",
    "is_gap_direct",
    "is_metal",
    "es_source_calc_id",
    "bandstructure",
    "dos",
    "dos_energy_up",
    "dos_energy_down",
    "is_magnetic",
    "ordering",
    "total_magnetization_normalized_vol",
    "total_magnetization_normalized_formula_units",
    "num_magnetic_sites",
    "num_unique_magnetic_sites",
    "types_of_magnetic_species",
    "bulk_modulus",
    "shear_modulus",
    "universal_anisotropy",
    "homogeneous_poisson",
    "e_total",
    "e_ionic",
    "e_electronic",
    "n",
    "e_ij_max",
    "weighted_surface_energy_EV_PER_ANG2",
    "weighted_surface_energy",
    "weighted_work_function",
    "surface_anisotropy",
    "shape_factor",
    "has_reconstructed",
    "possible_species",
    "has_props",
    "theoretical",
    "database_IDs"
  ]
}
