{
  "builder_meta": null,
  "nsites": null,
  "elements": null,
  "nelements": null,
  "composition": null,
  "composition_reduced": null,
  "formula_pretty": "TmSb3",
  "formula_anonymous": "AB3",
  "chemsys": null,
  "volume": 215.01943150052065,
  "density": 8.25119441017319,
  "density_atomic": 26.87742893756508,
  "symmetry": null,
  "property_name": null,
  "material_id": "mp-1187662",
  "deprecated": null,
  "deprecation_reasons": null,
  "last_updated": null,
  "origins": null,
  "warnings": null,
  "structure": {
    "@module": "pymatgen.core.structure",
    "@class": "Structure",
    "charge": 0,
    "lattice": {
      "matrix": [
        [3.251645, -5.632014, 0.0],
        [3.251645, 5.632014, 0.0],
        [0.0, 0.0, 5.870578]
      ],
      "pbc": [true, true, true],
      "a": 6.503289698469613,
      "b": 6.503289698469613,
      "c": 5.870578,
      "alpha": 90.0,
      "beta": 90.0,
      "gamma": 119.99999693246174,
      "volume": 215.01943150052065
    },
    "properties": {},
    "sites": [
      {
        "species": [{ "element": "Tm", "occu": 1 }],
        "abc": [0.333333, 0.666667, 0.75],
        "properties": { "magmom": 0.0 },
        "label": "Tm",
        "xyz": [3.251645, 1.877341754676, 4.4029335]
      },
      {
        "species": [{ "element": "Tm", "occu": 1 }],
        "abc": [0.666667, 0.333333, 0.25],
        "properties": { "magmom": 0.0 },
        "label": "Tm",
        "xyz": [3.251645, -1.877341754676, 1.4676445]
      },
      {
        "species": [{ "element": "Sb", "occu": 1 }],
        "abc": [0.173962, 0.347924, 0.25],
        "properties": { "magmom": -0.0 },
        "label": "Sb",
        "xyz": [1.6969880024700001, 0.979756419468, 1.4676445]
      },
      {
        "species": [{ "element": "Sb", "occu": 1 }],
        "abc": [0.652076, 0.826037999999999, 0.25],
        "properties": { "magmom": 0.0 },
        "label": "Sb",
        "xyz": [4.806301997529997, 0.9797564194679946, 1.4676445]
      },
      {
        "species": [{ "element": "Sb", "occu": 1 }],
        "abc": [0.173962, 0.826037999999999, 0.25],
        "properties": { "magmom": 0.0 },
        "label": "Sb",
        "xyz": [3.2516449999999972, 3.6725011610639946, 1.4676445]
      },
      {
        "species": [{ "element": "Sb", "occu": 1 }],
        "abc": [0.826037999999999, 0.652076, 0.75],
        "properties": { "magmom": -0.0 },
        "label": "Sb",
        "xyz": [4.806301997529997, -0.9797564194679946, 4.4029335]
      },
      {
        "species": [{ "element": "Sb", "occu": 1 }],
        "abc": [0.347924, 0.173962, 0.75],
        "properties": { "magmom": 0.0 },
        "label": "Sb",
        "xyz": [1.6969880024700001, -0.979756419468, 4.4029335]
      },
      {
        "species": [{ "element": "Sb", "occu": 1 }],
        "abc": [0.826037999999999, 0.173962, 0.75],
        "properties": { "magmom": 0.0 },
        "label": "Sb",
        "xyz": [3.2516449999999972, -3.6725011610639946, 4.4029335]
      }
    ]
  },
  "task_ids": null,
  "uncorrected_energy_per_atom": null,
  "energy_per_atom": -28.610641277499997,
  "formation_energy_per_atom": -0.550642407499996,
  "energy_above_hull": 0.09551851000000101,
  "is_stable": false,
  "equilibrium_reaction_energy_per_atom": null,
  "decomposes_to": null,
  "xas": null,
  "grain_boundaries": null,
  "band_gap": 0.0,
  "cbm": null,
  "vbm": null,
  "efermi": 7.4697775,
  "is_gap_direct": null,
  "is_metal": null,
  "es_source_calc_id": null,
  "bandstructure": null,
  "dos": null,
  "dos_energy_up": null,
  "dos_energy_down": null,
  "is_magnetic": null,
  "ordering": null,
  "total_magnetization": 0.0006839,
  "total_magnetization_normalized_vol": null,
  "total_magnetization_normalized_formula_units": null,
  "num_magnetic_sites": null,
  "num_unique_magnetic_sites": null,
  "types_of_magnetic_species": null,
  "bulk_modulus": null,
  "shear_modulus": null,
  "universal_anisotropy": null,
  "homogeneous_poisson": null,
  "e_total": null,
  "e_ionic": null,
  "e_electronic": null,
  "n": null,
  "e_ij_max": null,
  "weighted_surface_energy_EV_PER_ANG2": null,
  "weighted_surface_energy": null,
  "weighted_work_function": null,
  "surface_anisotropy": null,
  "shape_factor": null,
  "has_reconstructed": null,
  "possible_species": null,
  "has_props": null,
  "theoretical": null,
  "database_IDs": null,
  "fields_not_requested": [
    "builder_meta",
    "nsites",
    "elements",
    "nelements",
    "composition",
    "composition_reduced",
    "chemsys",
    "symmetry",
    "property_name",
    "deprecated",
    "deprecation_reasons",
    "last_updated",
    "origins",
    "warnings",
    "task_ids",
    "uncorrected_energy_per_atom",
    "equilibrium_reaction_energy_per_atom",
    "decomposes_to",
    "xas",
    "grain_boundaries",
    "cbm",
    "vbm",
    "is_gap_direct",
    "is_metal",
    "es_source_calc_id",
    "bandstructure",
    "dos",
    "dos_energy_up",
    "dos_energy_down",
    "is_magnetic",
    "ordering",
    "total_magnetization_normalized_vol",
    "total_magnetization_normalized_formula_units",
    "num_magnetic_sites",
    "num_unique_magnetic_sites",
    "types_of_magnetic_species",
    "bulk_modulus",
    "shear_modulus",
    "universal_anisotropy",
    "homogeneous_poisson",
    "e_total",
    "e_ionic",
    "e_electronic",
    "n",
    "e_ij_max",
    "weighted_surface_energy_EV_PER_ANG2",
    "weighted_surface_energy",
    "weighted_work_function",
    "surface_anisotropy",
    "shape_factor",
    "has_reconstructed",
    "possible_species",
    "has_props",
    "theoretical",
    "database_IDs"
  ]
}
