{"builder_meta": null, "nsites": null, "elements": null, "nelements": null, "composition": null, "composition_reduced": null, "formula_pretty": "TmSn2", "formula_anonymous": "AB2", "chemsys": null, "volume": 152.59732935239282, "density": 8.84375950019599, "density_atomic": 25.432888225398802, "symmetry": null, "property_name": null, "material_id": "mp-1077102", "deprecated": null, "deprecation_reasons": null, "last_updated": null, "origins": null, "warnings": null, "structure": {"@module": "pymatgen.core.structure", "@class": "Structure", "charge": 0, "lattice": {"matrix": [[0.0, 0.0, -4.29072682], [-4.35058146, 1e-08, 0.0], [2.1752897, 8.17464239, 0.0]], "pbc": [true, true, true], "a": 4.29072682, "b": 4.35058146, "c": 8.459117181084029, "alpha": 104.90121431943196, "beta": 90.0, "gamma": 90.0, "volume": 152.5973293523928}, "properties": {}, "sites": [{"species": [{"element": "Tm", "occu": 1}], "abc": [0.75, 0.09995861, 0.19991922], "properties": {"magmom": -0.0}, "label": "Tm", "xyz": [4.1446646634191175e-06, 1.6342681313873222, -3.218045115]}, {"species": [{"element": "Tm", "occu": 1}], "abc": [0.25, 0.90004139, 0.80008078], "properties": {"magmom": -0.0}, "label": "Tm", "xyz": [-2.1752959046646634, 6.540374268612679, -1.072681705]}, {"species": [{"element": "Sn", "occu": 1}], "abc": [0.75, 0.43779032, 0.87557864], "properties": {"magmom": 0.0}, "label": "Sn", "xyz": [-5.252427459190301e-06, 7.1575422707004535, -3.218045115]}, {"species": [{"element": "Sn", "occu": 1}], "abc": [0.25, 0.56220968, 0.12442136000000001], "properties": {"magmom": 0.0}, "label": "Sn", "xyz": [-2.175286507572541, 1.0171001292995474, -1.072681705]}, {"species": [{"element": "Sn", "occu": 1}], "abc": [0.75, 0.7484232, 0.496848399999999], "properties": {"magmom": -0.0}, "label": "Sn", "xyz": [-2.175286891172394, 4.0615579995279, -3.218045115]}, {"species": [{"element": "Sn", "occu": 1}], "abc": [0.25, 0.2515768, 0.5031516], "properties": {"magmom": -0.0}, "label": "Sn", "xyz": [-4.868827607973358e-06, 4.113084400472093, -1.072681705]}]}, "task_ids": null, "uncorrected_energy_per_atom": null, "energy_per_atom": -4.704038125000001, "formation_energy_per_atom": -0.53682306166667, "energy_above_hull": 0.0, "is_stable": true, "equilibrium_reaction_energy_per_atom": null, "decomposes_to": null, "xas": null, "grain_boundaries": null, "band_gap": 0.0, "cbm": null, "vbm": null, "efermi": 6.92530647, "is_gap_direct": null, "is_metal": null, "es_source_calc_id": null, "bandstructure": null, "dos": null, "dos_energy_up": null, "dos_energy_down": null, "is_magnetic": null, "ordering": null, "total_magnetization": 0.0, "total_magnetization_normalized_vol": null, "total_magnetization_normalized_formula_units": null, "num_magnetic_sites": null, "num_unique_magnetic_sites": null, "types_of_magnetic_species": null, "bulk_modulus": null, "shear_modulus": null, "universal_anisotropy": null, "homogeneous_poisson": null, "e_total": null, "e_ionic": null, "e_electronic": null, "n": null, "e_ij_max": null, "weighted_surface_energy_EV_PER_ANG2": null, "weighted_surface_energy": null, "weighted_work_function": null, "surface_anisotropy": null, "shape_factor": null, "has_reconstructed": null, "possible_species": null, "has_props": null, "theoretical": null, "database_IDs": null, "fields_not_requested": ["builder_meta", "nsites", "elements", "nelements", "composition", "composition_reduced", "chemsys", "symmetry", "property_name", "deprecated", "deprecation_reasons", "last_updated", "origins", "warnings", "task_ids", "uncorrected_energy_per_atom", "equilibrium_reaction_energy_per_atom", "decomposes_to", "xas", "grain_boundaries", "cbm", "vbm", "is_gap_direct", "is_metal", "es_source_calc_id", "bandstructure", "dos", "dos_energy_up", "dos_energy_down", "is_magnetic", "ordering", "total_magnetization_normalized_vol", "total_magnetization_normalized_formula_units", "num_magnetic_sites", "num_unique_magnetic_sites", "types_of_magnetic_species", "bulk_modulus", "shear_modulus", "universal_anisotropy", "homogeneous_poisson", "e_total", "e_ionic", "e_electronic", "n", "e_ij_max", "weighted_surface_energy_EV_PER_ANG2", "weighted_surface_energy", "weighted_work_function", "surface_anisotropy", "shape_factor", "has_reconstructed", "possible_species", "has_props", "theoretical", "database_IDs"]}