{
  "builder_meta": null,
  "nsites": null,
  "elements": null,
  "nelements": null,
  "composition": null,
  "composition_reduced": null,
  "formula_pretty": "TmSn3",
  "formula_anonymous": "AB3",
  "chemsys": null,
  "volume": 214.98197221373434,
  "density": 8.111281371180619,
  "density_atomic": 26.872746526716792,
  "symmetry": null,
  "property_name": null,
  "material_id": "mp-1078819",
  "deprecated": null,
  "deprecation_reasons": null,
  "last_updated": null,
  "origins": null,
  "warnings": null,
  "structure": {
    "@module": "pymatgen.core.structure",
    "@class": "Structure",
    "charge": 0,
    "lattice": {
      "matrix": [
        [2.205314, -11.010019, 0.0],
        [2.205314, 11.010019, 0.0],
        [0.0, 0.0, 4.427041]
      ],
      "pbc": [true, true, true],
      "a": 11.22870999798984,
      "b": 11.22870999798984,
      "c": 4.427041,
      "alpha": 90.0,
      "beta": 90.0,
      "gamma": 157.34700971282152,
      "volume": 214.98197221373434
    },
    "properties": {},
    "sites": [
      {
        "species": [{ "element": "Tm", "occu": 1 }],
        "abc": [0.482129, 0.517871, 0.5],
        "properties": { "magmom": -0.0 },
        "label": "Tm",
        "xyz": [2.205314, 0.3935200990979997, 2.2135205]
      },
      {
        "species": [{ "element": "Tm", "occu": 1 }],
        "abc": [0.212865, 0.787134999999999, 0.0],
        "properties": { "magmom": 0.002 },
        "label": "Tm",
        "xyz": [2.2053139999999978, 6.32272361112999, 0.0]
      },
      {
        "species": [{ "element": "Sn", "occu": 1 }],
        "abc": [0.098942, 0.901057999999999, 0.5],
        "properties": { "magmom": 0.0 },
        "label": "Sn",
        "xyz": [2.2053139999999978, 8.831312400203988, 2.2135205]
      },
      {
        "species": [{ "element": "Sn", "occu": 1 }],
        "abc": [0.728109, 0.271891, 0.5],
        "properties": { "magmom": 0.001 },
        "label": "Sn",
        "xyz": [2.205314, -5.022968848142, 2.2135205]
      },
      {
        "species": [{ "element": "Sn", "occu": 1 }],
        "abc": [0.864713, 0.135287, 0.5],
        "properties": { "magmom": -0.0 },
        "label": "Sn",
        "xyz": [2.205314, -8.030994119094, 2.2135205]
      },
      {
        "species": [{ "element": "Sn", "occu": 1 }],
        "abc": [0.97623, 0.023770000000000003, 0.0],
        "properties": { "magmom": -0.0 },
        "label": "Sn",
        "xyz": [2.205314, -10.48660269674, 0.0]
      },
      {
        "species": [{ "element": "Sn", "occu": 1 }],
        "abc": [0.362713, 0.637286999999999, 0.0],
        "properties": { "magmom": 0.0 },
        "label": "Sn",
        "xyz": [2.2053139999999978, 3.023064956905989, 0.0]
      },
      {
        "species": [{ "element": "Sn", "occu": 1 }],
        "abc": [0.600298, 0.399702, 0.0],
        "properties": { "magmom": 0.0 },
        "label": "Sn",
        "xyz": [2.205314, -2.2085657713240003, 0.0]
      }
    ]
  },
  "task_ids": null,
  "uncorrected_energy_per_atom": null,
  "energy_per_atom": -4.44457832,
  "formation_energy_per_atom": -0.31677405875000103,
  "energy_above_hull": 0.085843237500001,
  "is_stable": false,
  "equilibrium_reaction_energy_per_atom": null,
  "decomposes_to": null,
  "xas": null,
  "grain_boundaries": null,
  "band_gap": 0.0,
  "cbm": null,
  "vbm": null,
  "efermi": 7.1199828,
  "is_gap_direct": null,
  "is_metal": null,
  "es_source_calc_id": null,
  "bandstructure": null,
  "dos": null,
  "dos_energy_up": null,
  "dos_energy_down": null,
  "is_magnetic": null,
  "ordering": null,
  "total_magnetization": 0.0126871,
  "total_magnetization_normalized_vol": null,
  "total_magnetization_normalized_formula_units": null,
  "num_magnetic_sites": null,
  "num_unique_magnetic_sites": null,
  "types_of_magnetic_species": null,
  "bulk_modulus": null,
  "shear_modulus": null,
  "universal_anisotropy": null,
  "homogeneous_poisson": null,
  "e_total": null,
  "e_ionic": null,
  "e_electronic": null,
  "n": null,
  "e_ij_max": null,
  "weighted_surface_energy_EV_PER_ANG2": null,
  "weighted_surface_energy": null,
  "weighted_work_function": null,
  "surface_anisotropy": null,
  "shape_factor": null,
  "has_reconstructed": null,
  "possible_species": null,
  "has_props": null,
  "theoretical": null,
  "database_IDs": null,
  "fields_not_requested": [
    "builder_meta",
    "nsites",
    "elements",
    "nelements",
    "composition",
    "composition_reduced",
    "chemsys",
    "symmetry",
    "property_name",
    "deprecated",
    "deprecation_reasons",
    "last_updated",
    "origins",
    "warnings",
    "task_ids",
    "uncorrected_energy_per_atom",
    "equilibrium_reaction_energy_per_atom",
    "decomposes_to",
    "xas",
    "grain_boundaries",
    "cbm",
    "vbm",
    "is_gap_direct",
    "is_metal",
    "es_source_calc_id",
    "bandstructure",
    "dos",
    "dos_energy_up",
    "dos_energy_down",
    "is_magnetic",
    "ordering",
    "total_magnetization_normalized_vol",
    "total_magnetization_normalized_formula_units",
    "num_magnetic_sites",
    "num_unique_magnetic_sites",
    "types_of_magnetic_species",
    "bulk_modulus",
    "shear_modulus",
    "universal_anisotropy",
    "homogeneous_poisson",
    "e_total",
    "e_ionic",
    "e_electronic",
    "n",
    "e_ij_max",
    "weighted_surface_energy_EV_PER_ANG2",
    "weighted_surface_energy",
    "weighted_work_function",
    "surface_anisotropy",
    "shape_factor",
    "has_reconstructed",
    "possible_species",
    "has_props",
    "theoretical",
    "database_IDs"
  ]
}
