{"builder_meta": null, "nsites": null, "elements": null, "nelements": null, "composition": null, "composition_reduced": null, "formula_pretty": "TmTc2", "formula_anonymous": "AB2", "chemsys": null, "volume": 214.10545712278375, "density": 11.321290369470418, "density_atomic": 17.842121426898647, "symmetry": null, "property_name": null, "material_id": "mp-1102890", "deprecated": null, "deprecation_reasons": null, "last_updated": null, "origins": null, "warnings": null, "structure": {"@module": "pymatgen.core.structure", "@class": "Structure", "charge": 0, "lattice": {"matrix": [[-2.65445213, -4.59783212, 0.0], [-2.65445213, 4.59783212, 0.0], [0.0, 0.0, -8.7714165]], "pbc": [true, true, true], "a": 5.309065484072053, "b": 5.309065484072053, "c": 8.7714165, "alpha": 90.0, "beta": 90.0, "gamma": 120.00200910024454, "volume": 214.10545712278375}, "properties": {}, "sites": [{"species": [{"element": "Tm", "occu": 1}], "abc": [0.66666544, 0.33333456, 0.56292452], "properties": {"magmom": -0.0}, "label": "Tm", "xyz": [-2.65445213, -1.5325994266518659, -4.937645422982581]}, {"species": [{"element": "Tm", "occu": 1}], "abc": [0.33333424, 0.66666576, 0.43709646], "properties": {"magmom": -0.0}, "label": "Tm", "xyz": [-2.65445213, 1.5326023692644224, -3.8339551013355906]}, {"species": [{"element": "Tm", "occu": 1}], "abc": [0.33333424, 0.66666576, 0.06290354000000001], "properties": {"magmom": -0.0}, "label": "Tm", "xyz": [-2.65445213, 1.5326023692644224, -0.5517531486644102]}, {"species": [{"element": "Tm", "occu": 1}], "abc": [0.66666544, 0.33333456, 0.9370754800000001], "properties": {"magmom": -0.0}, "label": "Tm", "xyz": [-2.65445213, -1.5325994266518659, -8.219479327017421]}, {"species": [{"element": "Tc", "occu": 1}], "abc": [9e-08, -9e-08, 0.49991133], "properties": {"magmom": -0.0}, "label": "Tc", "xyz": [0.0, -8.276097816e-07, -4.384930488498945]}, {"species": [{"element": "Tc", "occu": 1}], "abc": [9e-08, -9e-08, 8.867000000000003e-05], "properties": {"magmom": -0.0}, "label": "Tc", "xyz": [0.0, -8.276097816e-07, -0.0007777615010550003]}, {"species": [{"element": "Tc", "occu": 1}], "abc": [0.17183472, 0.34366687, 0.75], "properties": {"magmom": -0.0}, "label": "Tc", "xyz": [-1.3683742935938867, 0.790055378518658, -6.578562375000001]}, {"species": [{"element": "Tc", "occu": 1}], "abc": [0.17182389, 0.82817611, 0.75], "properties": {"magmom": -0.0}, "label": "Tc", "xyz": [-2.65445213, 3.017797319149306, -6.578562375000001]}, {"species": [{"element": "Tc", "occu": 1}], "abc": [0.65633313, 0.82816528, 0.75], "properties": {"magmom": -0.0}, "label": "Tc", "xyz": [-3.940529966406114, 0.7900553785186575, -6.578562375000001]}, {"species": [{"element": "Tc", "occu": 1}], "abc": [0.82814778, 0.65630295, 0.25], "properties": {"magmom": -0.0}, "label": "Tc", "xyz": [-3.940403402128555, -0.7901136790299392, -2.192854125]}, {"species": [{"element": "Tc", "occu": 1}], "abc": [0.8281619, 0.1718381, 0.25], "properties": {"magmom": -0.0}, "label": "Tc", "xyz": [-2.65445213, -3.017666648760456, -2.192854125]}, {"species": [{"element": "Tc", "occu": 1}], "abc": [0.34369705, 0.17185222, 0.25], "properties": {"magmom": -0.0}, "label": "Tc", "xyz": [-1.3685008578714453, -0.7901136790299396, -2.192854125]}]}, "task_ids": null, "uncorrected_energy_per_atom": null, "energy_per_atom": -29.290853643333335, "formation_energy_per_atom": -0.274062846666666, "energy_above_hull": 0.0, "is_stable": true, "equilibrium_reaction_energy_per_atom": null, "decomposes_to": null, "xas": null, "grain_boundaries": null, "band_gap": 0.0, "cbm": null, "vbm": null, "efermi": 6.04437815, "is_gap_direct": null, "is_metal": null, "es_source_calc_id": null, "bandstructure": null, "dos": null, "dos_energy_up": null, "dos_energy_down": null, "is_magnetic": null, "ordering": null, "total_magnetization": 8.33e-05, "total_magnetization_normalized_vol": null, "total_magnetization_normalized_formula_units": null, "num_magnetic_sites": null, "num_unique_magnetic_sites": null, "types_of_magnetic_species": null, "bulk_modulus": null, "shear_modulus": null, "universal_anisotropy": null, "homogeneous_poisson": null, "e_total": null, "e_ionic": null, "e_electronic": null, "n": null, "e_ij_max": null, "weighted_surface_energy_EV_PER_ANG2": null, "weighted_surface_energy": null, "weighted_work_function": null, "surface_anisotropy": null, "shape_factor": null, "has_reconstructed": null, "possible_species": null, "has_props": null, "theoretical": null, "database_IDs": null, "fields_not_requested": ["builder_meta", "nsites", "elements", "nelements", "composition", "composition_reduced", "chemsys", "symmetry", "property_name", "deprecated", "deprecation_reasons", "last_updated", "origins", "warnings", "task_ids", "uncorrected_energy_per_atom", "equilibrium_reaction_energy_per_atom", "decomposes_to", "xas", "grain_boundaries", "cbm", "vbm", "is_gap_direct", "is_metal", "es_source_calc_id", "bandstructure", "dos", "dos_energy_up", "dos_energy_down", "is_magnetic", "ordering", "total_magnetization_normalized_vol", "total_magnetization_normalized_formula_units", "num_magnetic_sites", "num_unique_magnetic_sites", "types_of_magnetic_species", "bulk_modulus", "shear_modulus", "universal_anisotropy", "homogeneous_poisson", "e_total", "e_ionic", "e_electronic", "n", "e_ij_max", "weighted_surface_energy_EV_PER_ANG2", "weighted_surface_energy", "weighted_work_function", "surface_anisotropy", "shape_factor", "has_reconstructed", "possible_species", "has_props", "theoretical", "database_IDs"]}