{"builder_meta": null, "nsites": null, "elements": null, "nelements": null, "composition": null, "composition_reduced": null, "formula_pretty": "TmTe", "formula_anonymous": "AB", "chemsys": null, "volume": 113.22305579058742, "density": 8.697992415945793, "density_atomic": 28.305763947646856, "symmetry": null, "property_name": null, "material_id": "mp-1094027", "deprecated": null, "deprecation_reasons": null, "last_updated": null, "origins": null, "warnings": null, "structure": {"@module": "pymatgen.core.structure", "@class": "Structure", "charge": 0, "lattice": {"matrix": [[-2.1256798, -3.67976508, 0.00013099], [-2.12391881, 3.67874932, -0.00013326], [8.8e-07, 0.00033837, -7.2414717]], "pbc": [true, true, true], "a": 4.249610061320195, "b": 4.247849772370783, "c": 7.241471707905508, "alpha": 89.99588748406015, "beta": 90.00408780956315, "gamma": 119.9864749750048, "volume": 113.22305579058742}, "properties": {}, "sites": [{"species": [{"element": "Tm", "occu": 1}], "abc": [9.17e-06, -1.743e-05, 0.49997671], "properties": {"magmom": -0.0}, "label": "Tm", "xyz": [1.7967400597100003e-05, 7.131307293149999e-05, -3.6205671926002068]}, {"species": [{"element": "Tm", "occu": 1}], "abc": [6.329999999999999e-06, -1.4880000000000002e-05, -1.6250000000000002e-05], "properties": {"magmom": -0.0}, "label": "Tm", "xyz": [1.8148344458800015e-05, -7.80382013505e-05, 0.00011767672720050002]}, {"species": [{"element": "Te", "occu": 1}], "abc": [0.66593378, 0.3330354, 0.75006615], "properties": {"magmom": 0.0}, "label": "Te", "xyz": [-2.122901474681306, -1.2250723180672989, -5.431539947984517]}, {"species": [{"element": "Te", "occu": 1}], "abc": [0.33405071000000003, 0.66699591, 0.24997339000000002], "properties": {"magmom": 0.0}, "label": "Te", "xyz": [-2.126729785888142, 1.224567196244049, -1.8102203560105268]}]}, "task_ids": null, "uncorrected_energy_per_atom": null, "energy_per_atom": -31.676650015, "formation_energy_per_atom": -1.407513714999999, "energy_above_hull": 0.0, "is_stable": true, "equilibrium_reaction_energy_per_atom": null, "decomposes_to": null, "xas": null, "grain_boundaries": null, "band_gap": 0.0, "cbm": null, "vbm": null, "efermi": 6.69991647, "is_gap_direct": null, "is_metal": null, "es_source_calc_id": null, "bandstructure": null, "dos": null, "dos_energy_up": null, "dos_energy_down": null, "is_magnetic": null, "ordering": null, "total_magnetization": 0.0, "total_magnetization_normalized_vol": null, "total_magnetization_normalized_formula_units": null, "num_magnetic_sites": null, "num_unique_magnetic_sites": null, "types_of_magnetic_species": null, "bulk_modulus": null, "shear_modulus": null, "universal_anisotropy": null, "homogeneous_poisson": null, "e_total": null, "e_ionic": null, "e_electronic": null, "n": null, "e_ij_max": null, "weighted_surface_energy_EV_PER_ANG2": null, "weighted_surface_energy": null, "weighted_work_function": null, "surface_anisotropy": null, "shape_factor": null, "has_reconstructed": null, "possible_species": null, "has_props": null, "theoretical": null, "database_IDs": null, "fields_not_requested": ["builder_meta", "nsites", "elements", "nelements", "composition", "composition_reduced", "chemsys", "symmetry", "property_name", "deprecated", "deprecation_reasons", "last_updated", "origins", "warnings", "task_ids", "uncorrected_energy_per_atom", "equilibrium_reaction_energy_per_atom", "decomposes_to", "xas", "grain_boundaries", "cbm", "vbm", "is_gap_direct", "is_metal", "es_source_calc_id", "bandstructure", "dos", "dos_energy_up", "dos_energy_down", "is_magnetic", "ordering", "total_magnetization_normalized_vol", "total_magnetization_normalized_formula_units", "num_magnetic_sites", "num_unique_magnetic_sites", "types_of_magnetic_species", "bulk_modulus", "shear_modulus", "universal_anisotropy", "homogeneous_poisson", "e_total", "e_ionic", "e_electronic", "n", "e_ij_max", "weighted_surface_energy_EV_PER_ANG2", "weighted_surface_energy", "weighted_work_function", "surface_anisotropy", "shape_factor", "has_reconstructed", "possible_species", "has_props", "theoretical", "database_IDs"]}