{"builder_meta": null, "nsites": null, "elements": null, "nelements": null, "composition": null, "composition_reduced": null, "formula_pretty": "TmTe3", "formula_anonymous": "AB3", "chemsys": null, "volume": 243.01119983392746, "density": 7.540197412389207, "density_atomic": 30.376399979240933, "symmetry": null, "property_name": null, "material_id": "mp-1087512", "deprecated": null, "deprecation_reasons": null, "last_updated": null, "origins": null, "warnings": null, "structure": {"@module": "pymatgen.core.structure", "@class": "Structure", "charge": 0, "lattice": {"matrix": [[-4.3081729, -0.00485712, -4e-08], [-5e-08, -1.79e-06, -4.31828046], [2.13969113, -13.05996786, -5.269999999999999e-06]], "pbc": [true, true, true], "a": 4.308175638006081, "b": 4.318280460000372, "c": 13.234086241069363, "alpha": 89.99995385368118, "beta": 99.23984435656823, "gamma": 89.99999877784192, "volume": 243.01119983392746}, "properties": {}, "sites": [{"species": [{"element": "Tm", "occu": 1}], "abc": [0.17308871, 0.75000076, 0.34480852], "properties": {"magmom": 0.0}, "label": "Tm", "xyz": [-0.007912395425569319, -4.504030244190643, -3.238715450957599]}, {"species": [{"element": "Tm", "occu": 1}], "abc": [0.82691117, 0.24999935, 0.65519154], "properties": {"magmom": 0.0}, "label": "Tm", "xyz": [-2.1605687792122197, -8.560797308824771, -1.0795707940535635]}, {"species": [{"element": "Te", "occu": 1}], "abc": [0.9216196400000001, 0.7499995500000001, 0.84644452], "properties": {"magmom": -0.0}, "label": "Te", "xyz": [-2.1593669631746257, -11.059015986158158, -3.2387128994011998]}, {"species": [{"element": "Te", "occu": 1}], "abc": [0.07838052, 0.25000045, 0.15355559], "properties": {"magmom": -0.0}, "label": "Te", "xyz": [-0.009115310767013773, -2.0058122212154452, -1.079572870599387]}, {"species": [{"element": "Te", "occu": 1}], "abc": [0.57783438, 0.75000049, 0.15392733], "properties": {"magmom": -0.0}, "label": "Te", "xyz": [-2.1600535114387434, -2.0130939360002764, -3.23871329526783]}, {"species": [{"element": "Te", "occu": 1}], "abc": [0.42216553, 0.24999949000000002, 0.84607244], "properties": {"magmom": 0.0}, "label": "Te", "xyz": [-0.00842841295465413, -11.05172982976994, -1.0795723883653454]}, {"species": [{"element": "Te", "occu": 1}], "abc": [0.29228205, 0.74999805, 0.585637899999999], "properties": {"magmom": 0.0}, "label": "Te", "xyz": [-0.006117424444522346, -7.649833143085087, -3.2387050223561182]}, {"species": [{"element": "Te", "occu": 1}], "abc": [0.707718, 0.25000187, 0.41436215], "properties": {"magmom": 0.0}, "label": "Te", "xyz": [-2.1623645039795636, -5.414994280156006, -1.0795804021817108]}]}, "task_ids": null, "uncorrected_energy_per_atom": null, "energy_per_atom": -28.82532400625, "formation_energy_per_atom": -0.982143701250002, "energy_above_hull": 0.039395063124999005, "is_stable": false, "equilibrium_reaction_energy_per_atom": null, "decomposes_to": null, "xas": null, "grain_boundaries": null, "band_gap": 0.0, "cbm": null, "vbm": null, "efermi": 5.54636434, "is_gap_direct": null, "is_metal": null, "es_source_calc_id": null, "bandstructure": null, "dos": null, "dos_energy_up": null, "dos_energy_down": null, "is_magnetic": null, "ordering": null, "total_magnetization": 0.0, "total_magnetization_normalized_vol": null, "total_magnetization_normalized_formula_units": null, "num_magnetic_sites": null, "num_unique_magnetic_sites": null, "types_of_magnetic_species": null, "bulk_modulus": null, "shear_modulus": null, "universal_anisotropy": null, "homogeneous_poisson": null, "e_total": null, "e_ionic": null, "e_electronic": null, "n": null, "e_ij_max": null, "weighted_surface_energy_EV_PER_ANG2": null, "weighted_surface_energy": null, "weighted_work_function": null, "surface_anisotropy": null, "shape_factor": null, "has_reconstructed": null, "possible_species": null, "has_props": null, "theoretical": null, "database_IDs": null, "fields_not_requested": ["builder_meta", "nsites", "elements", "nelements", "composition", "composition_reduced", "chemsys", "symmetry", "property_name", "deprecated", "deprecation_reasons", "last_updated", "origins", "warnings", "task_ids", "uncorrected_energy_per_atom", "equilibrium_reaction_energy_per_atom", "decomposes_to", "xas", "grain_boundaries", "cbm", "vbm", "is_gap_direct", "is_metal", "es_source_calc_id", "bandstructure", "dos", "dos_energy_up", "dos_energy_down", "is_magnetic", "ordering", "total_magnetization_normalized_vol", "total_magnetization_normalized_formula_units", "num_magnetic_sites", "num_unique_magnetic_sites", "types_of_magnetic_species", "bulk_modulus", "shear_modulus", "universal_anisotropy", "homogeneous_poisson", "e_total", "e_ionic", "e_electronic", "n", "e_ij_max", "weighted_surface_energy_EV_PER_ANG2", "weighted_surface_energy", "weighted_work_function", "surface_anisotropy", "shape_factor", "has_reconstructed", "possible_species", "has_props", "theoretical", "database_IDs"]}