{
  "builder_meta": null,
  "nsites": null,
  "elements": null,
  "nelements": null,
  "composition": null,
  "composition_reduced": null,
  "formula_pretty": "TmTh3",
  "formula_anonymous": "AB3",
  "chemsys": null,
  "volume": 127.84995137643334,
  "density": 11.235410186938983,
  "density_atomic": 31.962487844108335,
  "symmetry": null,
  "property_name": null,
  "material_id": "mp-980014",
  "deprecated": null,
  "deprecation_reasons": null,
  "last_updated": null,
  "origins": null,
  "warnings": null,
  "structure": {
    "@module": "pymatgen.core.structure",
    "@class": "Structure",
    "charge": 0,
    "lattice": {
      "matrix": [
        [5.03811394, -0.00077092, 0.00075657],
        [-0.00077096, 5.03783894, 0.00107409],
        [0.0007567100000000001, 0.00107525, 5.03719012]
      ],
      "pbc": [true, true, true],
      "a": 5.038114055788945,
      "b": 5.037839113491912,
      "c": 5.037190291600885,
      "alpha": 89.975555112608,
      "beta": 89.98279056856944,
      "gamma": 90.01753362132763,
      "volume": 127.84995137643332
    },
    "properties": {},
    "sites": [
      {
        "species": [{ "element": "Tm", "occu": 1 }],
        "abc": [1.48e-6, 0.99999877, 0.9999976700000001],
        "properties": { "magmom": -0.0 },
        "label": "Tm",
        "xyz": [-6.7944062222997925e-6, 5.03890798981181, 5.038252473145613]
      },
      {
        "species": [{ "element": "Th", "occu": 1 }],
        "abc": [0.999995299999999, 0.50000034, 0.49999802],
        "properties": { "magmom": -0.0 },
        "label": "Th",
        "xyz": [5.038083134104065, 2.518687889359569, 2.519878698172874]
      },
      {
        "species": [{ "element": "Th", "occu": 1 }],
        "abc": [0.50000048, 1.34e-6, 0.50000046],
        "properties": { "magmom": 0.0 },
        "label": "Th",
        "xyz": [2.519437742609691, 0.00015891582875300007, 2.5189756639098895]
      },
      {
        "species": [{ "element": "Th", "occu": 1 }],
        "abc": [0.50000374, 0.49999954, 2.85e-6],
        "properties": { "magmom": -0.0 },
        "label": "Th",
        "xyz": [2.5186903350574004, 2.5185316927753094, 0.0009296883273324]
      }
    ]
  },
  "task_ids": null,
  "uncorrected_energy_per_atom": null,
  "energy_per_atom": -63.8438505825,
  "formation_energy_per_atom": 0.042858102500012006,
  "energy_above_hull": 0.042858102500012006,
  "is_stable": false,
  "equilibrium_reaction_energy_per_atom": null,
  "decomposes_to": null,
  "xas": null,
  "grain_boundaries": null,
  "band_gap": 0.0,
  "cbm": null,
  "vbm": null,
  "efermi": 6.70480065,
  "is_gap_direct": null,
  "is_metal": null,
  "es_source_calc_id": null,
  "bandstructure": null,
  "dos": null,
  "dos_energy_up": null,
  "dos_energy_down": null,
  "is_magnetic": null,
  "ordering": null,
  "total_magnetization": 1e-7,
  "total_magnetization_normalized_vol": null,
  "total_magnetization_normalized_formula_units": null,
  "num_magnetic_sites": null,
  "num_unique_magnetic_sites": null,
  "types_of_magnetic_species": null,
  "bulk_modulus": null,
  "shear_modulus": null,
  "universal_anisotropy": null,
  "homogeneous_poisson": null,
  "e_total": null,
  "e_ionic": null,
  "e_electronic": null,
  "n": null,
  "e_ij_max": null,
  "weighted_surface_energy_EV_PER_ANG2": null,
  "weighted_surface_energy": null,
  "weighted_work_function": null,
  "surface_anisotropy": null,
  "shape_factor": null,
  "has_reconstructed": null,
  "possible_species": null,
  "has_props": null,
  "theoretical": null,
  "database_IDs": null,
  "fields_not_requested": [
    "builder_meta",
    "nsites",
    "elements",
    "nelements",
    "composition",
    "composition_reduced",
    "chemsys",
    "symmetry",
    "property_name",
    "deprecated",
    "deprecation_reasons",
    "last_updated",
    "origins",
    "warnings",
    "task_ids",
    "uncorrected_energy_per_atom",
    "equilibrium_reaction_energy_per_atom",
    "decomposes_to",
    "xas",
    "grain_boundaries",
    "cbm",
    "vbm",
    "is_gap_direct",
    "is_metal",
    "es_source_calc_id",
    "bandstructure",
    "dos",
    "dos_energy_up",
    "dos_energy_down",
    "is_magnetic",
    "ordering",
    "total_magnetization_normalized_vol",
    "total_magnetization_normalized_formula_units",
    "num_magnetic_sites",
    "num_unique_magnetic_sites",
    "types_of_magnetic_species",
    "bulk_modulus",
    "shear_modulus",
    "universal_anisotropy",
    "homogeneous_poisson",
    "e_total",
    "e_ionic",
    "e_electronic",
    "n",
    "e_ij_max",
    "weighted_surface_energy_EV_PER_ANG2",
    "weighted_surface_energy",
    "weighted_work_function",
    "surface_anisotropy",
    "shape_factor",
    "has_reconstructed",
    "possible_species",
    "has_props",
    "theoretical",
    "database_IDs"
  ]
}
