{"builder_meta": null, "nsites": null, "elements": null, "nelements": null, "composition": null, "composition_reduced": null, "formula_pretty": "TmU3", "formula_anonymous": "AB3", "chemsys": null, "volume": 187.8099912916357, "density": 15.614619407749872, "density_atomic": 23.476248911454462, "symmetry": null, "property_name": null, "material_id": "mp-1187774", "deprecated": null, "deprecation_reasons": null, "last_updated": null, "origins": null, "warnings": null, "structure": {"@module": "pymatgen.core.structure", "@class": "Structure", "charge": 0, "lattice": {"matrix": [[6.369303, 0.0, 0.0], [-3.184652, 5.515978, 0.0], [0.0, 0.0, 5.345696]], "pbc": [true, true, true], "a": 6.369303, "b": 6.369303074716102, "c": 5.345696, "alpha": 90.0, "beta": 90.0, "gamma": 120.00000480557219, "volume": 187.8099912916357}, "properties": {}, "sites": [{"species": [{"element": "Tm", "occu": 1}], "abc": [0.333333999999999, 0.666667999999999, 0.75], "properties": {"magmom": 0.082}, "label": "Tm", "xyz": [-3.3333400306645444e-07, 3.6773260213039944, 4.009272]}, {"species": [{"element": "Tm", "occu": 1}], "abc": [0.666667999999999, 0.333333999999999, 0.249999], "properties": {"magmom": 0.082}, "label": "Tm", "xyz": [3.184657702635998, 1.8386630106519946, 1.336418654304]}, {"species": [{"element": "U", "occu": 1}], "abc": [0.14729, 0.294579, 0.249999], "properties": {"magmom": 0.911}, "label": "U", "xyz": [3.0373620001356016e-06, 1.6248912832619997, 1.336418654304]}, {"species": [{"element": "U", "occu": 1}], "abc": [0.705421, 0.8527100000000001, 0.249999], "properties": {"magmom": 0.91}, "label": "U", "xyz": [1.7774554846430002, 4.7035296003800005, 1.336418654304]}, {"species": [{"element": "U", "occu": 1}], "abc": [0.147291, 0.8527100000000001, 0.249999], "properties": {"magmom": 0.916}, "label": "U", "xyz": [-1.7774435987470003, 4.7035296003800005, 1.336418654304]}, {"species": [{"element": "U", "occu": 1}], "abc": [0.8527100000000001, 0.70542, 0.75], "properties": {"magmom": 0.909}, "label": "U", "xyz": [3.184651147290001, 3.89108120076, 4.009272]}, {"species": [{"element": "U", "occu": 1}], "abc": [0.294581, 0.147292, 0.75], "properties": {"magmom": 0.911}, "label": "U", "xyz": [1.407201884659, 0.812459431576, 4.009272]}, {"species": [{"element": "U", "occu": 1}], "abc": [0.852711, 0.147292, 0.75], "properties": {"magmom": 0.917}, "label": "U", "xyz": [4.9621009680490005, 0.812459431576, 4.009272]}]}, "task_ids": null, "uncorrected_energy_per_atom": null, "energy_per_atom": -68.22336338541666, "formation_energy_per_atom": 0.5134261558333291, "energy_above_hull": 0.5134261558333291, "is_stable": false, "equilibrium_reaction_energy_per_atom": null, "decomposes_to": null, "xas": null, "grain_boundaries": null, "band_gap": 0.0, "cbm": null, "vbm": null, "efermi": 10.652547180000001, "is_gap_direct": null, "is_metal": null, "es_source_calc_id": null, "bandstructure": null, "dos": null, "dos_energy_up": null, "dos_energy_down": null, "is_magnetic": null, "ordering": null, "total_magnetization": 5.7699487, "total_magnetization_normalized_vol": null, "total_magnetization_normalized_formula_units": null, "num_magnetic_sites": null, "num_unique_magnetic_sites": null, "types_of_magnetic_species": null, "bulk_modulus": null, "shear_modulus": null, "universal_anisotropy": null, "homogeneous_poisson": null, "e_total": null, "e_ionic": null, "e_electronic": null, "n": null, "e_ij_max": null, "weighted_surface_energy_EV_PER_ANG2": null, "weighted_surface_energy": null, "weighted_work_function": null, "surface_anisotropy": null, "shape_factor": null, "has_reconstructed": null, "possible_species": null, "has_props": null, "theoretical": null, "database_IDs": null, "fields_not_requested": ["builder_meta", "nsites", "elements", "nelements", "composition", "composition_reduced", "chemsys", "symmetry", "property_name", "deprecated", "deprecation_reasons", "last_updated", "origins", "warnings", "task_ids", "uncorrected_energy_per_atom", "equilibrium_reaction_energy_per_atom", "decomposes_to", "xas", "grain_boundaries", "cbm", "vbm", "is_gap_direct", "is_metal", "es_source_calc_id", "bandstructure", "dos", "dos_energy_up", "dos_energy_down", "is_magnetic", "ordering", "total_magnetization_normalized_vol", "total_magnetization_normalized_formula_units", "num_magnetic_sites", "num_unique_magnetic_sites", "types_of_magnetic_species", "bulk_modulus", "shear_modulus", "universal_anisotropy", "homogeneous_poisson", "e_total", "e_ionic", "e_electronic", "n", "e_ij_max", "weighted_surface_energy_EV_PER_ANG2", "weighted_surface_energy", "weighted_work_function", "surface_anisotropy", "shape_factor", "has_reconstructed", "possible_species", "has_props", "theoretical", "database_IDs"]}