{
  "builder_meta": null,
  "nsites": null,
  "elements": null,
  "nelements": null,
  "composition": null,
  "composition_reduced": null,
  "formula_pretty": "TmZn2",
  "formula_anonymous": "AB2",
  "chemsys": null,
  "volume": 113.20613055830893,
  "density": 8.793697877489269,
  "density_atomic": 18.86768842638482,
  "symmetry": null,
  "property_name": null,
  "material_id": "mp-569406",
  "deprecated": null,
  "deprecation_reasons": null,
  "last_updated": null,
  "origins": null,
  "warnings": null,
  "structure": {
    "@module": "pymatgen.core.structure",
    "@class": "Structure",
    "charge": 0,
    "lattice": {
      "matrix": [
        [4.02959425, 0.0, 1.73500138],
        [1.8450397, 5.06969711, 1.26176825],
        [0.00275335, -0.0232394, 5.54053391]
      ],
      "pbc": [true, true, true],
      "a": 4.387238266635967,
      "b": 5.540582947526957,
      "c": 5.5405833319704225,
      "alpha": 77.05253386059672,
      "beta": 66.67673501802224,
      "gamma": 66.67672776468055,
      "volume": 113.20613055830893
    },
    "properties": {},
    "sites": [
      {
        "species": [{ "element": "Tm", "occu": 1 }],
        "abc": [0.47045714, 0.27954286, 0.77954186],
        "properties": { "magmom": 0.0 },
        "label": "Tm",
        "xyz": [2.413665412347218, 1.3990815443618505, 5.488040201987521]
      },
      {
        "species": [{ "element": "Tm", "occu": 1 }],
        "abc": [0.52954186, 0.72045814, 0.22045814],
        "properties": { "magmom": 0.0 },
        "label": "Tm",
        "xyz": [3.463719703098232, 3.647381235335259, 3.049262864779349]
      },
      {
        "species": [{ "element": "Zn", "occu": 1 }],
        "abc": [0.16603865, 0.29097383, 0.37694886],
        "properties": { "magmom": -0.0 },
        "label": "Zn",
        "xyz": [1.2069645294724944, 1.466389119699547, 2.743716768324077]
      },
      {
        "species": [{ "element": "Zn", "occu": 1 }],
        "abc": [0.83396135, 0.12305114, 0.20902617],
        "properties": { "magmom": -0.0 },
        "label": "Zn",
        "xyz": [3.5881356213176647, 0.6189743660651074, 2.7603026976573926]
      },
      {
        "species": [{ "element": "Zn", "occu": 1 }],
        "abc": [0.83396135, 0.70902617, 0.6230511400000001],
        "properties": { "magmom": -0.0 },
        "label": "Zn",
        "xyz": [4.670422770527505, 3.5800685903004523, 5.793586771675923]
      },
      {
        "species": [{ "element": "Zn", "occu": 1 }],
        "abc": [0.16603865, 0.87694886, 0.79097383],
        "properties": { "magmom": -0.0 },
        "label": "Zn",
        "xyz": [2.2892516786823354, 4.427483343934893, 5.777000842342607]
      }
    ]
  },
  "task_ids": null,
  "uncorrected_energy_per_atom": null,
  "energy_per_atom": -18.092542366666667,
  "formation_energy_per_atom": -0.445124533333334,
  "energy_above_hull": 0.0,
  "is_stable": true,
  "equilibrium_reaction_energy_per_atom": null,
  "decomposes_to": null,
  "xas": null,
  "grain_boundaries": null,
  "band_gap": 0.0,
  "cbm": null,
  "vbm": null,
  "efermi": 2.981583,
  "is_gap_direct": null,
  "is_metal": null,
  "es_source_calc_id": null,
  "bandstructure": null,
  "dos": null,
  "dos_energy_up": null,
  "dos_energy_down": null,
  "is_magnetic": null,
  "ordering": null,
  "total_magnetization": 0.0,
  "total_magnetization_normalized_vol": null,
  "total_magnetization_normalized_formula_units": null,
  "num_magnetic_sites": null,
  "num_unique_magnetic_sites": null,
  "types_of_magnetic_species": null,
  "bulk_modulus": null,
  "shear_modulus": null,
  "universal_anisotropy": null,
  "homogeneous_poisson": null,
  "e_total": null,
  "e_ionic": null,
  "e_electronic": null,
  "n": null,
  "e_ij_max": null,
  "weighted_surface_energy_EV_PER_ANG2": null,
  "weighted_surface_energy": null,
  "weighted_work_function": null,
  "surface_anisotropy": null,
  "shape_factor": null,
  "has_reconstructed": null,
  "possible_species": null,
  "has_props": null,
  "theoretical": null,
  "database_IDs": null,
  "fields_not_requested": [
    "builder_meta",
    "nsites",
    "elements",
    "nelements",
    "composition",
    "composition_reduced",
    "chemsys",
    "symmetry",
    "property_name",
    "deprecated",
    "deprecation_reasons",
    "last_updated",
    "origins",
    "warnings",
    "task_ids",
    "uncorrected_energy_per_atom",
    "equilibrium_reaction_energy_per_atom",
    "decomposes_to",
    "xas",
    "grain_boundaries",
    "cbm",
    "vbm",
    "is_gap_direct",
    "is_metal",
    "es_source_calc_id",
    "bandstructure",
    "dos",
    "dos_energy_up",
    "dos_energy_down",
    "is_magnetic",
    "ordering",
    "total_magnetization_normalized_vol",
    "total_magnetization_normalized_formula_units",
    "num_magnetic_sites",
    "num_unique_magnetic_sites",
    "types_of_magnetic_species",
    "bulk_modulus",
    "shear_modulus",
    "universal_anisotropy",
    "homogeneous_poisson",
    "e_total",
    "e_ionic",
    "e_electronic",
    "n",
    "e_ij_max",
    "weighted_surface_energy_EV_PER_ANG2",
    "weighted_surface_energy",
    "weighted_work_function",
    "surface_anisotropy",
    "shape_factor",
    "has_reconstructed",
    "possible_species",
    "has_props",
    "theoretical",
    "database_IDs"
  ]
}
