{
  "builder_meta": null,
  "nsites": null,
  "elements": null,
  "nelements": null,
  "composition": null,
  "composition_reduced": null,
  "formula_pretty": "TmZn3",
  "formula_anonymous": "AB3",
  "chemsys": null,
  "volume": 278.90582609487336,
  "density": 8.69633256934065,
  "density_atomic": 17.431614130929585,
  "symmetry": null,
  "property_name": null,
  "material_id": "mp-1189726",
  "deprecated": null,
  "deprecation_reasons": null,
  "last_updated": null,
  "origins": null,
  "warnings": null,
  "structure": {
    "@module": "pymatgen.core.structure",
    "@class": "Structure",
    "charge": 0,
    "lattice": {
      "matrix": [
        [-0.0, -4.27475184, 1.02e-6],
        [-6.59024117, -0.0, 1.02e-6],
        [1.02e-6, 1.029999999999998e-6, -9.90023197]
      ],
      "pbc": [true, true, true],
      "a": 4.274751840000122,
      "b": 6.590241170000079,
      "c": 9.900231970000107,
      "alpha": 90.00001477097769,
      "beta": 90.00001963230194,
      "gamma": 89.99999999999788,
      "volume": 278.90582609487336
    },
    "properties": {},
    "sites": [
      {
        "species": [{ "element": "Tm", "occu": 1 }],
        "abc": [0.75, 0.22040237000000001, 0.83672245],
        "properties": { "magmom": -0.0 },
        "label": "Tm",
        "xyz": [-1.452503919282674, -3.2060630181758767, -8.28374535969631]
      },
      {
        "species": [{ "element": "Tm", "occu": 1 }],
        "abc": [0.75, 0.72040137, 0.66327655],
        "properties": { "magmom": -0.0 },
        "label": "Tm",
        "xyz": [-4.747618090956322, -3.206063196825154, -6.566590205451906]
      },
      {
        "species": [{ "element": "Tm", "occu": 1 }],
        "abc": [0.25, 0.77960035, 0.16328673],
        "properties": { "magmom": -0.0 },
        "label": "Tm",
        "xyz": [-5.137754156163945, -1.0686877918146682, -1.616575454430401]
      },
      {
        "species": [{ "element": "Tm", "occu": 1 }],
        "abc": [0.25, 0.27960035, 0.33671327],
        "properties": { "magmom": -0.0 },
        "label": "Tm",
        "xyz": [-1.8426333942688742, -1.068687613185332, -3.333538940184885]
      },
      {
        "species": [{ "element": "Zn", "occu": 1 }],
        "abc": [0.75, 0.96317438, 0.39768451],
        "properties": { "magmom": -0.0 },
        "label": "Zn",
        "xyz": [-6.347551047327024, -3.206063470384955, -3.937167152437917]
      },
      {
        "species": [{ "element": "Zn", "occu": 1 }],
        "abc": [0.75, 0.46317538, 0.10231749],
        "properties": { "magmom": -0.0 },
        "label": "Zn",
        "xyz": [-3.0524373538425547, -3.2060637746129856, -1.0129656481492677]
      },
      {
        "species": [{ "element": "Zn", "occu": 1 }],
        "abc": [0.25, 0.03683637, 0.60235036],
        "properties": { "magmom": 0.0 },
        "label": "Zn",
        "xyz": [-0.2427599477299857, -1.0686873395791292, -5.963407998639911]
      },
      {
        "species": [{ "element": "Zn", "occu": 1 }],
        "abc": [0.25, 0.53683437, 0.89764764],
        "properties": { "magmom": 0.0 },
        "label": "Zn",
        "xyz": [-3.53786705104442, -1.068687035422931, -8.886919060751994]
      },
      {
        "species": [{ "element": "Zn", "occu": 1 }],
        "abc": [0.75, 0.58115298, 0.35195946],
        "properties": { "magmom": -0.0 },
        "label": "Zn",
        "xyz": [-3.8299379358655377, -3.2060635174817564, -3.484478940259897]
      },
      {
        "species": [{ "element": "Zn", "occu": 1 }],
        "abc": [0.75, 0.08115198, 0.14804154],
        "properties": { "magmom": -0.0 },
        "label": "Zn",
        "xyz": [-0.5348109686206457, -3.206063727517214, -1.4656447394210144]
      },
      {
        "species": [{ "element": "Zn", "occu": 1 }],
        "abc": [0.25, 0.41885691, 0.6480624500000001],
        "properties": { "magmom": 0.0 },
        "label": "Zn",
        "xyz": [-2.7603673915972857, -1.0686872924956765, -6.415967903812479]
      },
      {
        "species": [{ "element": "Zn", "occu": 1 }],
        "abc": [0.25, 0.91885691, 0.85193655],
        "properties": { "magmom": 0.0 },
        "label": "Zn",
        "xyz": [-6.055487768645704, -1.0686870825053536, -8.434368276487456]
      },
      {
        "species": [{ "element": "Zn", "occu": 1 }],
        "abc": [0.75, 0.28335583000000003, 0.54285955],
        "properties": { "magmom": -0.0 },
        "label": "Zn",
        "xyz": [-1.8673827029087804, -3.2060633208546636, -5.374434418106867]
      },
      {
        "species": [{ "element": "Zn", "occu": 1 }],
        "abc": [0.75, 0.78335283, 0.9571374500000001],
        "properties": { "magmom": -0.0 },
        "label": "Zn",
        "xyz": [-5.162483094621812, -3.2060628941484266, -9.475881218154392]
      },
      {
        "species": [{ "element": "Zn", "occu": 1 }],
        "abc": [0.25, 0.71662281, 0.45720434],
        "properties": { "magmom": 0.0 },
        "label": "Zn",
        "xyz": [-4.722716679474662, -1.06868748907953, -4.526428037735484]
      },
      {
        "species": [{ "element": "Zn", "occu": 1 }],
        "abc": [0.25, 0.21662481, 0.04279666],
        "properties": { "magmom": 0.0 },
        "label": "Zn",
        "xyz": [-1.4276096976528345, -1.0686879159194402, -0.42369638558391404]
      }
    ]
  },
  "task_ids": null,
  "uncorrected_energy_per_atom": null,
  "energy_per_atom": -15.85862225625,
  "formation_energy_per_atom": -0.395408230000001,
  "energy_above_hull": 0.0,
  "is_stable": true,
  "equilibrium_reaction_energy_per_atom": null,
  "decomposes_to": null,
  "xas": null,
  "grain_boundaries": null,
  "band_gap": 0.0,
  "cbm": null,
  "vbm": null,
  "efermi": 2.9515292200000003,
  "is_gap_direct": null,
  "is_metal": null,
  "es_source_calc_id": null,
  "bandstructure": null,
  "dos": null,
  "dos_energy_up": null,
  "dos_energy_down": null,
  "is_magnetic": null,
  "ordering": null,
  "total_magnetization": 0.0,
  "total_magnetization_normalized_vol": null,
  "total_magnetization_normalized_formula_units": null,
  "num_magnetic_sites": null,
  "num_unique_magnetic_sites": null,
  "types_of_magnetic_species": null,
  "bulk_modulus": null,
  "shear_modulus": null,
  "universal_anisotropy": null,
  "homogeneous_poisson": null,
  "e_total": null,
  "e_ionic": null,
  "e_electronic": null,
  "n": null,
  "e_ij_max": null,
  "weighted_surface_energy_EV_PER_ANG2": null,
  "weighted_surface_energy": null,
  "weighted_work_function": null,
  "surface_anisotropy": null,
  "shape_factor": null,
  "has_reconstructed": null,
  "possible_species": null,
  "has_props": null,
  "theoretical": null,
  "database_IDs": null,
  "fields_not_requested": [
    "builder_meta",
    "nsites",
    "elements",
    "nelements",
    "composition",
    "composition_reduced",
    "chemsys",
    "symmetry",
    "property_name",
    "deprecated",
    "deprecation_reasons",
    "last_updated",
    "origins",
    "warnings",
    "task_ids",
    "uncorrected_energy_per_atom",
    "equilibrium_reaction_energy_per_atom",
    "decomposes_to",
    "xas",
    "grain_boundaries",
    "cbm",
    "vbm",
    "is_gap_direct",
    "is_metal",
    "es_source_calc_id",
    "bandstructure",
    "dos",
    "dos_energy_up",
    "dos_energy_down",
    "is_magnetic",
    "ordering",
    "total_magnetization_normalized_vol",
    "total_magnetization_normalized_formula_units",
    "num_magnetic_sites",
    "num_unique_magnetic_sites",
    "types_of_magnetic_species",
    "bulk_modulus",
    "shear_modulus",
    "universal_anisotropy",
    "homogeneous_poisson",
    "e_total",
    "e_ionic",
    "e_electronic",
    "n",
    "e_ij_max",
    "weighted_surface_energy_EV_PER_ANG2",
    "weighted_surface_energy",
    "weighted_work_function",
    "surface_anisotropy",
    "shape_factor",
    "has_reconstructed",
    "possible_species",
    "has_props",
    "theoretical",
    "database_IDs"
  ]
}
