{
  "builder_meta": null,
  "nsites": null,
  "elements": null,
  "nelements": null,
  "composition": null,
  "composition_reduced": null,
  "formula_pretty": "TmZn5",
  "formula_anonymous": "AB5",
  "chemsys": null,
  "volume": 587.2935233982392,
  "density": 8.414118204412071,
  "density_atomic": 16.313708983284425,
  "symmetry": null,
  "property_name": null,
  "material_id": "mp-1199856",
  "deprecated": null,
  "deprecation_reasons": null,
  "last_updated": null,
  "origins": null,
  "warnings": null,
  "structure": {
    "@module": "pymatgen.core.structure",
    "@class": "Structure",
    "charge": 0,
    "lattice": {
      "matrix": [
        [4.36847996, -7.56642982, -0.0],
        [4.36847996, 7.56642982, -0.0],
        [0.0, -0.0, 8.88390406]
      ],
      "pbc": [true, true, true],
      "a": 8.736960420072123,
      "b": 8.736960420072123,
      "c": 8.88390406,
      "alpha": 90.0,
      "beta": 90.0,
      "gamma": 120.00000378672942,
      "volume": 587.2935233982392
    },
    "properties": {},
    "sites": [
      {
        "species": [{ "element": "Tm", "occu": 1 }],
        "abc": [0.19021992000000001, 0.80978008, 0.25],
        "properties": { "magmom": 0.0 },
        "label": "Tm",
        "xyz": [4.36847996, 4.687858469907971, 2.220976015]
      },
      {
        "species": [{ "element": "Tm", "occu": 1 }],
        "abc": [0.19021992000000001, 0.38043884, 0.25],
        "properties": { "magmom": 0.0 },
        "label": "Tm",
        "xyz": [2.49291135705845, 1.439278108616194, 2.220976015]
      },
      {
        "species": [{ "element": "Tm", "occu": 1 }],
        "abc": [0.61956116, 0.80978008, 0.25],
        "properties": { "magmom": 0.0 },
        "label": "Tm",
        "xyz": [6.2440485629415505, 1.439278108616194, 2.220976015]
      },
      {
        "species": [{ "element": "Tm", "occu": 1 }],
        "abc": [0.80978008, 0.19021992000000001, 0.75],
        "properties": { "magmom": 0.0 },
        "label": "Tm",
        "xyz": [4.36847996, -4.687858469907971, 6.662928045000001]
      },
      {
        "species": [{ "element": "Tm", "occu": 1 }],
        "abc": [0.80978008, 0.61956116, 0.75],
        "properties": { "magmom": 0.0 },
        "label": "Tm",
        "xyz": [6.2440485629415505, -1.439278108616194, 6.662928045000001]
      },
      {
        "species": [{ "element": "Tm", "occu": 1 }],
        "abc": [0.38043884, 0.19021992000000001, 0.75],
        "properties": { "magmom": 0.0 },
        "label": "Tm",
        "xyz": [2.49291135705845, -1.439278108616194, 6.662928045000001]
      },
      {
        "species": [{ "element": "Zn", "occu": 1 }],
        "abc": [0.0, 0.0, 0.5],
        "properties": { "magmom": -0.0 },
        "label": "Zn",
        "xyz": [0.0, 0.0, 4.44195203]
      },
      {
        "species": [{ "element": "Zn", "occu": 1 }],
        "abc": [0.0, 0.0, -0.0],
        "properties": { "magmom": -0.0 },
        "label": "Zn",
        "xyz": [0.0, 0.0, 0.0]
      },
      {
        "species": [{ "element": "Zn", "occu": 1 }],
        "abc": [0.333333, 0.666667, 0.48419632],
        "properties": { "magmom": 0.0 },
        "label": "Zn",
        "xyz": [4.36847996, 2.5221483176198802, 4.30155365308506]
      },
      {
        "species": [{ "element": "Zn", "occu": 1 }],
        "abc": [0.666667, 0.333333, 0.51580368],
        "properties": { "magmom": 0.0 },
        "label": "Zn",
        "xyz": [4.36847996, -2.5221483176198802, 4.582350406914941]
      },
      {
        "species": [{ "element": "Zn", "occu": 1 }],
        "abc": [0.666667, 0.333333, 0.98419632],
        "properties": { "magmom": 0.0 },
        "label": "Zn",
        "xyz": [4.36847996, -2.5221483176198802, 8.74350568308506]
      },
      {
        "species": [{ "element": "Zn", "occu": 1 }],
        "abc": [0.333333, 0.666667, 0.01580368],
        "properties": { "magmom": 0.0 },
        "label": "Zn",
        "xyz": [4.36847996, 2.5221483176198802, 0.1403983769149408]
      },
      {
        "species": [{ "element": "Zn", "occu": 1 }],
        "abc": [0.5, 0.5, 0.5],
        "properties": { "magmom": -0.0 },
        "label": "Zn",
        "xyz": [4.36847996, 0.0, 4.44195203]
      },
      {
        "species": [{ "element": "Zn", "occu": 1 }],
        "abc": [0.5, 0.0, 0.5],
        "properties": { "magmom": -0.0 },
        "label": "Zn",
        "xyz": [2.18423998, -3.78321491, 4.44195203]
      },
      {
        "species": [{ "element": "Zn", "occu": 1 }],
        "abc": [0.0, 0.5, 0.5],
        "properties": { "magmom": -0.0 },
        "label": "Zn",
        "xyz": [2.18423998, 3.78321491, 4.44195203]
      },
      {
        "species": [{ "element": "Zn", "occu": 1 }],
        "abc": [0.5, 0.5, -0.0],
        "properties": { "magmom": -0.0 },
        "label": "Zn",
        "xyz": [4.36847996, 0.0, 0.0]
      },
      {
        "species": [{ "element": "Zn", "occu": 1 }],
        "abc": [0.5, 0.0, -0.0],
        "properties": { "magmom": -0.0 },
        "label": "Zn",
        "xyz": [2.18423998, -3.78321491, 0.0]
      },
      {
        "species": [{ "element": "Zn", "occu": 1 }],
        "abc": [0.0, 0.5, -0.0],
        "properties": { "magmom": -0.0 },
        "label": "Zn",
        "xyz": [2.18423998, 3.78321491, 0.0]
      },
      {
        "species": [{ "element": "Zn", "occu": 1 }],
        "abc": [0.56760543, 0.43239457000000003, 0.25],
        "properties": { "magmom": 0.0 },
        "label": "Zn",
        "xyz": [4.36847996, -1.0230634830918444, 2.220976015]
      },
      {
        "species": [{ "element": "Zn", "occu": 1 }],
        "abc": [0.56760543, 0.13521087, 0.25],
        "properties": { "magmom": 0.0 },
        "label": "Zn",
        "xyz": [3.070238922111348, -3.271683092789779, 2.220976015]
      },
      {
        "species": [{ "element": "Zn", "occu": 1 }],
        "abc": [0.86478913, 0.43239457000000003, 0.25],
        "properties": { "magmom": 0.0 },
        "label": "Zn",
        "xyz": [5.666720997888652, -3.271683092789779, 2.220976015]
      },
      {
        "species": [{ "element": "Zn", "occu": 1 }],
        "abc": [0.43239457000000003, 0.56760543, 0.75],
        "properties": { "magmom": 0.0 },
        "label": "Zn",
        "xyz": [4.36847996, 1.0230634830918444, 6.662928045000001]
      },
      {
        "species": [{ "element": "Zn", "occu": 1 }],
        "abc": [0.43239457000000003, 0.86478913, 0.75],
        "properties": { "magmom": 0.0 },
        "label": "Zn",
        "xyz": [5.666720997888652, 3.271683092789779, 6.662928045000001]
      },
      {
        "species": [{ "element": "Zn", "occu": 1 }],
        "abc": [0.13521087, 0.56760543, 0.75],
        "properties": { "magmom": 0.0 },
        "label": "Zn",
        "xyz": [3.070238922111348, 3.271683092789779, 6.662928045000001]
      },
      {
        "species": [{ "element": "Zn", "occu": 1 }],
        "abc": [0.83974667, 0.16025333, 0.40682271000000003],
        "properties": { "magmom": -0.0 },
        "label": "Zn",
        "xyz": [4.36847996, -5.141338670267398, 3.614173925069203]
      },
      {
        "species": [{ "element": "Zn", "occu": 1 }],
        "abc": [0.83974667, 0.67949134, 0.40682271000000003],
        "properties": { "magmom": -0.0 },
        "label": "Zn",
        "xyz": [6.63676080115528, -1.21256070772594, 3.614173925069203]
      },
      {
        "species": [{ "element": "Zn", "occu": 1 }],
        "abc": [0.32050866, 0.16025333, 0.40682271000000003],
        "properties": { "magmom": -0.0 },
        "label": "Zn",
        "xyz": [2.1001991188447207, -1.2125607077259406, 3.614173925069203]
      },
      {
        "species": [{ "element": "Zn", "occu": 1 }],
        "abc": [0.16025333, 0.83974667, 0.59317729],
        "properties": { "magmom": -0.0 },
        "label": "Zn",
        "xyz": [4.36847996, 5.141338670267398, 5.269730134930797]
      },
      {
        "species": [{ "element": "Zn", "occu": 1 }],
        "abc": [0.16025333, 0.32050866, 0.59317729],
        "properties": { "magmom": -0.0 },
        "label": "Zn",
        "xyz": [2.1001991188447207, 1.2125607077259406, 5.269730134930797]
      },
      {
        "species": [{ "element": "Zn", "occu": 1 }],
        "abc": [0.67949134, 0.83974667, 0.59317729],
        "properties": { "magmom": -0.0 },
        "label": "Zn",
        "xyz": [6.63676080115528, 1.21256070772594, 5.269730134930797]
      },
      {
        "species": [{ "element": "Zn", "occu": 1 }],
        "abc": [0.16025333, 0.83974667, 0.90682271],
        "properties": { "magmom": -0.0 },
        "label": "Zn",
        "xyz": [4.36847996, 5.141338670267398, 8.056125955069204]
      },
      {
        "species": [{ "element": "Zn", "occu": 1 }],
        "abc": [0.16025333, 0.32050866, 0.90682271],
        "properties": { "magmom": -0.0 },
        "label": "Zn",
        "xyz": [2.1001991188447207, 1.2125607077259406, 8.056125955069204]
      },
      {
        "species": [{ "element": "Zn", "occu": 1 }],
        "abc": [0.67949134, 0.83974667, 0.90682271],
        "properties": { "magmom": -0.0 },
        "label": "Zn",
        "xyz": [6.63676080115528, 1.21256070772594, 8.056125955069204]
      },
      {
        "species": [{ "element": "Zn", "occu": 1 }],
        "abc": [0.83974667, 0.16025333, 0.09317729],
        "properties": { "magmom": -0.0 },
        "label": "Zn",
        "xyz": [4.36847996, -5.141338670267398, 0.8277781049307974]
      },
      {
        "species": [{ "element": "Zn", "occu": 1 }],
        "abc": [0.83974667, 0.67949134, 0.09317729],
        "properties": { "magmom": -0.0 },
        "label": "Zn",
        "xyz": [6.63676080115528, -1.21256070772594, 0.8277781049307974]
      },
      {
        "species": [{ "element": "Zn", "occu": 1 }],
        "abc": [0.32050866, 0.16025333, 0.09317729],
        "properties": { "magmom": -0.0 },
        "label": "Zn",
        "xyz": [2.1001991188447207, -1.2125607077259406, 0.8277781049307974]
      }
    ]
  },
  "task_ids": null,
  "uncorrected_energy_per_atom": null,
  "energy_per_atom": -13.582165714722223,
  "formation_energy_per_atom": -0.30315549555555704,
  "energy_above_hull": 0.010217234898988,
  "is_stable": false,
  "equilibrium_reaction_energy_per_atom": null,
  "decomposes_to": null,
  "xas": null,
  "grain_boundaries": null,
  "band_gap": 0.0,
  "cbm": null,
  "vbm": null,
  "efermi": 3.06195174,
  "is_gap_direct": null,
  "is_metal": null,
  "es_source_calc_id": null,
  "bandstructure": null,
  "dos": null,
  "dos_energy_up": null,
  "dos_energy_down": null,
  "is_magnetic": null,
  "ordering": null,
  "total_magnetization": 1e-7,
  "total_magnetization_normalized_vol": null,
  "total_magnetization_normalized_formula_units": null,
  "num_magnetic_sites": null,
  "num_unique_magnetic_sites": null,
  "types_of_magnetic_species": null,
  "bulk_modulus": null,
  "shear_modulus": null,
  "universal_anisotropy": null,
  "homogeneous_poisson": null,
  "e_total": null,
  "e_ionic": null,
  "e_electronic": null,
  "n": null,
  "e_ij_max": null,
  "weighted_surface_energy_EV_PER_ANG2": null,
  "weighted_surface_energy": null,
  "weighted_work_function": null,
  "surface_anisotropy": null,
  "shape_factor": null,
  "has_reconstructed": null,
  "possible_species": null,
  "has_props": null,
  "theoretical": null,
  "database_IDs": null,
  "fields_not_requested": [
    "builder_meta",
    "nsites",
    "elements",
    "nelements",
    "composition",
    "composition_reduced",
    "chemsys",
    "symmetry",
    "property_name",
    "deprecated",
    "deprecation_reasons",
    "last_updated",
    "origins",
    "warnings",
    "task_ids",
    "uncorrected_energy_per_atom",
    "equilibrium_reaction_energy_per_atom",
    "decomposes_to",
    "xas",
    "grain_boundaries",
    "cbm",
    "vbm",
    "is_gap_direct",
    "is_metal",
    "es_source_calc_id",
    "bandstructure",
    "dos",
    "dos_energy_up",
    "dos_energy_down",
    "is_magnetic",
    "ordering",
    "total_magnetization_normalized_vol",
    "total_magnetization_normalized_formula_units",
    "num_magnetic_sites",
    "num_unique_magnetic_sites",
    "types_of_magnetic_species",
    "bulk_modulus",
    "shear_modulus",
    "universal_anisotropy",
    "homogeneous_poisson",
    "e_total",
    "e_ionic",
    "e_electronic",
    "n",
    "e_ij_max",
    "weighted_surface_energy_EV_PER_ANG2",
    "weighted_surface_energy",
    "weighted_work_function",
    "surface_anisotropy",
    "shape_factor",
    "has_reconstructed",
    "possible_species",
    "has_props",
    "theoretical",
    "database_IDs"
  ]
}
