{"builder_meta": null, "nsites": null, "elements": null, "nelements": null, "composition": null, "composition_reduced": null, "formula_pretty": "TmZr3", "formula_anonymous": "AB3", "chemsys": null, "volume": 197.97353407104717, "density": 7.424880363665228, "density_atomic": 24.746691758880896, "symmetry": null, "property_name": null, "material_id": "mp-1187712", "deprecated": null, "deprecation_reasons": null, "last_updated": null, "origins": null, "warnings": null, "structure": {"@module": "pymatgen.core.structure", "@class": "Structure", "charge": 0, "lattice": {"matrix": [[3.32040504, -5.75110964, -0.0], [3.32040504, 5.75110964, -0.0], [-0.0, -0.0, 5.18363518]], "pbc": [true, true, true], "a": 6.640809568189584, "b": 6.640809568189584, "c": 5.18363518, "alpha": 90.0, "beta": 90.0, "gamma": 119.99999490105768, "volume": 197.97353407104717}, "properties": {}, "sites": [{"species": [{"element": "Tm", "occu": 1}], "abc": [0.333333, 0.666667, 0.75], "properties": {"magmom": 0.0}, "label": "Tm", "xyz": [3.32040504, 1.91704038073976, 3.8877263849999997]}, {"species": [{"element": "Tm", "occu": 1}], "abc": [0.666667, 0.333333, 0.25], "properties": {"magmom": 0.0}, "label": "Tm", "xyz": [3.32040504, -1.91704038073976, 1.295908795]}, {"species": [{"element": "Zr", "occu": 1}], "abc": [0.16275435, 0.3255087, 0.25], "properties": {"magmom": -0.0}, "label": "Zr", "xyz": [1.621231092065772, 0.936018111236934, 1.295908795]}, {"species": [{"element": "Zr", "occu": 1}], "abc": [0.6744913, 0.8372456500000001, 0.25], "properties": {"magmom": -0.0}, "label": "Zr", "xyz": [5.019578987934228, 0.9360181112369346, 1.295908795]}, {"species": [{"element": "Zr", "occu": 1}], "abc": [0.16275435, 0.8372456500000001, 0.25], "properties": {"magmom": -0.0}, "label": "Zr", "xyz": [3.32040504, 3.8790734175261328, 1.295908795]}, {"species": [{"element": "Zr", "occu": 1}], "abc": [0.8372456500000001, 0.6744913, 0.75], "properties": {"magmom": -0.0}, "label": "Zr", "xyz": [5.019578987934228, -0.9360181112369346, 3.8877263849999997]}, {"species": [{"element": "Zr", "occu": 1}], "abc": [0.3255087, 0.16275435, 0.75], "properties": {"magmom": -0.0}, "label": "Zr", "xyz": [1.621231092065772, -0.936018111236934, 3.8877263849999997]}, {"species": [{"element": "Zr", "occu": 1}], "abc": [0.8372456500000001, 0.16275435, 0.75], "properties": {"magmom": -0.0}, "label": "Zr", "xyz": [3.32040504, -3.8790734175261328, 3.8877263849999997]}]}, "task_ids": null, "uncorrected_energy_per_atom": null, "energy_per_atom": -25.82657384625, "formation_energy_per_atom": 0.016032154999997, "energy_above_hull": 0.016032154999997, "is_stable": false, "equilibrium_reaction_energy_per_atom": null, "decomposes_to": null, "xas": null, "grain_boundaries": null, "band_gap": 0.0, "cbm": null, "vbm": null, "efermi": 3.747566909999999, "is_gap_direct": null, "is_metal": null, "es_source_calc_id": null, "bandstructure": null, "dos": null, "dos_energy_up": null, "dos_energy_down": null, "is_magnetic": null, "ordering": null, "total_magnetization": 1e-07, "total_magnetization_normalized_vol": null, "total_magnetization_normalized_formula_units": null, "num_magnetic_sites": null, "num_unique_magnetic_sites": null, "types_of_magnetic_species": null, "bulk_modulus": null, "shear_modulus": null, "universal_anisotropy": null, "homogeneous_poisson": null, "e_total": null, "e_ionic": null, "e_electronic": null, "n": null, "e_ij_max": null, "weighted_surface_energy_EV_PER_ANG2": null, "weighted_surface_energy": null, "weighted_work_function": null, "surface_anisotropy": null, "shape_factor": null, "has_reconstructed": null, "possible_species": null, "has_props": null, "theoretical": null, "database_IDs": null, "fields_not_requested": ["builder_meta", "nsites", "elements", "nelements", "composition", "composition_reduced", "chemsys", "symmetry", "property_name", "deprecated", "deprecation_reasons", "last_updated", "origins", "warnings", "task_ids", "uncorrected_energy_per_atom", "equilibrium_reaction_energy_per_atom", "decomposes_to", "xas", "grain_boundaries", "cbm", "vbm", "is_gap_direct", "is_metal", "es_source_calc_id", "bandstructure", "dos", "dos_energy_up", "dos_energy_down", "is_magnetic", "ordering", "total_magnetization_normalized_vol", "total_magnetization_normalized_formula_units", "num_magnetic_sites", "num_unique_magnetic_sites", "types_of_magnetic_species", "bulk_modulus", "shear_modulus", "universal_anisotropy", "homogeneous_poisson", "e_total", "e_ionic", "e_electronic", "n", "e_ij_max", "weighted_surface_energy_EV_PER_ANG2", "weighted_surface_energy", "weighted_work_function", "surface_anisotropy", "shape_factor", "has_reconstructed", "possible_species", "has_props", "theoretical", "database_IDs"]}