{
  "builder_meta": null,
  "nsites": null,
  "elements": null,
  "nelements": null,
  "composition": null,
  "composition_reduced": null,
  "formula_pretty": "U2C3",
  "formula_anonymous": "A2B3",
  "chemsys": null,
  "volume": 264.10403635492656,
  "density": 12.878944669051535,
  "density_atomic": 13.205201817746328,
  "symmetry": null,
  "property_name": null,
  "material_id": "mp-2625",
  "deprecated": null,
  "deprecation_reasons": null,
  "last_updated": null,
  "origins": null,
  "warnings": null,
  "structure": {
    "@module": "pymatgen.core.structure",
    "@class": "Structure",
    "charge": 0,
    "lattice": {
      "matrix": [
        [6.60018406, -1e-8, -2.33351752],
        [-3.30009255, 5.71592698, -2.33351752],
        [0.0, 0.0, 7.00055255]
      ],
      "pbc": [true, true, true],
      "a": 7.000552381207146,
      "b": 7.000552556434696,
      "c": 7.00055255,
      "alpha": 109.4712206448074,
      "beta": 109.47122115185383,
      "gamma": 109.47122393688268,
      "volume": 264.10403635492656
    },
    "properties": {},
    "sites": [
      {
        "species": [{ "element": "U", "occu": 1 }],
        "abc": [0.5980408700000001, 0.5980408700000001, 0.5980408700000001],
        "properties": { "magmom": -1.44 },
        "label": "U",
        "xyz": [1.9735895977200137, 3.4183579379952644, 1.3955388418406334]
      },
      {
        "species": [{ "element": "U", "occu": 1 }],
        "abc": [0.40195913, 0.5, 0.0],
        "properties": { "magmom": -1.44 },
        "label": "U",
        "xyz": [1.002957967597468, 2.8579634859804086, -2.1047374321789576]
      },
      {
        "species": [{ "element": "U", "occu": 1 }],
        "abc": [0.5, -0.0, 0.40195913],
        "properties": { "magmom": -1.44 },
        "label": "U",
        "xyz": [3.30009203, -5e-9, 1.6471772525172814]
      },
      {
        "species": [{ "element": "U", "occu": 1 }],
        "abc": [0.0, 0.40195913, 0.5],
        "properties": { "magmom": -1.44 },
        "label": "U",
        "xyz": [-1.3265023303174814, 2.2975690360243273, 2.5622976028210425]
      },
      {
        "species": [{ "element": "U", "occu": 1 }],
        "abc": [0.5, -0.0, 0.90195913],
        "properties": { "magmom": -1.44 },
        "label": "U",
        "xyz": [3.30009203, -5e-9, 5.147453527517282]
      },
      {
        "species": [{ "element": "U", "occu": 1 }],
        "abc": [0.0, 0.90195913, 0.5],
        "properties": { "magmom": -1.44 },
        "label": "U",
        "xyz": [-2.9765486053174817, 5.155532526024327, 1.3955388428210425]
      },
      {
        "species": [{ "element": "U", "occu": 1 }],
        "abc": [0.90195913, 0.5, 0.0],
        "properties": { "magmom": -1.44 },
        "label": "U",
        "xyz": [4.303049997597468, 2.8579634809804086, -3.2714961921789576]
      },
      {
        "species": [{ "element": "U", "occu": 1 }],
        "abc": [0.09804087, 0.09804087, 0.09804087],
        "properties": { "magmom": -1.44 },
        "label": "U",
        "xyz": [0.32354384272001374, 0.5603944529952638, 0.22878008684063372]
      },
      {
        "species": [{ "element": "C", "occu": 1 }],
        "abc": [0.75, 0.78606162, 0.03606162],
        "properties": { "magmom": 0.06 },
        "label": "C",
        "xyz": [2.356061948997069, 4.493070814200508, -3.3319754362214518]
      },
      {
        "species": [{ "element": "C", "occu": 1 }],
        "abc": [0.75, 0.96393838, 0.21393838],
        "properties": { "magmom": 0.06 },
        "label": "C",
        "xyz": [1.769052178502931, 5.509801385799492, -2.5018183662785485]
      },
      {
        "species": [{ "element": "C", "occu": 1 }],
        "abc": [0.28606162, 0.25, 0.53606162],
        "properties": { "magmom": 0.06 },
        "label": "C",
        "xyz": [1.0630362070017774, 1.4289817421393838, 2.5018183587785487]
      },
      {
        "species": [{ "element": "C", "occu": 1 }],
        "abc": [0.53606162, 0.28606162, 0.25],
        "properties": { "magmom": 0.06 },
        "label": "C",
        "xyz": [2.5940755384988465, 1.6351073263398914, -0.1683008466391649]
      },
      {
        "species": [{ "element": "C", "occu": 1 }],
        "abc": [0.21393838, 0.75, 0.96393838],
        "properties": { "magmom": 0.06 },
        "label": "C",
        "xyz": [-1.063036727001777, 4.286945232860616, 4.498734186221451]
      },
      {
        "species": [{ "element": "C", "occu": 1 }],
        "abc": [0.96393838, 0.21393838, 0.75],
        "properties": { "magmom": 0.06 },
        "label": "C",
        "xyz": [5.656154276501153, 1.2228561486601086, 2.5018183566391645]
      },
      {
        "species": [{ "element": "C", "occu": 1 }],
        "abc": [0.25, 0.71393838, 0.46393838],
        "properties": { "magmom": 0.06 },
        "label": "C",
        "xyz": [-0.706016713997069, 4.080819645799492, 0.9984579112214509]
      },
      {
        "species": [{ "element": "C", "occu": 1 }],
        "abc": [0.71393838, 0.46393838, 0.25],
        "properties": { "magmom": 0.06 },
        "label": "C",
        "xyz": [3.1810851240011537, 2.6518378961601083, -0.9984579183608351]
      },
      {
        "species": [{ "element": "C", "occu": 1 }],
        "abc": [0.25, 0.53606162, 0.28606162],
        "properties": { "magmom": 0.06 },
        "label": "C",
        "xyz": [-0.11900694350293106, 3.0640890742005076, 0.16830084127854894]
      },
      {
        "species": [{ "element": "C", "occu": 1 }],
        "abc": [0.46393838, 0.25, 0.71393838],
        "properties": { "magmom": 0.06 },
        "label": "C",
        "xyz": [2.2370555629982225, 1.4289817403606162, 3.331975428721451]
      },
      {
        "species": [{ "element": "C", "occu": 1 }],
        "abc": [0.03606162, 0.75, 0.78606162],
        "properties": { "magmom": 0.06 },
        "label": "C",
        "xyz": [-2.2370560829982225, 4.286945234639384, 3.668577116278549]
      },
      {
        "species": [{ "element": "C", "occu": 1 }],
        "abc": [0.78606162, 0.03606162, 0.75],
        "properties": { "magmom": 0.06 },
        "label": "C",
        "xyz": [5.069144690998846, 0.2061255788398914, 3.3319754283608347]
      }
    ]
  },
  "task_ids": null,
  "uncorrected_energy_per_atom": null,
  "energy_per_atom": -10.1773794285,
  "formation_energy_per_atom": -0.123616128999998,
  "energy_above_hull": 0.0,
  "is_stable": true,
  "equilibrium_reaction_energy_per_atom": null,
  "decomposes_to": null,
  "xas": null,
  "grain_boundaries": null,
  "band_gap": 0.0,
  "cbm": null,
  "vbm": null,
  "efermi": 11.56936032,
  "is_gap_direct": null,
  "is_metal": null,
  "es_source_calc_id": null,
  "bandstructure": null,
  "dos": null,
  "dos_energy_up": null,
  "dos_energy_down": null,
  "is_magnetic": null,
  "ordering": null,
  "total_magnetization": 11.5202049,
  "total_magnetization_normalized_vol": null,
  "total_magnetization_normalized_formula_units": null,
  "num_magnetic_sites": null,
  "num_unique_magnetic_sites": null,
  "types_of_magnetic_species": null,
  "bulk_modulus": null,
  "shear_modulus": null,
  "universal_anisotropy": null,
  "homogeneous_poisson": null,
  "e_total": null,
  "e_ionic": null,
  "e_electronic": null,
  "n": null,
  "e_ij_max": null,
  "weighted_surface_energy_EV_PER_ANG2": null,
  "weighted_surface_energy": null,
  "weighted_work_function": null,
  "surface_anisotropy": null,
  "shape_factor": null,
  "has_reconstructed": null,
  "possible_species": null,
  "has_props": null,
  "theoretical": null,
  "database_IDs": null,
  "fields_not_requested": [
    "builder_meta",
    "nsites",
    "elements",
    "nelements",
    "composition",
    "composition_reduced",
    "chemsys",
    "symmetry",
    "property_name",
    "deprecated",
    "deprecation_reasons",
    "last_updated",
    "origins",
    "warnings",
    "task_ids",
    "uncorrected_energy_per_atom",
    "equilibrium_reaction_energy_per_atom",
    "decomposes_to",
    "xas",
    "grain_boundaries",
    "cbm",
    "vbm",
    "is_gap_direct",
    "is_metal",
    "es_source_calc_id",
    "bandstructure",
    "dos",
    "dos_energy_up",
    "dos_energy_down",
    "is_magnetic",
    "ordering",
    "total_magnetization_normalized_vol",
    "total_magnetization_normalized_formula_units",
    "num_magnetic_sites",
    "num_unique_magnetic_sites",
    "types_of_magnetic_species",
    "bulk_modulus",
    "shear_modulus",
    "universal_anisotropy",
    "homogeneous_poisson",
    "e_total",
    "e_ionic",
    "e_electronic",
    "n",
    "e_ij_max",
    "weighted_surface_energy_EV_PER_ANG2",
    "weighted_surface_energy",
    "weighted_work_function",
    "surface_anisotropy",
    "shape_factor",
    "has_reconstructed",
    "possible_species",
    "has_props",
    "theoretical",
    "database_IDs"
  ]
}
