{
  "builder_meta": null,
  "nsites": null,
  "elements": null,
  "nelements": null,
  "composition": null,
  "composition_reduced": null,
  "formula_pretty": "U2Ge3",
  "formula_anonymous": "A2B3",
  "chemsys": null,
  "volume": 107.8738283588718,
  "density": 10.682640071234001,
  "density_atomic": 21.57476567177436,
  "symmetry": null,
  "property_name": null,
  "material_id": "mp-1216823",
  "deprecated": null,
  "deprecation_reasons": null,
  "last_updated": null,
  "origins": null,
  "warnings": null,
  "structure": {
    "@module": "pymatgen.core.structure",
    "@class": "Structure",
    "charge": 0,
    "lattice": {
      "matrix": [
        [-2.255059, -3.908495, 0.0],
        [-2.258968, 3.910751, 0.0],
        [0.0, 0.0, -6.112476]
      ],
      "pbc": [true, true, true],
      "a": 4.512385650463178,
      "b": 4.516293813407737,
      "c": 6.112476,
      "alpha": 90.0,
      "beta": 90.0,
      "gamma": 120.00459349387614,
      "volume": 107.8738283588718
    },
    "properties": {},
    "sites": [
      {
        "species": [{ "element": "U", "occu": 1 }],
        "abc": [0.999927, 0.999979, 0.030846],
        "properties": { "magmom": 1.98 },
        "label": "U",
        "xyz": [-4.513814942365, 0.0024591943639999947, -0.188545434696]
      },
      {
        "species": [{ "element": "U", "occu": 1 }],
        "abc": [0.999927, 0.999979, 0.469153999999999],
        "properties": { "magmom": 1.98 },
        "label": "U",
        "xyz": [-4.513814942365, 0.0024591943639999947, -2.867692565303994]
      },
      {
        "species": [{ "element": "Ge", "occu": 1 }],
        "abc": [0.333196999999999, 0.666547999999999, 0.75],
        "properties": { "magmom": -0.045 },
        "label": "Ge",
        "xyz": [-2.2570894960869956, 1.3044044490330002, -4.584357]
      },
      {
        "species": [{ "element": "Ge", "occu": 1 }],
        "abc": [0.666967, 0.33365, 0.25],
        "properties": { "magmom": -0.076 },
        "label": "Ge",
        "xyz": [-2.257754609253, -1.3020151135149998, -1.528119]
      },
      {
        "species": [{ "element": "Ge", "occu": 1 }],
        "abc": [0.666482, 0.333144999999999, 0.75],
        "properties": { "magmom": -0.042 },
        "label": "Ge",
        "xyz": [-2.2555201267979976, -1.3020944226950038, -4.584357]
      }
    ]
  },
  "task_ids": null,
  "uncorrected_energy_per_atom": null,
  "energy_per_atom": -40.41663059465001,
  "formation_energy_per_atom": -0.116629396650006,
  "energy_above_hull": 0.24645099674999202,
  "is_stable": false,
  "equilibrium_reaction_energy_per_atom": null,
  "decomposes_to": null,
  "xas": null,
  "grain_boundaries": null,
  "band_gap": 0.0,
  "cbm": null,
  "vbm": null,
  "efermi": 7.71687616,
  "is_gap_direct": null,
  "is_metal": null,
  "es_source_calc_id": null,
  "bandstructure": null,
  "dos": null,
  "dos_energy_up": null,
  "dos_energy_down": null,
  "is_magnetic": null,
  "ordering": null,
  "total_magnetization": 4.0448287,
  "total_magnetization_normalized_vol": null,
  "total_magnetization_normalized_formula_units": null,
  "num_magnetic_sites": null,
  "num_unique_magnetic_sites": null,
  "types_of_magnetic_species": null,
  "bulk_modulus": null,
  "shear_modulus": null,
  "universal_anisotropy": null,
  "homogeneous_poisson": null,
  "e_total": null,
  "e_ionic": null,
  "e_electronic": null,
  "n": null,
  "e_ij_max": null,
  "weighted_surface_energy_EV_PER_ANG2": null,
  "weighted_surface_energy": null,
  "weighted_work_function": null,
  "surface_anisotropy": null,
  "shape_factor": null,
  "has_reconstructed": null,
  "possible_species": null,
  "has_props": null,
  "theoretical": null,
  "database_IDs": null,
  "fields_not_requested": [
    "builder_meta",
    "nsites",
    "elements",
    "nelements",
    "composition",
    "composition_reduced",
    "chemsys",
    "symmetry",
    "property_name",
    "deprecated",
    "deprecation_reasons",
    "last_updated",
    "origins",
    "warnings",
    "task_ids",
    "uncorrected_energy_per_atom",
    "equilibrium_reaction_energy_per_atom",
    "decomposes_to",
    "xas",
    "grain_boundaries",
    "cbm",
    "vbm",
    "is_gap_direct",
    "is_metal",
    "es_source_calc_id",
    "bandstructure",
    "dos",
    "dos_energy_up",
    "dos_energy_down",
    "is_magnetic",
    "ordering",
    "total_magnetization_normalized_vol",
    "total_magnetization_normalized_formula_units",
    "num_magnetic_sites",
    "num_unique_magnetic_sites",
    "types_of_magnetic_species",
    "bulk_modulus",
    "shear_modulus",
    "universal_anisotropy",
    "homogeneous_poisson",
    "e_total",
    "e_ionic",
    "e_electronic",
    "n",
    "e_ij_max",
    "weighted_surface_energy_EV_PER_ANG2",
    "weighted_surface_energy",
    "weighted_work_function",
    "surface_anisotropy",
    "shape_factor",
    "has_reconstructed",
    "possible_species",
    "has_props",
    "theoretical",
    "database_IDs"
  ]
}
