{"builder_meta": null, "nsites": null, "elements": null, "nelements": null, "composition": null, "composition_reduced": null, "formula_pretty": "U2S", "formula_anonymous": "AB2", "chemsys": null, "volume": 319.54462498143283, "density": 5.281001320488406, "density_atomic": 53.257437496905474, "symmetry": null, "property_name": null, "material_id": "mp-1077525", "deprecated": null, "deprecation_reasons": null, "last_updated": null, "origins": null, "warnings": null, "structure": {"@module": "pymatgen.core.structure", "@class": "Structure", "charge": 0, "lattice": {"matrix": [[6.16533, 0.0, 0.0], [1.923598, 6.6222639999999995, 0.0], [2.298732, 2.251523, 7.82652]], "pbc": [true, true, true], "a": 6.16533, "b": 6.895985045756697, "c": 8.462147477901398, "alpha": 70.65328243765171, "beta": 74.23759782228004, "gamma": 73.80277294113952, "volume": 319.54462498143283}, "properties": {}, "sites": [{"species": [{"element": "U", "occu": 1}], "abc": [0.855825, 0.913404, 0.9944949999999991], "properties": {"magmom": 0.638}, "label": "U", "xyz": [9.319543135181997, 8.287930792540998, 7.783435007399993]}, {"species": [{"element": "U", "occu": 1}], "abc": [0.851920999999999, 0.407254, 0.011092], "properties": {"magmom": 0.629}, "label": "U", "xyz": [6.061264614165993, 2.7219173961719996, 0.08681175984]}, {"species": [{"element": "U", "occu": 1}], "abc": [0.148079, 0.592746, 0.988908], "properties": {"magmom": 0.629}, "label": "U", "xyz": [4.326395385834, 6.1518696038280005, 7.739708240160001]}, {"species": [{"element": "U", "occu": 1}], "abc": [0.144175, 0.08659599999999901, 0.005504999999999], "properties": {"magmom": 0.638}, "label": "U", "xyz": [1.0681168648179957, 0.5858562074589911, 0.043084992599992177]}, {"species": [{"element": "S", "occu": 1}], "abc": [0.503173, 0.254535, 0.9868100000000001], "properties": {"magmom": -0.018000000000000002}, "label": "S", "xyz": [5.86026233394, 3.90742337887, 7.723288201200001]}, {"species": [{"element": "S", "occu": 1}], "abc": [0.496826999999999, 0.745464999999999, 0.01319], "properties": {"magmom": -0.018000000000000002}, "label": "S", "xyz": [4.527397666059993, 4.966363621129994, 0.10323179880000001]}]}, "task_ids": null, "uncorrected_energy_per_atom": null, "energy_per_atom": -56.15416940333333, "formation_energy_per_atom": -0.18114529260415602, "energy_above_hull": 0.936079665000008, "is_stable": false, "equilibrium_reaction_energy_per_atom": null, "decomposes_to": null, "xas": null, "grain_boundaries": null, "band_gap": 0.0, "cbm": null, "vbm": null, "efermi": 2.40018556, "is_gap_direct": null, "is_metal": null, "es_source_calc_id": null, "bandstructure": null, "dos": null, "dos_energy_up": null, "dos_energy_down": null, "is_magnetic": null, "ordering": null, "total_magnetization": 2.648435, "total_magnetization_normalized_vol": null, "total_magnetization_normalized_formula_units": null, "num_magnetic_sites": null, "num_unique_magnetic_sites": null, "types_of_magnetic_species": null, "bulk_modulus": null, "shear_modulus": null, "universal_anisotropy": null, "homogeneous_poisson": null, "e_total": null, "e_ionic": null, "e_electronic": null, "n": null, "e_ij_max": null, "weighted_surface_energy_EV_PER_ANG2": null, "weighted_surface_energy": null, "weighted_work_function": null, "surface_anisotropy": null, "shape_factor": null, "has_reconstructed": null, "possible_species": null, "has_props": null, "theoretical": null, "database_IDs": null, "fields_not_requested": ["builder_meta", "nsites", "elements", "nelements", "composition", "composition_reduced", "chemsys", "symmetry", "property_name", "deprecated", "deprecation_reasons", "last_updated", "origins", "warnings", "task_ids", "uncorrected_energy_per_atom", "equilibrium_reaction_energy_per_atom", "decomposes_to", "xas", "grain_boundaries", "cbm", "vbm", "is_gap_direct", "is_metal", "es_source_calc_id", "bandstructure", "dos", "dos_energy_up", "dos_energy_down", "is_magnetic", "ordering", "total_magnetization_normalized_vol", "total_magnetization_normalized_formula_units", "num_magnetic_sites", "num_unique_magnetic_sites", "types_of_magnetic_species", "bulk_modulus", "shear_modulus", "universal_anisotropy", "homogeneous_poisson", "e_total", "e_ionic", "e_electronic", "n", "e_ij_max", "weighted_surface_energy_EV_PER_ANG2", "weighted_surface_energy", "weighted_work_function", "surface_anisotropy", "shape_factor", "has_reconstructed", "possible_species", "has_props", "theoretical", "database_IDs"]}