{
  "builder_meta": null,
  "nsites": null,
  "elements": null,
  "nelements": null,
  "composition": null,
  "composition_reduced": null,
  "formula_pretty": "U2S3",
  "formula_anonymous": "A2B3",
  "chemsys": null,
  "volume": 451.1151135008861,
  "density": 8.425771029550319,
  "density_atomic": 22.555755675044303,
  "symmetry": null,
  "property_name": null,
  "material_id": "mp-22126",
  "deprecated": null,
  "deprecation_reasons": null,
  "last_updated": null,
  "origins": null,
  "warnings": null,
  "structure": {
    "@module": "pymatgen.core.structure",
    "@class": "Structure",
    "charge": 0,
    "lattice": {
      "matrix": [
        [3.90069997, -0.0, 0.0],
        [-0.0, 10.68895098, 0.0],
        [0.0, 0.0, 10.81956362]
      ],
      "pbc": [true, true, true],
      "a": 3.90069997,
      "b": 10.68895098,
      "c": 10.81956362,
      "alpha": 90.0,
      "beta": 90.0,
      "gamma": 90.0,
      "volume": 451.1151135008861
    },
    "properties": {},
    "sites": [
      {
        "species": [{ "element": "U", "occu": 1 }],
        "abc": [0.25, 0.31417129, 0.98888476],
        "properties": { "magmom": 2.658 },
        "label": "U",
        "xyz": [0.9751749925, 3.358161518133364, 10.699301573668432]
      },
      {
        "species": [{ "element": "U", "occu": 1 }],
        "abc": [0.75, 0.68582871, 0.01111524],
        "properties": { "magmom": 2.658 },
        "label": "U",
        "xyz": [2.9255249775, 7.330789461866636, 0.12026204633156881]
      },
      {
        "species": [{ "element": "U", "occu": 1 }],
        "abc": [0.75, 0.81417129, 0.51111524],
        "properties": { "magmom": 2.658 },
        "label": "U",
        "xyz": [2.9255249775, 8.702637008133363, 5.530043856331568]
      },
      {
        "species": [{ "element": "U", "occu": 1 }],
        "abc": [0.25, 0.18582871, 0.48888476000000003],
        "properties": { "magmom": 2.658 },
        "label": "U",
        "xyz": [0.9751749925, 1.9863139718666358, 5.289519763668432]
      },
      {
        "species": [{ "element": "U", "occu": 1 }],
        "abc": [0.25, 0.5100999900000001, 0.30736977],
        "properties": { "magmom": 2.719 },
        "label": "U",
        "xyz": [0.9751749925, 5.4524337880084905, 3.325606781379767]
      },
      {
        "species": [{ "element": "U", "occu": 1 }],
        "abc": [0.75, 0.48990001, 0.69263023],
        "properties": { "magmom": 2.719 },
        "label": "U",
        "xyz": [2.9255249775, 5.23651719199151, 7.493956838620233]
      },
      {
        "species": [{ "element": "U", "occu": 1 }],
        "abc": [0.75, 0.01009999, 0.19263023],
        "properties": { "magmom": 2.719 },
        "label": "U",
        "xyz": [2.9255249775, 0.10795829800849019, 2.084175028620233]
      },
      {
        "species": [{ "element": "U", "occu": 1 }],
        "abc": [0.25, 0.98990001, 0.80736977],
        "properties": { "magmom": 2.719 },
        "label": "U",
        "xyz": [0.9751749925, 10.58099268199151, 8.735388591379767]
      },
      {
        "species": [{ "element": "S", "occu": 1 }],
        "abc": [0.25, 0.87194499, 0.04983646],
        "properties": { "magmom": -0.063 },
        "label": "S",
        "xyz": [0.9751749925, 9.32017725536659, 0.5392087495655852]
      },
      {
        "species": [{ "element": "S", "occu": 1 }],
        "abc": [0.75, 0.12805501, 0.95016354],
        "properties": { "magmom": -0.063 },
        "label": "S",
        "xyz": [2.9255249775, 1.3687737246334097, 10.280354870434415]
      },
      {
        "species": [{ "element": "S", "occu": 1 }],
        "abc": [0.75, 0.37194499000000003, 0.45016354000000003],
        "properties": { "magmom": -0.063 },
        "label": "S",
        "xyz": [2.9255249775, 3.9757017653665905, 4.870573060434415]
      },
      {
        "species": [{ "element": "S", "occu": 1 }],
        "abc": [0.25, 0.62805501, 0.54983646],
        "properties": { "magmom": -0.063 },
        "label": "S",
        "xyz": [0.9751749925, 6.713249214633409, 5.948990559565585]
      },
      {
        "species": [{ "element": "S", "occu": 1 }],
        "abc": [0.25, 0.55312276, 0.87784346],
        "properties": { "magmom": -0.066 },
        "label": "S",
        "xyz": [0.9751749925, 5.9123020675623055, 9.497883163870926]
      },
      {
        "species": [{ "element": "S", "occu": 1 }],
        "abc": [0.75, 0.44687724, 0.12215654000000001],
        "properties": { "magmom": -0.066 },
        "label": "S",
        "xyz": [2.9255249775, 4.776648912437695, 1.321680456129075]
      },
      {
        "species": [{ "element": "S", "occu": 1 }],
        "abc": [0.75, 0.05312276, 0.62215654],
        "properties": { "magmom": -0.066 },
        "label": "S",
        "xyz": [2.9255249775, 0.5678265775623047, 6.731462266129075]
      },
      {
        "species": [{ "element": "S", "occu": 1 }],
        "abc": [0.25, 0.9468772400000001, 0.37784346],
        "properties": { "magmom": -0.066 },
        "label": "S",
        "xyz": [0.9751749925, 10.121124402437696, 4.088101353870925]
      },
      {
        "species": [{ "element": "S", "occu": 1 }],
        "abc": [0.25, 0.20318663, 0.22516994],
        "properties": { "magmom": -0.062 },
        "label": "S",
        "xyz": [0.9751749925, 2.1718519278613972, 2.436240491141583]
      },
      {
        "species": [{ "element": "S", "occu": 1 }],
        "abc": [0.75, 0.79681337, 0.77483006],
        "properties": { "magmom": -0.062 },
        "label": "S",
        "xyz": [2.9255249775, 8.517099052138603, 8.383323128858418]
      },
      {
        "species": [{ "element": "S", "occu": 1 }],
        "abc": [0.75, 0.70318663, 0.27483006],
        "properties": { "magmom": -0.062 },
        "label": "S",
        "xyz": [2.9255249775, 7.5163274178613975, 2.973541318858417]
      },
      {
        "species": [{ "element": "S", "occu": 1 }],
        "abc": [0.25, 0.29681337, 0.72516994],
        "properties": { "magmom": -0.062 },
        "label": "S",
        "xyz": [0.9751749925, 3.1726235621386025, 7.846022301141583]
      }
    ]
  },
  "task_ids": null,
  "uncorrected_energy_per_atom": null,
  "energy_per_atom": -38.717115744,
  "formation_energy_per_atom": -1.919301644687499,
  "energy_above_hull": 0.0,
  "is_stable": true,
  "equilibrium_reaction_energy_per_atom": null,
  "decomposes_to": null,
  "xas": null,
  "grain_boundaries": null,
  "band_gap": 0.0,
  "cbm": null,
  "vbm": null,
  "efermi": 9.513081960000001,
  "is_gap_direct": null,
  "is_metal": null,
  "es_source_calc_id": null,
  "bandstructure": null,
  "dos": null,
  "dos_energy_up": null,
  "dos_energy_down": null,
  "is_magnetic": null,
  "ordering": null,
  "total_magnetization": 23.1800677,
  "total_magnetization_normalized_vol": null,
  "total_magnetization_normalized_formula_units": null,
  "num_magnetic_sites": null,
  "num_unique_magnetic_sites": null,
  "types_of_magnetic_species": null,
  "bulk_modulus": null,
  "shear_modulus": null,
  "universal_anisotropy": null,
  "homogeneous_poisson": null,
  "e_total": null,
  "e_ionic": null,
  "e_electronic": null,
  "n": null,
  "e_ij_max": null,
  "weighted_surface_energy_EV_PER_ANG2": null,
  "weighted_surface_energy": null,
  "weighted_work_function": null,
  "surface_anisotropy": null,
  "shape_factor": null,
  "has_reconstructed": null,
  "possible_species": null,
  "has_props": null,
  "theoretical": null,
  "database_IDs": null,
  "fields_not_requested": [
    "builder_meta",
    "nsites",
    "elements",
    "nelements",
    "composition",
    "composition_reduced",
    "chemsys",
    "symmetry",
    "property_name",
    "deprecated",
    "deprecation_reasons",
    "last_updated",
    "origins",
    "warnings",
    "task_ids",
    "uncorrected_energy_per_atom",
    "equilibrium_reaction_energy_per_atom",
    "decomposes_to",
    "xas",
    "grain_boundaries",
    "cbm",
    "vbm",
    "is_gap_direct",
    "is_metal",
    "es_source_calc_id",
    "bandstructure",
    "dos",
    "dos_energy_up",
    "dos_energy_down",
    "is_magnetic",
    "ordering",
    "total_magnetization_normalized_vol",
    "total_magnetization_normalized_formula_units",
    "num_magnetic_sites",
    "num_unique_magnetic_sites",
    "types_of_magnetic_species",
    "bulk_modulus",
    "shear_modulus",
    "universal_anisotropy",
    "homogeneous_poisson",
    "e_total",
    "e_ionic",
    "e_electronic",
    "n",
    "e_ij_max",
    "weighted_surface_energy_EV_PER_ANG2",
    "weighted_surface_energy",
    "weighted_work_function",
    "surface_anisotropy",
    "shape_factor",
    "has_reconstructed",
    "possible_species",
    "has_props",
    "theoretical",
    "database_IDs"
  ]
}
