{"builder_meta": null, "nsites": null, "elements": null, "nelements": null, "composition": null, "composition_reduced": null, "formula_pretty": "U2Se3", "formula_anonymous": "A2B3", "chemsys": null, "volume": 514.4049279635711, "density": 9.205674656759717, "density_atomic": 25.720246398178556, "symmetry": null, "property_name": null, "material_id": "mp-600216", "deprecated": null, "deprecation_reasons": null, "last_updated": null, "origins": null, "warnings": null, "structure": {"@module": "pymatgen.core.structure", "@class": "Structure", "charge": 0, "lattice": {"matrix": [[4.06697057, 0.0, 0.0], [0.0, 11.13612023, 0.0], [0.0, 0.0, 11.35795594]], "pbc": [true, true, true], "a": 4.06697057, "b": 11.13612023, "c": 11.35795594, "alpha": 90.0, "beta": 90.0, "gamma": 90.0, "volume": 514.4049279635711}, "properties": {}, "sites": [{"species": [{"element": "U", "occu": 1}], "abc": [0.75, 0.81500471, 0.48690164], "properties": {"magmom": -1.216}, "label": "U", "xyz": [3.0502279275, 9.075990438576282, 5.530207374233742]}, {"species": [{"element": "U", "occu": 1}], "abc": [0.75, 0.49540623, 0.30847449], "properties": {"magmom": 2.81}, "label": "U", "xyz": [3.0502279275, 5.516903339971033, 3.5036396660339704]}, {"species": [{"element": "U", "occu": 1}], "abc": [0.25, 0.9954062300000001, 0.19152551], "properties": {"magmom": 2.81}, "label": "U", "xyz": [1.0167426425, 11.084963454971033, 2.1753383039660297]}, {"species": [{"element": "U", "occu": 1}], "abc": [0.75, 0.0045937700000000005, 0.80847449], "properties": {"magmom": 2.81}, "label": "U", "xyz": [3.0502279275, 0.0511567750289671, 9.18261763603397]}, {"species": [{"element": "U", "occu": 1}], "abc": [0.25, 0.31500471, 0.01309836], "properties": {"magmom": -1.216}, "label": "U", "xyz": [1.0167426425, 3.5079303235762835, 0.1487705957662584]}, {"species": [{"element": "U", "occu": 1}], "abc": [0.75, 0.68499529, 0.98690164], "properties": {"magmom": -1.216}, "label": "U", "xyz": [3.0502279275, 7.628189906423716, 11.209185344233742]}, {"species": [{"element": "U", "occu": 1}], "abc": [0.25, 0.50459377, 0.6915255100000001], "properties": {"magmom": 2.81}, "label": "U", "xyz": [1.0167426425, 5.619216890028968, 7.85431627396603]}, {"species": [{"element": "U", "occu": 1}], "abc": [0.25, 0.18499529, 0.51309836], "properties": {"magmom": -1.216}, "label": "U", "xyz": [1.0167426425, 2.0601297914237167, 5.827748565766258]}, {"species": [{"element": "Se", "occu": 1}], "abc": [0.25, 0.55540543, 0.11959361], "properties": {"magmom": -0.003}, "label": "Se", "xyz": [1.0167426425, 6.185061644874849, 1.3583389530855434]}, {"species": [{"element": "Se", "occu": 1}], "abc": [0.75, 0.37080542, 0.54736108], "properties": {"magmom": -0.024}, "label": "Se", "xyz": [3.0502279275, 4.129333739055647, 6.2169030299108154]}, {"species": [{"element": "Se", "occu": 1}], "abc": [0.25, 0.6291945800000001, 0.45263892], "properties": {"magmom": -0.024}, "label": "Se", "xyz": [1.0167426425, 7.006786490944354, 5.141052910089185]}, {"species": [{"element": "Se", "occu": 1}], "abc": [0.25, 0.29793535, 0.27245839], "properties": {"magmom": -0.018000000000000002}, "label": "Se", "xyz": [1.0167426425, 3.31784387836713, 3.0945703891033367]}, {"species": [{"element": "Se", "occu": 1}], "abc": [0.25, 0.20206465, 0.77245839], "properties": {"magmom": -0.018000000000000002}, "label": "Se", "xyz": [1.0167426425, 2.2502162366328697, 8.773548359103337]}, {"species": [{"element": "Se", "occu": 1}], "abc": [0.75, 0.12919458, 0.04736108], "properties": {"magmom": -0.024}, "label": "Se", "xyz": [3.0502279275, 1.4387263759443534, 0.5379250599108152]}, {"species": [{"element": "Se", "occu": 1}], "abc": [0.75, 0.7020646500000001, 0.7275416100000001], "properties": {"magmom": -0.018000000000000002}, "label": "Se", "xyz": [3.0502279275, 7.8182763516328695, 8.263385550896665]}, {"species": [{"element": "Se", "occu": 1}], "abc": [0.25, 0.87080542, 0.9526389200000001], "properties": {"magmom": -0.024}, "label": "Se", "xyz": [1.0167426425, 9.697393854055647, 10.820030880089185]}, {"species": [{"element": "Se", "occu": 1}], "abc": [0.75, 0.79793535, 0.22754161], "properties": {"magmom": -0.018000000000000002}, "label": "Se", "xyz": [3.0502279275, 8.88590399336713, 2.5844075808966633]}, {"species": [{"element": "Se", "occu": 1}], "abc": [0.75, 0.05540543, 0.38040639], "properties": {"magmom": -0.003}, "label": "Se", "xyz": [3.0502279275, 0.6170015298748489, 4.320639016914456]}, {"species": [{"element": "Se", "occu": 1}], "abc": [0.75, 0.44459457, 0.88040639], "properties": {"magmom": -0.003}, "label": "Se", "xyz": [3.0502279275, 4.951058585125151, 9.999616986914457]}, {"species": [{"element": "Se", "occu": 1}], "abc": [0.25, 0.94459457, 0.61959361], "properties": {"magmom": -0.003}, "label": "Se", "xyz": [1.0167426425, 10.519118700125151, 7.037316923085544]}]}, "task_ids": null, "uncorrected_energy_per_atom": null, "energy_per_atom": -8.073641568999994, "formation_energy_per_atom": -1.459530678406241, "energy_above_hull": 0.0, "is_stable": true, "equilibrium_reaction_energy_per_atom": null, "decomposes_to": null, "xas": null, "grain_boundaries": null, "band_gap": 0.0, "cbm": null, "vbm": null, "efermi": 7.99491723, "is_gap_direct": null, "is_metal": null, "es_source_calc_id": null, "bandstructure": null, "dos": null, "dos_energy_up": null, "dos_energy_down": null, "is_magnetic": null, "ordering": null, "total_magnetization": 7.2475213, "total_magnetization_normalized_vol": null, "total_magnetization_normalized_formula_units": null, "num_magnetic_sites": null, "num_unique_magnetic_sites": null, "types_of_magnetic_species": null, "bulk_modulus": null, "shear_modulus": null, "universal_anisotropy": null, "homogeneous_poisson": null, "e_total": null, "e_ionic": null, "e_electronic": null, "n": null, "e_ij_max": null, "weighted_surface_energy_EV_PER_ANG2": null, "weighted_surface_energy": null, "weighted_work_function": null, "surface_anisotropy": null, "shape_factor": null, "has_reconstructed": null, "possible_species": null, "has_props": null, "theoretical": null, "database_IDs": null, "fields_not_requested": ["builder_meta", "nsites", "elements", "nelements", "composition", "composition_reduced", "chemsys", "symmetry", "property_name", "deprecated", "deprecation_reasons", "last_updated", "origins", "warnings", "task_ids", "uncorrected_energy_per_atom", "equilibrium_reaction_energy_per_atom", "decomposes_to", "xas", "grain_boundaries", "cbm", "vbm", "is_gap_direct", "is_metal", "es_source_calc_id", "bandstructure", "dos", "dos_energy_up", "dos_energy_down", "is_magnetic", "ordering", "total_magnetization_normalized_vol", "total_magnetization_normalized_formula_units", "num_magnetic_sites", "num_unique_magnetic_sites", "types_of_magnetic_species", "bulk_modulus", "shear_modulus", "universal_anisotropy", "homogeneous_poisson", "e_total", "e_ionic", "e_electronic", "n", "e_ij_max", "weighted_surface_energy_EV_PER_ANG2", "weighted_surface_energy", "weighted_work_function", "surface_anisotropy", "shape_factor", "has_reconstructed", "possible_species", "has_props", "theoretical", "database_IDs"]}