{"builder_meta": null, "nsites": null, "elements": null, "nelements": null, "composition": null, "composition_reduced": null, "formula_pretty": "U2Tc", "formula_anonymous": "AB2", "chemsys": null, "volume": 113.00743915872494, "density": 16.870490008332055, "density_atomic": 18.83457319312082, "symmetry": null, "property_name": null, "material_id": "mp-1206509", "deprecated": null, "deprecation_reasons": null, "last_updated": null, "origins": null, "warnings": null, "structure": {"@module": "pymatgen.core.structure", "@class": "Structure", "charge": 0, "lattice": {"matrix": [[0.0, 3.047556, 0.0], [0.271557999999999, 0.0, 4.906835], [7.5345569999999995, -1.523778, -0.40693]], "pbc": [true, true, true], "a": 3.047556, "b": 4.914343645349702, "c": 7.697859481988028, "alpha": 89.92528531503132, "beta": 101.41700527700945, "gamma": 90.0, "volume": 113.00743915872492}, "properties": {}, "sites": [{"species": [{"element": "U", "occu": 1}], "abc": [0.168646, 0.500217999999999, 0.337292], "properties": {"magmom": -0.004}, "label": "U", "xyz": [2.677183999287999, 0.0, 2.3172329564699954]}, {"species": [{"element": "U", "occu": 1}], "abc": [0.831353999999999, 0.499782, 0.662708], "properties": {"magmom": -0.003}, "label": "U", "xyz": [5.128931000711998, 1.5237779999999972, 2.18267204353]}, {"species": [{"element": "U", "occu": 1}], "abc": [0.5, 0.5, 0.0], "properties": {"magmom": 0.045}, "label": "U", "xyz": [0.1357789999999995, 1.523778, 2.4534175]}, {"species": [{"element": "U", "occu": 1}], "abc": [0.0, 0.0, 0.0], "properties": {"magmom": 0.171}, "label": "U", "xyz": [0.0, 0.0, 0.0]}, {"species": [{"element": "Tc", "occu": 1}], "abc": [0.32442000000000004, 0.999659, 0.648841], "properties": {"magmom": 0.002}, "label": "Tc", "xyz": [5.160194897158998, -1.523777999890008e-06, 4.641128901135]}, {"species": [{"element": "Tc", "occu": 1}], "abc": [0.6755800000000001, 0.000341, 0.351159], "properties": {"magmom": 0.002}, "label": "Tc", "xyz": [2.6459201028409995, 1.5237795237780003, -0.141223901135]}]}, "task_ids": null, "uncorrected_energy_per_atom": null, "energy_per_atom": -61.91008984166668, "formation_energy_per_atom": 0.039488591666649, "energy_above_hull": 0.03948859166666, "is_stable": false, "equilibrium_reaction_energy_per_atom": null, "decomposes_to": null, "xas": null, "grain_boundaries": null, "band_gap": 0.0, "cbm": null, "vbm": null, "efermi": 12.81327145, "is_gap_direct": null, "is_metal": null, "es_source_calc_id": null, "bandstructure": null, "dos": null, "dos_energy_up": null, "dos_energy_down": null, "is_magnetic": null, "ordering": null, "total_magnetization": 0.2255988, "total_magnetization_normalized_vol": null, "total_magnetization_normalized_formula_units": null, "num_magnetic_sites": null, "num_unique_magnetic_sites": null, "types_of_magnetic_species": null, "bulk_modulus": null, "shear_modulus": null, "universal_anisotropy": null, "homogeneous_poisson": null, "e_total": null, "e_ionic": null, "e_electronic": null, "n": null, "e_ij_max": null, "weighted_surface_energy_EV_PER_ANG2": null, "weighted_surface_energy": null, "weighted_work_function": null, "surface_anisotropy": null, "shape_factor": null, "has_reconstructed": null, "possible_species": null, "has_props": null, "theoretical": null, "database_IDs": null, "fields_not_requested": ["builder_meta", "nsites", "elements", "nelements", "composition", "composition_reduced", "chemsys", "symmetry", "property_name", "deprecated", "deprecation_reasons", "last_updated", "origins", "warnings", "task_ids", "uncorrected_energy_per_atom", "equilibrium_reaction_energy_per_atom", "decomposes_to", "xas", "grain_boundaries", "cbm", "vbm", "is_gap_direct", "is_metal", "es_source_calc_id", "bandstructure", "dos", "dos_energy_up", "dos_energy_down", "is_magnetic", "ordering", "total_magnetization_normalized_vol", "total_magnetization_normalized_formula_units", "num_magnetic_sites", "num_unique_magnetic_sites", "types_of_magnetic_species", "bulk_modulus", "shear_modulus", "universal_anisotropy", "homogeneous_poisson", "e_total", "e_ionic", "e_electronic", "n", "e_ij_max", "weighted_surface_energy_EV_PER_ANG2", "weighted_surface_energy", "weighted_work_function", "surface_anisotropy", "shape_factor", "has_reconstructed", "possible_species", "has_props", "theoretical", "database_IDs"]}