{"builder_meta": null, "nsites": null, "elements": null, "nelements": null, "composition": null, "composition_reduced": null, "formula_pretty": "U2Te3", "formula_anonymous": "A2B3", "chemsys": null, "volume": 647.6030601580334, "density": 8.80889576041772, "density_atomic": 32.38015300790167, "symmetry": null, "property_name": null, "material_id": "mp-619501", "deprecated": null, "deprecation_reasons": null, "last_updated": null, "origins": null, "warnings": null, "structure": {"@module": "pymatgen.core.structure", "@class": "Structure", "charge": 0, "lattice": {"matrix": [[4.39985621, -0.01194069, 0.0068839], [0.03011815, 12.03884121, -0.01964778], [-0.01992164, -0.00322225, 12.22592865]], "pbc": [true, true, true], "a": 4.3998777979430805, "b": 12.03889491680248, "c": 12.225945305354763, "alpha": 90.10884237307971, "beta": 90.0036765956286, "gamma": 90.01230054673259, "volume": 647.6030601580334}, "properties": {}, "sites": [{"species": [{"element": "U", "occu": 1}], "abc": [0.25134931, 0.31276861, 0.01248229], "properties": {"magmom": -2.8200000000000003}, "label": "U", "xyz": [1.115072166706231, 3.7623301260110416, 0.1481926416035317]}, {"species": [{"element": "U", "occu": 1}], "abc": [0.25240108, 0.5043084800000001, 0.69465064], "properties": {"magmom": -2.855}, "label": "U", "xyz": [1.1118787177197693, 6.066037530499776, 8.484578123044273]}, {"species": [{"element": "U", "occu": 1}], "abc": [0.25274506, 0.18745062, 0.51315096], "properties": {"magmom": -2.826}, "label": "U", "xyz": [1.1074647789878016, 2.2520167978046985, 6.271803906814915]}, {"species": [{"element": "U", "occu": 1}], "abc": [0.74939321, 0.00203928, 0.80463549], "properties": {"magmom": -2.836999999999999}, "label": "U", "xyz": [3.2812541295282625, 0.013009559386361398, 9.842534770591309]}, {"species": [{"element": "U", "occu": 1}], "abc": [0.24912768000000002, 0.99828465, 0.19566139], "properties": {"magmom": -2.822}, "label": "U", "xyz": [1.1222945609888109, 12.0145851574192, 2.3742430865555986]}, {"species": [{"element": "U", "occu": 1}], "abc": [0.74733776, 0.81307026, 0.48644166], "properties": {"magmom": 2.777}, "label": "U", "xyz": [3.302976140723186, 9.777932587557027, 5.9363706003606]}, {"species": [{"element": "U", "occu": 1}], "abc": [0.7498074, 0.49581647, 0.30476212], "properties": {"magmom": -2.842}, "label": "U", "xyz": [3.307906458769608, 5.959120514168452, 3.721419840580662]}, {"species": [{"element": "U", "occu": 1}], "abc": [0.75225005, 0.6868723800000001, 0.98786641], "properties": {"magmom": -2.824}, "label": "U", "xyz": [3.3107994603488953, 8.256981977165623, 12.069267141100525]}, {"species": [{"element": "Te", "occu": 1}], "abc": [0.25048258, 0.55450007, 0.12072872], "properties": {"magmom": 0.062}, "label": "Te", "xyz": [1.1163827372955917, 6.672158340707685, 1.4668503183729453]}, {"species": [{"element": "Te", "occu": 1}], "abc": [0.24802992000000001, 0.94492413, 0.62048216], "properties": {"magmom": 0.016}, "label": "Te", "xyz": [1.1073943282458205, 11.370830559541892, 7.569112368501241]}, {"species": [{"element": "Te", "occu": 1}], "abc": [0.75222592, 0.70059538, 0.72615896], "properties": {"magmom": 0.042}, "label": "Te", "xyz": [3.316320244795216, 8.423034570050065, 8.869380737633637]}, {"species": [{"element": "Te", "occu": 1}], "abc": [0.24953178, 0.62540797, 0.45207295000000003], "properties": {"magmom": 0.015}, "label": "Te", "xyz": [1.1077340483133715, 7.524750968605178, 5.516441504910554]}, {"species": [{"element": "Te", "occu": 1}], "abc": [0.24685766, 0.19774292000000002, 0.77479586], "properties": {"magmom": 0.068}, "label": "Te", "xyz": [1.0766586550666564, 2.375151377529663, 9.470413036732344]}, {"species": [{"element": "Te", "occu": 1}], "abc": [0.25118971, 0.8735228700000001, 0.9531999], "properties": {"magmom": 0.069}, "label": "Te", "xyz": [1.1125181930028536, 10.510132298397398, 11.638320346257077]}, {"species": [{"element": "Te", "occu": 1}], "abc": [0.7488703800000001, 0.80129519, 0.22627131], "properties": {"magmom": 0.041}, "label": "Te", "xyz": [3.31454782507461, 9.636994422960372, 2.7557883688027354]}, {"species": [{"element": "Te", "occu": 1}], "abc": [0.75124868, 0.05513205, 0.37914497], "properties": {"magmom": 0.039}, "label": "Te", "xyz": [3.2994934557038595, 0.6535338680514087, 4.639487649625294]}, {"species": [{"element": "Te", "occu": 1}], "abc": [0.75152739, 0.37449441, 0.54733419], "properties": {"magmom": 0.068}, "label": "Te", "xyz": [3.3069877379982624, 4.49774133283841, 6.689484210266656]}, {"species": [{"element": "Te", "occu": 1}], "abc": [0.749292699999999, 0.12605141, 0.04717629], "properties": {"magmom": 0.07200000000000001}, "label": "Te", "xyz": [3.2996367454108384, 1.5084138236361906, 0.5794553811568687]}, {"species": [{"element": "Te", "occu": 1}], "abc": [0.7498319, 0.44570844, 0.87912277], "properties": {"magmom": 0.061}, "label": "Te", "xyz": [3.2950628879835424, 5.354026871501168, 10.744496847053508]}, {"species": [{"element": "Te", "occu": 1}], "abc": [0.24649984, 0.30001541, 0.27386094], "properties": {"magmom": 0.069}, "label": "Te", "xyz": [1.0881440018519564, 3.608012054954641, 3.344006555938217]}]}, "task_ids": null, "uncorrected_energy_per_atom": null, "energy_per_atom": -48.391623031, "formation_energy_per_atom": -1.164473794999998, "energy_above_hull": 0.0, "is_stable": true, "equilibrium_reaction_energy_per_atom": null, "decomposes_to": null, "xas": null, "grain_boundaries": null, "band_gap": 0.0, "cbm": null, "vbm": null, "efermi": 8.62800099, "is_gap_direct": null, "is_metal": null, "es_source_calc_id": null, "bandstructure": null, "dos": null, "dos_energy_up": null, "dos_energy_down": null, "is_magnetic": null, "ordering": null, "total_magnetization": 17.9493546, "total_magnetization_normalized_vol": null, "total_magnetization_normalized_formula_units": null, "num_magnetic_sites": null, "num_unique_magnetic_sites": null, "types_of_magnetic_species": null, "bulk_modulus": null, "shear_modulus": null, "universal_anisotropy": null, "homogeneous_poisson": null, "e_total": null, "e_ionic": null, "e_electronic": null, "n": null, "e_ij_max": null, "weighted_surface_energy_EV_PER_ANG2": null, "weighted_surface_energy": null, "weighted_work_function": null, "surface_anisotropy": null, "shape_factor": null, "has_reconstructed": null, "possible_species": null, "has_props": null, "theoretical": null, "database_IDs": null, "fields_not_requested": ["builder_meta", "nsites", "elements", "nelements", "composition", "composition_reduced", "chemsys", "symmetry", "property_name", "deprecated", "deprecation_reasons", "last_updated", "origins", "warnings", "task_ids", "uncorrected_energy_per_atom", "equilibrium_reaction_energy_per_atom", "decomposes_to", "xas", "grain_boundaries", "cbm", "vbm", "is_gap_direct", "is_metal", "es_source_calc_id", "bandstructure", "dos", "dos_energy_up", "dos_energy_down", "is_magnetic", "ordering", "total_magnetization_normalized_vol", "total_magnetization_normalized_formula_units", "num_magnetic_sites", "num_unique_magnetic_sites", "types_of_magnetic_species", "bulk_modulus", "shear_modulus", "universal_anisotropy", "homogeneous_poisson", "e_total", "e_ionic", "e_electronic", "n", "e_ij_max", "weighted_surface_energy_EV_PER_ANG2", "weighted_surface_energy", "weighted_work_function", "surface_anisotropy", "shape_factor", "has_reconstructed", "possible_species", "has_props", "theoretical", "database_IDs"]}