{"builder_meta": null, "nsites": null, "elements": null, "nelements": null, "composition": null, "composition_reduced": null, "formula_pretty": "U2Te5", "formula_anonymous": "A2B5", "chemsys": null, "volume": 441.22834522837235, "density": 8.38539297199383, "density_atomic": 31.516310373455166, "symmetry": null, "property_name": null, "material_id": "mp-573810", "deprecated": null, "deprecation_reasons": null, "last_updated": null, "origins": null, "warnings": null, "structure": {"@module": "pymatgen.core.structure", "@class": "Structure", "charge": 0, "lattice": {"matrix": [[2.091342, 17.331728, 0.0], [-2.091342, 17.331728, 0.0], [0.0, 0.541308, 6.086484]], "pbc": [true, true, true], "a": 17.457448462674837, "b": 17.457448462674837, "c": 6.110507493909159, "alpha": 84.95440531158052, "beta": 84.95440531158052, "gamma": 13.76072145798075, "volume": 441.22834522837235}, "properties": {}, "sites": [{"species": [{"element": "U", "occu": 1}], "abc": [0.850471, 0.850471, 0.581056], "properties": {"magmom": 1.996999999999999}, "label": "U", "xyz": [0.0, 29.794794349023995, 3.536588047104]}, {"species": [{"element": "U", "occu": 1}], "abc": [0.149529, 0.149529, 0.418944], "properties": {"magmom": 1.996999999999999}, "label": "U", "xyz": [0.0, 5.409969650976, 2.5498959528959997]}, {"species": [{"element": "U", "occu": 1}], "abc": [0.555331999999999, 0.555331999999999, 0.972471], "properties": {"magmom": 2.355}, "label": "U", "xyz": [0.0, 19.776132679459966, 5.918929181964]}, {"species": [{"element": "U", "occu": 1}], "abc": [0.444667999999999, 0.444667999999999, 0.027528999999999002], "properties": {"magmom": 2.355}, "label": "U", "xyz": [0.0, 15.428631320539964, 0.16755481803599392]}, {"species": [{"element": "Te", "occu": 1}], "abc": [0.120523999999999, 0.120523999999999, 0.936187999999999], "properties": {"magmom": -0.1}, "label": "Te", "xyz": [0.0, 4.684544424847965, 5.6980932829919935]}, {"species": [{"element": "Te", "occu": 1}], "abc": [0.879475999999999, 0.879475999999999, 0.063812], "properties": {"magmom": -0.1}, "label": "Te", "xyz": [0.0, 30.520219575151962, 0.38839071700799993]}, {"species": [{"element": "Te", "occu": 1}], "abc": [0.70025, 0.70025, 0.639965999999999], "properties": {"magmom": -0.075}, "label": "Te", "xyz": [0.0, 24.619503779528, 3.895142819543994]}, {"species": [{"element": "Te", "occu": 1}], "abc": [0.29975, 0.29975, 0.360033999999999], "properties": {"magmom": -0.075}, "label": "Te", "xyz": [0.0, 10.585260220472, 2.1913411804559937]}, {"species": [{"element": "Te", "occu": 1}], "abc": [0.299276, 0.299276, 0.848187999999999], "properties": {"magmom": -0.079}, "label": "Te", "xyz": [0.0, 10.833071407759997, 5.162482690991994]}, {"species": [{"element": "Te", "occu": 1}], "abc": [0.00029, 0.00029, 0.250038], "properties": {"magmom": -0.061}, "label": "Te", "xyz": [0.0, 0.145399971944, 1.5218522863919999]}, {"species": [{"element": "Te", "occu": 1}], "abc": [0.417757, 0.417757, 0.542319], "properties": {"magmom": -0.1}, "label": "Te", "xyz": [0.0, 14.774463001444, 3.3008159163959996]}, {"species": [{"element": "Te", "occu": 1}], "abc": [0.700724, 0.700724, 0.151812], "properties": {"magmom": -0.079}, "label": "Te", "xyz": [0.0, 24.37169259224, 0.9240013090079999]}, {"species": [{"element": "Te", "occu": 1}], "abc": [0.9997100000000001, 0.9997100000000001, 0.749962], "properties": {"magmom": -0.061}, "label": "Te", "xyz": [0.0, 35.059364028055995, 4.564631713608]}, {"species": [{"element": "Te", "occu": 1}], "abc": [0.582243, 0.582243, 0.457681], "properties": {"magmom": -0.1}, "label": "Te", "xyz": [0.0, 20.430300998555996, 2.785668083604]}]}, "task_ids": null, "uncorrected_energy_per_atom": null, "energy_per_atom": -41.891835233571435, "formation_energy_per_atom": -0.8960931192857191, "energy_above_hull": 0.045638019999991, "is_stable": false, "equilibrium_reaction_energy_per_atom": null, "decomposes_to": null, "xas": null, "grain_boundaries": null, "band_gap": 0.0, "cbm": null, "vbm": null, "efermi": 7.22613309, "is_gap_direct": null, "is_metal": null, "es_source_calc_id": null, "bandstructure": null, "dos": null, "dos_energy_up": null, "dos_energy_down": null, "is_magnetic": null, "ordering": null, "total_magnetization": 8.3031718, "total_magnetization_normalized_vol": null, "total_magnetization_normalized_formula_units": null, "num_magnetic_sites": null, "num_unique_magnetic_sites": null, "types_of_magnetic_species": null, "bulk_modulus": null, "shear_modulus": null, "universal_anisotropy": null, "homogeneous_poisson": null, "e_total": null, "e_ionic": null, "e_electronic": null, "n": null, "e_ij_max": null, "weighted_surface_energy_EV_PER_ANG2": null, "weighted_surface_energy": null, "weighted_work_function": null, "surface_anisotropy": null, "shape_factor": null, "has_reconstructed": null, "possible_species": null, "has_props": null, "theoretical": null, "database_IDs": null, "fields_not_requested": ["builder_meta", "nsites", "elements", "nelements", "composition", "composition_reduced", "chemsys", "symmetry", "property_name", "deprecated", "deprecation_reasons", "last_updated", "origins", "warnings", "task_ids", "uncorrected_energy_per_atom", "equilibrium_reaction_energy_per_atom", "decomposes_to", "xas", "grain_boundaries", "cbm", "vbm", "is_gap_direct", "is_metal", "es_source_calc_id", "bandstructure", "dos", "dos_energy_up", "dos_energy_down", "is_magnetic", "ordering", "total_magnetization_normalized_vol", "total_magnetization_normalized_formula_units", "num_magnetic_sites", "num_unique_magnetic_sites", "types_of_magnetic_species", "bulk_modulus", "shear_modulus", "universal_anisotropy", "homogeneous_poisson", "e_total", "e_ionic", "e_electronic", "n", "e_ij_max", "weighted_surface_energy_EV_PER_ANG2", "weighted_surface_energy", "weighted_work_function", "surface_anisotropy", "shape_factor", "has_reconstructed", "possible_species", "has_props", "theoretical", "database_IDs"]}