{
  "builder_meta": null,
  "nsites": null,
  "elements": null,
  "nelements": null,
  "composition": null,
  "composition_reduced": null,
  "formula_pretty": "U3As4",
  "formula_anonymous": "A3B4",
  "chemsys": null,
  "volume": 317.78333977886564,
  "density": 10.594701963959386,
  "density_atomic": 22.69880998420469,
  "symmetry": null,
  "property_name": null,
  "material_id": "mp-606",
  "deprecated": null,
  "deprecation_reasons": null,
  "last_updated": null,
  "origins": null,
  "warnings": null,
  "structure": {
    "@module": "pymatgen.core.structure",
    "@class": "Structure",
    "charge": 0,
    "lattice": {
      "matrix": [
        [7.02619646, 0.00014541, -2.47831958],
        [-3.51281355, 6.08363051, -2.47786913],
        [-0.00023269, 0.00015558, 7.43433383]
      ],
      "pbc": [true, true, true],
      "a": 7.450470096327612,
      "b": 7.449178118737223,
      "c": 7.434333835269455,
      "alpha": 109.42694837812468,
      "beta": 109.43084551233954,
      "gamma": 109.51494074807702,
      "volume": 317.78333977886564
    },
    "properties": {},
    "sites": [
      {
        "species": [{ "element": "U", "occu": 1 }],
        "abc": [0.7493947400000001, 0.87471694, 0.12464859],
        "properties": { "magmom": 2.128 },
        "label": "U",
        "xyz": [2.1926481456036764, 5.321583026114615, -3.0979945309062717]
      },
      {
        "species": [{ "element": "U", "occu": 1 }],
        "abc": [0.62528081, 0.3747076, 0.24994902],
        "properties": { "magmom": 2.128 },
        "label": "U",
        "xyz": [3.0770097185224894, 2.2797123968399893, -0.6199176140763014]
      },
      {
        "species": [{ "element": "U", "occu": 1 }],
        "abc": [0.87464547, 0.12523236000000001, 0.74985766],
        "properties": { "magmom": 2.128 },
        "label": "U",
        "xyz": [5.705338489583653, 0.7621112511878392, 3.096731776642288]
      },
      {
        "species": [{ "element": "U", "occu": 1 }],
        "abc": [0.12533548, 0.75064714, 0.8753049900000001],
        "properties": { "magmom": 2.129 },
        "label": "U",
        "xyz": [-1.7564554134904693, 4.566814248130732, 4.336682748843325]
      },
      {
        "species": [{ "element": "U", "occu": 1 }],
        "abc": [0.37466924, 0.24935729999999903, 0.62468477],
        "properties": { "magmom": 2.128 },
        "label": "U",
        "xyz": [1.756408627628348, 1.5171493472819222, 3.097690249170903]
      },
      {
        "species": [{ "element": "U", "occu": 1 }],
        "abc": [0.25057848, 0.6252814600000001, 0.37524378],
        "properties": { "magmom": 2.129 },
        "label": "U",
        "xyz": [-0.4359708715987705, 3.804076184437414, 0.6193083475451093]
      },
      {
        "species": [{ "element": "As", "occu": 1 }],
        "abc": [0.65881606, 0.65866802, 0.65862995],
        "properties": { "magmom": -0.146 },
        "label": "As",
        "xyz": [2.315039866352411, 4.007291130524196, 1.6316250239435304]
      },
      {
        "species": [{ "element": "As", "occu": 1 }],
        "abc": [0.34122485, 0.49987575, 0.99978915],
        "properties": { "magmom": -0.146 },
        "label": "As",
        "xyz": [0.6413098842803053, 3.0412645286105278, 5.348475384013783]
      },
      {
        "species": [{ "element": "As", "occu": 1 }],
        "abc": [0.50014152, 9.367000000000003e-5, 0.34190481],
        "properties": { "magmom": -0.149 },
        "label": "As",
        "xyz": [3.513683974247552, 0.0006957727986347001, 1.3020918718343535]
      },
      {
        "species": [{ "element": "As", "occu": 1 }],
        "abc": [9.352000000000001e-5, 0.34123375, 0.49990476],
        "properties": { "magmom": -0.146 },
        "label": "As",
        "xyz": [-1.1981497736629776, 2.0760178413230164, 2.8706945213597717]
      },
      {
        "species": [{ "element": "As", "occu": 1 }],
        "abc": [0.50008157, 8.282000000000002e-5, 0.84191563],
        "properties": { "magmom": -0.149 },
        "label": "As",
        "xyz": [3.5131845202790863, 0.0007075483736473001, 5.019514686465276]
      },
      {
        "species": [{ "element": "As", "occu": 1 }],
        "abc": [-0.00010599, 0.84127145, 0.49971732],
        "properties": { "magmom": -0.146 },
        "label": "As",
        "xyz": [-2.956090734574134, 5.118062391020579, 1.630767498699881]
      },
      {
        "species": [{ "element": "As", "occu": 1 }],
        "abc": [0.15865982, 0.15876336, 0.15857911],
        "properties": { "magmom": -0.146 },
        "label": "As",
        "xyz": [0.5570320836036035, 0.9659053632284735, 0.39232547501993875]
      },
      {
        "species": [{ "element": "As", "occu": 1 }],
        "abc": [0.84118543, 0.50006737, 0.99987045],
        "properties": { "magmom": -0.146 },
        "label": "As",
        "xyz": [4.153457997365704, 3.042502985805446, 4.1095428914293155]
      }
    ]
  },
  "task_ids": null,
  "uncorrected_energy_per_atom": null,
  "energy_per_atom": -43.75802496428572,
  "formation_energy_per_atom": -1.092848703571438,
  "energy_above_hull": 0.0,
  "is_stable": true,
  "equilibrium_reaction_energy_per_atom": null,
  "decomposes_to": null,
  "xas": null,
  "grain_boundaries": null,
  "band_gap": 0.0,
  "cbm": null,
  "vbm": null,
  "efermi": 8.89432675,
  "is_gap_direct": null,
  "is_metal": null,
  "es_source_calc_id": null,
  "bandstructure": null,
  "dos": null,
  "dos_energy_up": null,
  "dos_energy_down": null,
  "is_magnetic": null,
  "ordering": null,
  "total_magnetization": 12.0000001,
  "total_magnetization_normalized_vol": null,
  "total_magnetization_normalized_formula_units": null,
  "num_magnetic_sites": null,
  "num_unique_magnetic_sites": null,
  "types_of_magnetic_species": null,
  "bulk_modulus": null,
  "shear_modulus": null,
  "universal_anisotropy": null,
  "homogeneous_poisson": null,
  "e_total": null,
  "e_ionic": null,
  "e_electronic": null,
  "n": null,
  "e_ij_max": null,
  "weighted_surface_energy_EV_PER_ANG2": null,
  "weighted_surface_energy": null,
  "weighted_work_function": null,
  "surface_anisotropy": null,
  "shape_factor": null,
  "has_reconstructed": null,
  "possible_species": null,
  "has_props": null,
  "theoretical": null,
  "database_IDs": null,
  "fields_not_requested": [
    "builder_meta",
    "nsites",
    "elements",
    "nelements",
    "composition",
    "composition_reduced",
    "chemsys",
    "symmetry",
    "property_name",
    "deprecated",
    "deprecation_reasons",
    "last_updated",
    "origins",
    "warnings",
    "task_ids",
    "uncorrected_energy_per_atom",
    "equilibrium_reaction_energy_per_atom",
    "decomposes_to",
    "xas",
    "grain_boundaries",
    "cbm",
    "vbm",
    "is_gap_direct",
    "is_metal",
    "es_source_calc_id",
    "bandstructure",
    "dos",
    "dos_energy_up",
    "dos_energy_down",
    "is_magnetic",
    "ordering",
    "total_magnetization_normalized_vol",
    "total_magnetization_normalized_formula_units",
    "num_magnetic_sites",
    "num_unique_magnetic_sites",
    "types_of_magnetic_species",
    "bulk_modulus",
    "shear_modulus",
    "universal_anisotropy",
    "homogeneous_poisson",
    "e_total",
    "e_ionic",
    "e_electronic",
    "n",
    "e_ij_max",
    "weighted_surface_energy_EV_PER_ANG2",
    "weighted_surface_energy",
    "weighted_work_function",
    "surface_anisotropy",
    "shape_factor",
    "has_reconstructed",
    "possible_species",
    "has_props",
    "theoretical",
    "database_IDs"
  ]
}
