{
  "builder_meta": null,
  "nsites": null,
  "elements": null,
  "nelements": null,
  "composition": null,
  "composition_reduced": null,
  "formula_pretty": "U3Bi4",
  "formula_anonymous": "A3B4",
  "chemsys": null,
  "volume": 410.0946731887716,
  "density": 12.552464363933108,
  "density_atomic": 29.292476656340828,
  "symmetry": null,
  "property_name": null,
  "material_id": "mp-23196",
  "deprecated": null,
  "deprecation_reasons": null,
  "last_updated": null,
  "origins": null,
  "warnings": null,
  "structure": {
    "@module": "pymatgen.core.structure",
    "@class": "Structure",
    "charge": 0,
    "lattice": {
      "matrix": [
        [-4.680311, 4.680311, 4.680311],
        [4.680311, -4.680311, 4.680311],
        [4.680311, 4.680311, -4.680311]
      ],
      "pbc": [true, true, true],
      "a": 8.1065364472235,
      "b": 8.1065364472235,
      "c": 8.1065364472235,
      "alpha": 109.47122063449069,
      "beta": 109.47122063449069,
      "gamma": 109.47122063449069,
      "volume": 410.0946731887716
    },
    "properties": {},
    "sites": [
      {
        "species": [{ "element": "U", "occu": 1 }],
        "abc": [0.875, 0.125, 0.75],
        "properties": { "magmom": 2.3 },
        "label": "U",
        "xyz": [4.440892098500626e-16, 7.0204664999999995, 1.17007775]
      },
      {
        "species": [{ "element": "U", "occu": 1 }],
        "abc": [0.125, 0.75, 0.875],
        "properties": { "magmom": 2.3 },
        "label": "U",
        "xyz": [7.0204664999999995, 1.1700777499999995, 0.0]
      },
      {
        "species": [{ "element": "U", "occu": 1 }],
        "abc": [0.375, 0.25, 0.625],
        "properties": { "magmom": 2.3 },
        "label": "U",
        "xyz": [2.3401555, 3.5102332499999997, 0.0]
      },
      {
        "species": [{ "element": "U", "occu": 1 }],
        "abc": [0.625, 0.375, 0.25],
        "properties": { "magmom": 2.3 },
        "label": "U",
        "xyz": [0.0, 2.3401555, 3.5102332499999997]
      },
      {
        "species": [{ "element": "U", "occu": 1 }],
        "abc": [0.75, 0.875, 0.125],
        "properties": { "magmom": 2.273 },
        "label": "U",
        "xyz": [1.1700777499999995, 4.440892098500626e-16, 7.0204664999999995]
      },
      {
        "species": [{ "element": "U", "occu": 1 }],
        "abc": [0.25, 0.625, 0.375],
        "properties": { "magmom": 2.273 },
        "label": "U",
        "xyz": [3.5102332499999997, 0.0, 2.3401554999999994]
      },
      {
        "species": [{ "element": "Bi", "occu": 1 }],
        "abc": [0.658003999999999, 0.658003999999999, 0.658003999999999],
        "properties": { "magmom": -0.101 },
        "label": "Bi",
        "xyz": [3.0796633592439955, 3.0796633592439955, 3.0796633592439955]
      },
      {
        "species": [{ "element": "Bi", "occu": 1 }],
        "abc": [0.5, 0.0, 0.341995999999999],
        "properties": { "magmom": -0.106 },
        "label": "Bi",
        "xyz": [-0.7395078592440045, 3.940803140755995, 0.7395078592440045]
      },
      {
        "species": [{ "element": "Bi", "occu": 1 }],
        "abc": [0.5, 0.0, 0.841996],
        "properties": { "magmom": -0.106 },
        "label": "Bi",
        "xyz": [1.6006476407559997, 6.280958640755999, -1.6006476407559997]
      },
      {
        "species": [{ "element": "Bi", "occu": 1 }],
        "abc": [0.341995999999999, 0.5, 0.0],
        "properties": { "magmom": -0.101 },
        "label": "Bi",
        "xyz": [0.7395078592440045, -0.7395078592440045, 3.940803140755995]
      },
      {
        "species": [{ "element": "Bi", "occu": 1 }],
        "abc": [0.841996, 0.5, 0.0],
        "properties": { "magmom": -0.101 },
        "label": "Bi",
        "xyz": [-1.6006476407559997, 1.6006476407559997, 6.280958640755999]
      },
      {
        "species": [{ "element": "Bi", "occu": 1 }],
        "abc": [0.0, 0.841996, 0.5],
        "properties": { "magmom": -0.10400000000000001 },
        "label": "Bi",
        "xyz": [6.280958640755999, -1.6006476407559997, 1.6006476407559997]
      },
      {
        "species": [{ "element": "Bi", "occu": 1 }],
        "abc": [0.0, 0.341995999999999, 0.5],
        "properties": { "magmom": -0.10400000000000001 },
        "label": "Bi",
        "xyz": [3.940803140755995, 0.7395078592440045, -0.7395078592440045]
      },
      {
        "species": [{ "element": "Bi", "occu": 1 }],
        "abc": [0.158004, 0.158004, 0.158004],
        "properties": { "magmom": -0.101 },
        "label": "Bi",
        "xyz": [0.739507859244, 0.739507859244, 0.739507859244]
      }
    ]
  },
  "task_ids": null,
  "uncorrected_energy_per_atom": null,
  "energy_per_atom": -67.81457390928571,
  "formation_energy_per_atom": -0.123830358571426,
  "energy_above_hull": 0.07538046857142401,
  "is_stable": false,
  "equilibrium_reaction_energy_per_atom": null,
  "decomposes_to": null,
  "xas": null,
  "grain_boundaries": null,
  "band_gap": 0.0,
  "cbm": null,
  "vbm": null,
  "efermi": 8.41726232,
  "is_gap_direct": null,
  "is_metal": null,
  "es_source_calc_id": null,
  "bandstructure": null,
  "dos": null,
  "dos_energy_up": null,
  "dos_energy_down": null,
  "is_magnetic": null,
  "ordering": null,
  "total_magnetization": 13.9321299,
  "total_magnetization_normalized_vol": null,
  "total_magnetization_normalized_formula_units": null,
  "num_magnetic_sites": null,
  "num_unique_magnetic_sites": null,
  "types_of_magnetic_species": null,
  "bulk_modulus": null,
  "shear_modulus": null,
  "universal_anisotropy": null,
  "homogeneous_poisson": null,
  "e_total": null,
  "e_ionic": null,
  "e_electronic": null,
  "n": null,
  "e_ij_max": null,
  "weighted_surface_energy_EV_PER_ANG2": null,
  "weighted_surface_energy": null,
  "weighted_work_function": null,
  "surface_anisotropy": null,
  "shape_factor": null,
  "has_reconstructed": null,
  "possible_species": null,
  "has_props": null,
  "theoretical": null,
  "database_IDs": null,
  "fields_not_requested": [
    "builder_meta",
    "nsites",
    "elements",
    "nelements",
    "composition",
    "composition_reduced",
    "chemsys",
    "symmetry",
    "property_name",
    "deprecated",
    "deprecation_reasons",
    "last_updated",
    "origins",
    "warnings",
    "task_ids",
    "uncorrected_energy_per_atom",
    "equilibrium_reaction_energy_per_atom",
    "decomposes_to",
    "xas",
    "grain_boundaries",
    "cbm",
    "vbm",
    "is_gap_direct",
    "is_metal",
    "es_source_calc_id",
    "bandstructure",
    "dos",
    "dos_energy_up",
    "dos_energy_down",
    "is_magnetic",
    "ordering",
    "total_magnetization_normalized_vol",
    "total_magnetization_normalized_formula_units",
    "num_magnetic_sites",
    "num_unique_magnetic_sites",
    "types_of_magnetic_species",
    "bulk_modulus",
    "shear_modulus",
    "universal_anisotropy",
    "homogeneous_poisson",
    "e_total",
    "e_ionic",
    "e_electronic",
    "n",
    "e_ij_max",
    "weighted_surface_energy_EV_PER_ANG2",
    "weighted_surface_energy",
    "weighted_work_function",
    "surface_anisotropy",
    "shape_factor",
    "has_reconstructed",
    "possible_species",
    "has_props",
    "theoretical",
    "database_IDs"
  ]
}
