{
  "builder_meta": null,
  "nsites": null,
  "elements": null,
  "nelements": null,
  "composition": null,
  "composition_reduced": null,
  "formula_pretty": "U3Ga5",
  "formula_anonymous": "A3B5",
  "chemsys": null,
  "volume": 331.0605311686874,
  "density": 10.660634975597544,
  "density_atomic": 20.691283198042964,
  "symmetry": null,
  "property_name": null,
  "material_id": "mp-669688",
  "deprecated": null,
  "deprecation_reasons": null,
  "last_updated": null,
  "origins": null,
  "warnings": null,
  "structure": {
    "@module": "pymatgen.core.structure",
    "@class": "Structure",
    "charge": 0,
    "lattice": {
      "matrix": [
        [3.811688, -4.633492, 0.0],
        [3.811688, 4.633492, 0.0],
        [0.0, 0.0, 9.372418]
      ],
      "pbc": [true, true, true],
      "a": 5.999851125103689,
      "b": 5.999851125103689,
      "c": 9.372418,
      "alpha": 90.0,
      "beta": 90.0,
      "gamma": 101.1159538943006,
      "volume": 331.0605311686874
    },
    "properties": {},
    "sites": [
      {
        "species": [{ "element": "U", "occu": 1 }],
        "abc": [0.369861, 0.369861, 0.75],
        "properties": { "magmom": 2.163 },
        "label": "U",
        "xyz": [2.819589470736, 0.0, 7.0293135]
      },
      {
        "species": [{ "element": "U", "occu": 1 }],
        "abc": [0.789478999999999, 0.21052099999999901, 0.0],
        "properties": { "magmom": 2.103 },
        "label": "U",
        "xyz": [3.811687999999993, -2.6825972613360003, 0.0]
      },
      {
        "species": [{ "element": "U", "occu": 1 }],
        "abc": [0.630139, 0.630139, 0.25],
        "properties": { "magmom": 2.163 },
        "label": "U",
        "xyz": [4.803786529264, 0.0, 2.3431045]
      },
      {
        "species": [{ "element": "U", "occu": 1 }],
        "abc": [0.21052099999999901, 0.789478999999999, 0.5],
        "properties": { "magmom": 2.103 },
        "label": "U",
        "xyz": [3.811687999999993, 2.6825972613360003, 4.686209]
      },
      {
        "species": [{ "element": "U", "occu": 1 }],
        "abc": [0.789478999999999, 0.21052099999999901, 0.5],
        "properties": { "magmom": 2.103 },
        "label": "U",
        "xyz": [3.811687999999993, -2.6825972613360003, 4.686209]
      },
      {
        "species": [{ "element": "U", "occu": 1 }],
        "abc": [0.21052099999999901, 0.789478999999999, 0.0],
        "properties": { "magmom": 2.103 },
        "label": "U",
        "xyz": [3.811687999999993, 2.6825972613360003, 0.0]
      },
      {
        "species": [{ "element": "Ga", "occu": 1 }],
        "abc": [0.983007, 0.983007, 0.75],
        "properties": { "magmom": 0.013000000000000001 },
        "label": "Ga",
        "xyz": [7.493831971632, 0.0, 7.0293135]
      },
      {
        "species": [{ "element": "Ga", "occu": 1 }],
        "abc": [0.7012900000000001, 0.7012900000000001, 0.944179],
        "properties": { "magmom": -0.015 },
        "label": "Ga",
        "xyz": [5.346197355040001, 0.0, 8.849240254822]
      },
      {
        "species": [{ "element": "Ga", "occu": 1 }],
        "abc": [0.512093999999999, 0.927873, 0.75],
        "properties": { "magmom": -0.013000000000000001 },
        "label": "Ga",
        "xyz": [5.488704934295996, 1.9265086702680048, 7.0293135]
      },
      {
        "species": [{ "element": "Ga", "occu": 1 }],
        "abc": [0.29871000000000003, 0.29871000000000003, 0.444179],
        "properties": { "magmom": -0.015 },
        "label": "Ga",
        "xyz": [2.27717864496, 0.0, 4.163031254822]
      },
      {
        "species": [{ "element": "Ga", "occu": 1 }],
        "abc": [0.072127, 0.48790599999999906, 0.25],
        "properties": { "magmom": -0.013000000000000001 },
        "label": "Ga",
        "xyz": [2.1346710657039965, 1.9265086702679959, 2.3431045]
      },
      {
        "species": [{ "element": "Ga", "occu": 1 }],
        "abc": [0.016992999999999002, 0.016992999999999002, 0.25],
        "properties": { "magmom": 0.013000000000000001 },
        "label": "Ga",
        "xyz": [0.1295440283679924, 0.0, 2.3431045]
      },
      {
        "species": [{ "element": "Ga", "occu": 1 }],
        "abc": [0.29871000000000003, 0.29871000000000003, 0.055820999999999],
        "properties": { "magmom": -0.015 },
        "label": "Ga",
        "xyz": [2.27717864496, 0.0, 0.5231777451779906]
      },
      {
        "species": [{ "element": "Ga", "occu": 1 }],
        "abc": [0.48790599999999906, 0.072127, 0.25],
        "properties": { "magmom": -0.013000000000000001 },
        "label": "Ga",
        "xyz": [2.1346710657039965, -1.9265086702679959, 2.3431045]
      },
      {
        "species": [{ "element": "Ga", "occu": 1 }],
        "abc": [0.7012900000000001, 0.7012900000000001, 0.555821],
        "properties": { "magmom": -0.015 },
        "label": "Ga",
        "xyz": [5.346197355040001, 0.0, 5.209386745178]
      },
      {
        "species": [{ "element": "Ga", "occu": 1 }],
        "abc": [0.927873, 0.512093999999999, 0.75],
        "properties": { "magmom": -0.013000000000000001 },
        "label": "Ga",
        "xyz": [5.488704934295996, -1.9265086702680048, 7.0293135]
      }
    ]
  },
  "task_ids": null,
  "uncorrected_energy_per_atom": null,
  "energy_per_atom": -37.330137240000006,
  "formation_energy_per_atom": -0.20013853687500902,
  "energy_above_hull": 0.12252615999999901,
  "is_stable": false,
  "equilibrium_reaction_energy_per_atom": null,
  "decomposes_to": null,
  "xas": null,
  "grain_boundaries": null,
  "band_gap": 0.0,
  "cbm": null,
  "vbm": null,
  "efermi": 7.31834078,
  "is_gap_direct": null,
  "is_metal": null,
  "es_source_calc_id": null,
  "bandstructure": null,
  "dos": null,
  "dos_energy_up": null,
  "dos_energy_down": null,
  "is_magnetic": null,
  "ordering": null,
  "total_magnetization": 14.2384036,
  "total_magnetization_normalized_vol": null,
  "total_magnetization_normalized_formula_units": null,
  "num_magnetic_sites": null,
  "num_unique_magnetic_sites": null,
  "types_of_magnetic_species": null,
  "bulk_modulus": null,
  "shear_modulus": null,
  "universal_anisotropy": null,
  "homogeneous_poisson": null,
  "e_total": null,
  "e_ionic": null,
  "e_electronic": null,
  "n": null,
  "e_ij_max": null,
  "weighted_surface_energy_EV_PER_ANG2": null,
  "weighted_surface_energy": null,
  "weighted_work_function": null,
  "surface_anisotropy": null,
  "shape_factor": null,
  "has_reconstructed": null,
  "possible_species": null,
  "has_props": null,
  "theoretical": null,
  "database_IDs": null,
  "fields_not_requested": [
    "builder_meta",
    "nsites",
    "elements",
    "nelements",
    "composition",
    "composition_reduced",
    "chemsys",
    "symmetry",
    "property_name",
    "deprecated",
    "deprecation_reasons",
    "last_updated",
    "origins",
    "warnings",
    "task_ids",
    "uncorrected_energy_per_atom",
    "equilibrium_reaction_energy_per_atom",
    "decomposes_to",
    "xas",
    "grain_boundaries",
    "cbm",
    "vbm",
    "is_gap_direct",
    "is_metal",
    "es_source_calc_id",
    "bandstructure",
    "dos",
    "dos_energy_up",
    "dos_energy_down",
    "is_magnetic",
    "ordering",
    "total_magnetization_normalized_vol",
    "total_magnetization_normalized_formula_units",
    "num_magnetic_sites",
    "num_unique_magnetic_sites",
    "types_of_magnetic_species",
    "bulk_modulus",
    "shear_modulus",
    "universal_anisotropy",
    "homogeneous_poisson",
    "e_total",
    "e_ionic",
    "e_electronic",
    "n",
    "e_ij_max",
    "weighted_surface_energy_EV_PER_ANG2",
    "weighted_surface_energy",
    "weighted_work_function",
    "surface_anisotropy",
    "shape_factor",
    "has_reconstructed",
    "possible_species",
    "has_props",
    "theoretical",
    "database_IDs"
  ]
}
