{"builder_meta": null, "nsites": null, "elements": null, "nelements": null, "composition": null, "composition_reduced": null, "formula_pretty": "U3Nb", "formula_anonymous": "AB3", "chemsys": null, "volume": 166.789279340187, "density": 16.068701668754734, "density_atomic": 20.848659917523374, "symmetry": null, "property_name": null, "material_id": "mp-972551", "deprecated": null, "deprecation_reasons": null, "last_updated": null, "origins": null, "warnings": null, "structure": {"@module": "pymatgen.core.structure", "@class": "Structure", "charge": 0, "lattice": {"matrix": [[2.965359, -5.136152, 0.0], [2.965359, 5.136152, 0.0], [0.0, 0.0, 5.47549]], "pbc": [true, true, true], "a": 5.930717609698257, "b": 5.930717609698257, "c": 5.47549, "alpha": 90.0, "beta": 90.0, "gamma": 119.99999564603183, "volume": 166.789279340187}, "properties": {}, "sites": [{"species": [{"element": "U", "occu": 1}], "abc": [0.822820999999999, 0.177179, 0.75], "properties": {"magmom": -0.054}, "label": "U", "xyz": [2.9653589999999967, -3.3161154495839953, 4.1066175]}, {"species": [{"element": "U", "occu": 1}], "abc": [0.354359, 0.177179, 0.75], "properties": {"magmom": -0.054}, "label": "U", "xyz": [1.5762009921419997, -0.9100234113599998, 4.1066175]}, {"species": [{"element": "U", "occu": 1}], "abc": [0.822820999999999, 0.645641, 0.75], "properties": {"magmom": -0.053}, "label": "U", "xyz": [4.354517007857997, -0.9100234113599952, 4.1066175]}, {"species": [{"element": "U", "occu": 1}], "abc": [0.177179, 0.822820999999999, 0.25], "properties": {"magmom": -0.054}, "label": "U", "xyz": [2.9653589999999967, 3.3161154495839953, 1.3688725]}, {"species": [{"element": "U", "occu": 1}], "abc": [0.645641, 0.822820999999999, 0.25], "properties": {"magmom": -0.054}, "label": "U", "xyz": [4.354517007857997, 0.9100234113599952, 1.3688725]}, {"species": [{"element": "U", "occu": 1}], "abc": [0.177179, 0.354359, 0.25], "properties": {"magmom": -0.053}, "label": "U", "xyz": [1.5762009921419997, 0.9100234113599998, 1.3688725]}, {"species": [{"element": "Nb", "occu": 1}], "abc": [0.666667, 0.333333, 0.25], "properties": {"magmom": 0.003}, "label": "Nb", "xyz": [2.965359, -1.7120540907680002, 1.3688725]}, {"species": [{"element": "Nb", "occu": 1}], "abc": [0.333333, 0.666667, 0.75], "properties": {"magmom": 0.003}, "label": "Nb", "xyz": [2.965359, 1.7120540907680002, 4.1066175]}]}, "task_ids": null, "uncorrected_energy_per_atom": null, "energy_per_atom": -65.79853158875, "formation_energy_per_atom": 0.341514542500007, "energy_above_hull": 0.341514542500007, "is_stable": false, "equilibrium_reaction_energy_per_atom": null, "decomposes_to": null, "xas": null, "grain_boundaries": null, "band_gap": 0.0, "cbm": null, "vbm": null, "efermi": 12.06847271, "is_gap_direct": null, "is_metal": null, "es_source_calc_id": null, "bandstructure": null, "dos": null, "dos_energy_up": null, "dos_energy_down": null, "is_magnetic": null, "ordering": null, "total_magnetization": 0.2872577, "total_magnetization_normalized_vol": null, "total_magnetization_normalized_formula_units": null, "num_magnetic_sites": null, "num_unique_magnetic_sites": null, "types_of_magnetic_species": null, "bulk_modulus": null, "shear_modulus": null, "universal_anisotropy": null, "homogeneous_poisson": null, "e_total": null, "e_ionic": null, "e_electronic": null, "n": null, "e_ij_max": null, "weighted_surface_energy_EV_PER_ANG2": null, "weighted_surface_energy": null, "weighted_work_function": null, "surface_anisotropy": null, "shape_factor": null, "has_reconstructed": null, "possible_species": null, "has_props": null, "theoretical": null, "database_IDs": null, "fields_not_requested": ["builder_meta", "nsites", "elements", "nelements", "composition", "composition_reduced", "chemsys", "symmetry", "property_name", "deprecated", "deprecation_reasons", "last_updated", "origins", "warnings", "task_ids", "uncorrected_energy_per_atom", "equilibrium_reaction_energy_per_atom", "decomposes_to", "xas", "grain_boundaries", "cbm", "vbm", "is_gap_direct", "is_metal", "es_source_calc_id", "bandstructure", "dos", "dos_energy_up", "dos_energy_down", "is_magnetic", "ordering", "total_magnetization_normalized_vol", "total_magnetization_normalized_formula_units", "num_magnetic_sites", "num_unique_magnetic_sites", "types_of_magnetic_species", "bulk_modulus", "shear_modulus", "universal_anisotropy", "homogeneous_poisson", "e_total", "e_ionic", "e_electronic", "n", "e_ij_max", "weighted_surface_energy_EV_PER_ANG2", "weighted_surface_energy", "weighted_work_function", "surface_anisotropy", "shape_factor", "has_reconstructed", "possible_species", "has_props", "theoretical", "database_IDs"]}