{
  "builder_meta": null,
  "nsites": null,
  "elements": null,
  "nelements": null,
  "composition": null,
  "composition_reduced": null,
  "formula_pretty": "U3O7",
  "formula_anonymous": "A3B7",
  "chemsys": null,
  "volume": 117.77270916301217,
  "density": 11.64736994715901,
  "density_atomic": 11.777270916301216,
  "symmetry": null,
  "property_name": null,
  "material_id": "mp-1216910",
  "deprecated": null,
  "deprecation_reasons": null,
  "last_updated": null,
  "origins": null,
  "warnings": null,
  "structure": {
    "@module": "pymatgen.core.structure",
    "@class": "Structure",
    "charge": 0,
    "lattice": {
      "matrix": [
        [-1.893653, 2.747847, 5.6583749999999995],
        [1.893653, -2.747847, 5.6583749999999995],
        [1.893653, 2.747847, -5.6583749999999995]
      ],
      "pbc": [true, true, true],
      "a": 6.569154622966566,
      "b": 6.569154622966566,
      "c": 6.569154622966566,
      "alpha": 146.49185422032596,
      "beta": 130.5459717706421,
      "gamma": 61.06184319868369,
      "volume": 117.77270916301214
    },
    "properties": {},
    "sites": [
      {
        "species": [{ "element": "U", "occu": 1 }],
        "abc": [0.0, 0.0, 0.0],
        "properties": { "magmom": 1.341 },
        "label": "U",
        "xyz": [0.0, 0.0, 0.0]
      },
      {
        "species": [{ "element": "U", "occu": 1 }],
        "abc": [0.655036, 0.655036, 0.0],
        "properties": { "magmom": 1.465 },
        "label": "U",
        "xyz": [0.0, 0.0, 7.412878652999999]
      },
      {
        "species": [{ "element": "U", "occu": 1 }],
        "abc": [0.344964, 0.344964, 0.0],
        "properties": { "magmom": 1.465 },
        "label": "U",
        "xyz": [0.0, 0.0, 3.9038713469999995]
      },
      {
        "species": [{ "element": "O", "occu": 1 }],
        "abc": [0.783002, 0.5, 0.283002],
        "properties": { "magmom": -0.058 },
        "label": "O",
        "xyz": [1.1102230246251565e-16, 1.555292393388, 5.6583749999999995]
      },
      {
        "species": [{ "element": "O", "occu": 1 }],
        "abc": [0.410786999999999, 0.176766999999999, 0.234020999999999],
        "properties": { "magmom": -0.054 },
        "label": "O",
        "xyz": [1.8936529981306016e-6, 1.2861050577269975, 2.000422288874994]
      },
      {
        "species": [{ "element": "O", "occu": 1 }],
        "abc": [0.057254, 0.823233, 0.23402],
        "properties": { "magmom": -0.053 },
        "label": "O",
        "xyz": [1.8936511063469998, -1.461741942273, 3.657952711125]
      },
      {
        "species": [{ "element": "O", "occu": 1 }],
        "abc": [0.216998, 0.5, 0.716997999999999],
        "properties": { "magmom": -0.058 },
        "label": "O",
        "xyz": [1.8936529999999983, 1.1925546066119974, 5.329070518200751e-15]
      },
      {
        "species": [{ "element": "O", "occu": 1 }],
        "abc": [0.942746, 0.176766999999999, 0.7659800000000001],
        "properties": { "magmom": -0.053 },
        "label": "O",
        "xyz": [1.8936529981861128e-6, 4.209588942273003, 2.0004222888749936]
      },
      {
        "species": [{ "element": "O", "occu": 1 }],
        "abc": [0.589213, 0.823233, 0.7659800000000001],
        "properties": { "magmom": -0.054 },
        "label": "O",
        "xyz": [1.893653, 1.4617446901200002, 3.657947052749999]
      },
      {
        "species": [{ "element": "O", "occu": 1 }],
        "abc": [0.5, 0.0, 0.5],
        "properties": { "magmom": -0.08700000000000001 },
        "label": "O",
        "xyz": [0.0, 2.747847, 0.0]
      }
    ]
  },
  "task_ids": null,
  "uncorrected_energy_per_atom": null,
  "energy_per_atom": -10.403159861,
  "formation_energy_per_atom": -3.552164154499998,
  "energy_above_hull": 0.17586005075000502,
  "is_stable": false,
  "equilibrium_reaction_energy_per_atom": null,
  "decomposes_to": null,
  "xas": null,
  "grain_boundaries": null,
  "band_gap": 0.0,
  "cbm": null,
  "vbm": null,
  "efermi": 9.93100734,
  "is_gap_direct": null,
  "is_metal": null,
  "es_source_calc_id": null,
  "bandstructure": null,
  "dos": null,
  "dos_energy_up": null,
  "dos_energy_down": null,
  "is_magnetic": null,
  "ordering": null,
  "total_magnetization": 3.9990322,
  "total_magnetization_normalized_vol": null,
  "total_magnetization_normalized_formula_units": null,
  "num_magnetic_sites": null,
  "num_unique_magnetic_sites": null,
  "types_of_magnetic_species": null,
  "bulk_modulus": null,
  "shear_modulus": null,
  "universal_anisotropy": null,
  "homogeneous_poisson": null,
  "e_total": null,
  "e_ionic": null,
  "e_electronic": null,
  "n": null,
  "e_ij_max": null,
  "weighted_surface_energy_EV_PER_ANG2": null,
  "weighted_surface_energy": null,
  "weighted_work_function": null,
  "surface_anisotropy": null,
  "shape_factor": null,
  "has_reconstructed": null,
  "possible_species": null,
  "has_props": null,
  "theoretical": null,
  "database_IDs": null,
  "fields_not_requested": [
    "builder_meta",
    "nsites",
    "elements",
    "nelements",
    "composition",
    "composition_reduced",
    "chemsys",
    "symmetry",
    "property_name",
    "deprecated",
    "deprecation_reasons",
    "last_updated",
    "origins",
    "warnings",
    "task_ids",
    "uncorrected_energy_per_atom",
    "equilibrium_reaction_energy_per_atom",
    "decomposes_to",
    "xas",
    "grain_boundaries",
    "cbm",
    "vbm",
    "is_gap_direct",
    "is_metal",
    "es_source_calc_id",
    "bandstructure",
    "dos",
    "dos_energy_up",
    "dos_energy_down",
    "is_magnetic",
    "ordering",
    "total_magnetization_normalized_vol",
    "total_magnetization_normalized_formula_units",
    "num_magnetic_sites",
    "num_unique_magnetic_sites",
    "types_of_magnetic_species",
    "bulk_modulus",
    "shear_modulus",
    "universal_anisotropy",
    "homogeneous_poisson",
    "e_total",
    "e_ionic",
    "e_electronic",
    "n",
    "e_ij_max",
    "weighted_surface_energy_EV_PER_ANG2",
    "weighted_surface_energy",
    "weighted_work_function",
    "surface_anisotropy",
    "shape_factor",
    "has_reconstructed",
    "possible_species",
    "has_props",
    "theoretical",
    "database_IDs"
  ]
}
