{
  "builder_meta": null,
  "nsites": null,
  "elements": null,
  "nelements": null,
  "composition": null,
  "composition_reduced": null,
  "formula_pretty": "U3O8",
  "formula_anonymous": "A3B8",
  "chemsys": null,
  "volume": 336.24788647548235,
  "density": 8.317137435121898,
  "density_atomic": 15.283994839794651,
  "symmetry": null,
  "property_name": null,
  "material_id": "mp-560402",
  "deprecated": null,
  "deprecation_reasons": null,
  "last_updated": null,
  "origins": null,
  "warnings": null,
  "structure": {
    "@module": "pymatgen.core.structure",
    "@class": "Structure",
    "charge": 0,
    "lattice": {
      "matrix": [
        [6.74479031, -0.03072234, 0.0],
        [-3.05269604, 6.01477411, 0.0],
        [0.0, 0.0, 8.30762631]
      ],
      "pbc": [true, true, true],
      "a": 6.744860279356791,
      "b": 6.745106426659106,
      "c": 8.30762631,
      "alpha": 90.0,
      "beta": 90.0,
      "gamma": 117.17027363339545,
      "volume": 336.24788647548235
    },
    "properties": {},
    "sites": [
      {
        "species": [{ "element": "U", "occu": 1 }],
        "abc": [0.65167006, 0.34816928, 0.25],
        "properties": { "magmom": 0.023 },
        "label": "U",
        "xyz": [3.3325229236994676, 2.074138742090201, 2.0769065775]
      },
      {
        "species": [{ "element": "U", "occu": 1 }],
        "abc": [0.9880886, 0.01201632, 0.75],
        "properties": { "magmom": 1.049 },
        "label": "U",
        "xyz": [6.627768242222093, 0.041919056514151204, 6.2307197325]
      },
      {
        "species": [{ "element": "U", "occu": 1 }],
        "abc": [0.66612739, 0.33380319, 0.75],
        "properties": { "magmom": 1.103 },
        "label": "U",
        "xyz": [3.473889889045223, 1.9872857928885186, 6.2307197325]
      },
      {
        "species": [{ "element": "U", "occu": 1 }],
        "abc": [0.34832994, 0.65183072, 0.75],
        "properties": { "magmom": 0.023 },
        "label": "U",
        "xyz": [0.359571346300533, 3.9099130279097993, 6.2307197325]
      },
      {
        "species": [{ "element": "U", "occu": 1 }],
        "abc": [0.011911399999999002, 0.98798368, 0.25],
        "properties": { "magmom": 1.049 },
        "label": "U",
        "xyz": [-2.9356739722220997, 5.94213271348585, 2.0769065775]
      },
      {
        "species": [{ "element": "U", "occu": 1 }],
        "abc": [0.33387261, 0.66619681, 0.25],
        "properties": { "magmom": 1.103 },
        "label": "U",
        "xyz": [0.21820438095477668, 3.9967659771114823, 2.0769065775]
      },
      {
        "species": [{ "element": "O", "occu": 1 }],
        "abc": [0.99364549, 0.37237345, 0.75],
        "properties": { "magmom": -0.034 },
        "label": "O",
        "xyz": [5.565187516311064, 2.209215071728133, 6.2307197325]
      },
      {
        "species": [{ "element": "O", "occu": 1 }],
        "abc": [0.65229117, 0.3475484, 0.01770546],
        "properties": { "magmom": -0.013000000000000001 },
        "label": "O",
        "xyz": [3.338607538326227, 2.070385207188186, 0.14709034532665258]
      },
      {
        "species": [{ "element": "O", "occu": 1 }],
        "abc": [0.66248356, 0.70341494, 0.25],
        "properties": { "magmom": -0.042 },
        "label": "O",
        "xyz": [2.3210006942074655, 4.210528924524473, 2.0769065775]
      },
      {
        "species": [{ "element": "O", "occu": 1 }],
        "abc": [0.00635451, 0.62762655, 0.25],
        "properties": { "magmom": -0.034 },
        "label": "O",
        "xyz": [-1.8730932463110637, 3.774836698271867, 2.0769065775]
      },
      {
        "species": [{ "element": "O", "occu": 1 }],
        "abc": [0.65229117, 0.3475484, 0.48229454],
        "properties": { "magmom": -0.013000000000000001 },
        "label": "O",
        "xyz": [3.338607538326227, 2.070385207188186, 4.006722809673347]
      },
      {
        "species": [{ "element": "O", "occu": 1 }],
        "abc": [0.16978019, 0.8310510600000001, 0.75],
        "properties": { "magmom": -0.027 },
        "label": "O",
        "xyz": [-1.3918144995578434, 4.9933683550536125, 6.2307197325]
      },
      {
        "species": [{ "element": "O", "occu": 1 }],
        "abc": [0.34770883, 0.6524516, 0.98229454],
        "properties": { "magmom": -0.013000000000000001 },
        "label": "O",
        "xyz": [0.35348673167377354, 3.913666562811814, 8.160535964673347]
      },
      {
        "species": [{ "element": "O", "occu": 1 }],
        "abc": [0.29620004, 0.33750456, 0.25],
        "properties": { "magmom": -0.042 },
        "label": "O",
        "xyz": [0.9675083258196702, 2.020913731158048, 2.0769065775]
      },
      {
        "species": [{ "element": "O", "occu": 1 }],
        "abc": [0.37187714, 0.99361507, 0.25],
        "properties": { "magmom": -0.034 },
        "label": "O",
        "xyz": [-0.5249714590908092, 5.964945262408531, 2.0769065775]
      },
      {
        "species": [{ "element": "O", "occu": 1 }],
        "abc": [0.70379996, 0.66249544, 0.75],
        "properties": { "magmom": -0.042 },
        "label": "O",
        "xyz": [2.72458594418033, 3.9631380388419526, 6.2307197325]
      },
      {
        "species": [{ "element": "O", "occu": 1 }],
        "abc": [-0.0, -0.0, -0.0],
        "properties": { "magmom": -0.05 },
        "label": "O",
        "xyz": [0.0, 0.0, 0.0]
      },
      {
        "species": [{ "element": "O", "occu": 1 }],
        "abc": [0.34770883, 0.6524516, 0.5177054600000001],
        "properties": { "magmom": -0.013000000000000001 },
        "label": "O",
        "xyz": [0.35348673167377354, 3.913666562811814, 4.300903500326653]
      },
      {
        "species": [{ "element": "O", "occu": 1 }],
        "abc": [0.6281228600000001, 0.0063849300000000005, 0.75],
        "properties": { "magmom": -0.034 },
        "label": "O",
        "xyz": [4.21706572909081, 0.0191065075914699, 6.2307197325]
      },
      {
        "species": [{ "element": "O", "occu": 1 }],
        "abc": [0.33751644000000003, 0.29658506, 0.75],
        "properties": { "magmom": -0.042 },
        "label": "O",
        "xyz": [1.3710935757925342, 1.7735228454755272, 6.2307197325]
      },
      {
        "species": [{ "element": "O", "occu": 1 }],
        "abc": [-0.0, -0.0, 0.5],
        "properties": { "magmom": -0.05 },
        "label": "O",
        "xyz": [0.0, 0.0, 4.153813155]
      },
      {
        "species": [{ "element": "O", "occu": 1 }],
        "abc": [0.83021981, 0.16894894, 0.25],
        "properties": { "magmom": -0.027 },
        "label": "O",
        "xyz": [5.083908769557843, 0.990683414946388, 2.0769065775]
      }
    ]
  },
  "task_ids": null,
  "uncorrected_energy_per_atom": null,
  "energy_per_atom": -10.387673092272735,
  "formation_energy_per_atom": -3.709680540454551,
  "energy_above_hull": 0.0,
  "is_stable": true,
  "equilibrium_reaction_energy_per_atom": null,
  "decomposes_to": null,
  "xas": null,
  "grain_boundaries": null,
  "band_gap": 0.045099999999999,
  "cbm": null,
  "vbm": null,
  "efermi": 5.34589613,
  "is_gap_direct": null,
  "is_metal": null,
  "es_source_calc_id": null,
  "bandstructure": null,
  "dos": null,
  "dos_energy_up": null,
  "dos_energy_down": null,
  "is_magnetic": null,
  "ordering": null,
  "total_magnetization": 3.9999989,
  "total_magnetization_normalized_vol": null,
  "total_magnetization_normalized_formula_units": null,
  "num_magnetic_sites": null,
  "num_unique_magnetic_sites": null,
  "types_of_magnetic_species": null,
  "bulk_modulus": null,
  "shear_modulus": null,
  "universal_anisotropy": null,
  "homogeneous_poisson": null,
  "e_total": null,
  "e_ionic": null,
  "e_electronic": null,
  "n": null,
  "e_ij_max": null,
  "weighted_surface_energy_EV_PER_ANG2": null,
  "weighted_surface_energy": null,
  "weighted_work_function": null,
  "surface_anisotropy": null,
  "shape_factor": null,
  "has_reconstructed": null,
  "possible_species": null,
  "has_props": null,
  "theoretical": null,
  "database_IDs": null,
  "fields_not_requested": [
    "builder_meta",
    "nsites",
    "elements",
    "nelements",
    "composition",
    "composition_reduced",
    "chemsys",
    "symmetry",
    "property_name",
    "deprecated",
    "deprecation_reasons",
    "last_updated",
    "origins",
    "warnings",
    "task_ids",
    "uncorrected_energy_per_atom",
    "equilibrium_reaction_energy_per_atom",
    "decomposes_to",
    "xas",
    "grain_boundaries",
    "cbm",
    "vbm",
    "is_gap_direct",
    "is_metal",
    "es_source_calc_id",
    "bandstructure",
    "dos",
    "dos_energy_up",
    "dos_energy_down",
    "is_magnetic",
    "ordering",
    "total_magnetization_normalized_vol",
    "total_magnetization_normalized_formula_units",
    "num_magnetic_sites",
    "num_unique_magnetic_sites",
    "types_of_magnetic_species",
    "bulk_modulus",
    "shear_modulus",
    "universal_anisotropy",
    "homogeneous_poisson",
    "e_total",
    "e_ionic",
    "e_electronic",
    "n",
    "e_ij_max",
    "weighted_surface_energy_EV_PER_ANG2",
    "weighted_surface_energy",
    "weighted_work_function",
    "surface_anisotropy",
    "shape_factor",
    "has_reconstructed",
    "possible_species",
    "has_props",
    "theoretical",
    "database_IDs"
  ]
}
