{"builder_meta": null, "nsites": null, "elements": null, "nelements": null, "composition": null, "composition_reduced": null, "formula_pretty": "U3P4", "formula_anonymous": "A3B4", "chemsys": null, "volume": 284.89120673895843, "density": 9.768651657563726, "density_atomic": 20.3493719099256, "symmetry": null, "property_name": null, "material_id": "mp-787", "deprecated": null, "deprecation_reasons": null, "last_updated": null, "origins": null, "warnings": null, "structure": {"@module": "pymatgen.core.structure", "@class": "Structure", "charge": 0, "lattice": {"matrix": [[6.7689932, -1e-08, -2.3932], [-3.3844966100000002, 5.86211932, -2.3932], [1e-08, 2e-08, 7.17960105]], "pbc": [true, true, true], "a": 7.179601324700853, "b": 7.1796007176596355, "c": 7.17960105, "alpha": 109.47121851130461, "beta": 109.47121681706734, "gamma": 109.4712262337822, "volume": 284.89120673895843}, "properties": {}, "sites": [{"species": [{"element": "U", "occu": 1}], "abc": [0.75, 0.875, 0.125], "properties": {"magmom": 2.052}, "label": "U", "xyz": [2.1153103674999993, 5.1293544, -2.9914998687500005]}, {"species": [{"element": "U", "occu": 1}], "abc": [0.625, 0.375, 0.25], "properties": {"magmom": 2.052}, "label": "U", "xyz": [2.96143452375, 2.19829474375, -0.5982997375000003]}, {"species": [{"element": "U", "occu": 1}], "abc": [0.875, 0.125, 0.75], "properties": {"magmom": 2.052}, "label": "U", "xyz": [5.49980698125, 0.73276492125, 2.9915007874999997]}, {"species": [{"element": "U", "occu": 1}], "abc": [0.125, 0.75, 0.875], "properties": {"magmom": 2.052}, "label": "U", "xyz": [-1.6922482987500003, 4.39658950625, 4.188100918749999]}, {"species": [{"element": "U", "occu": 1}], "abc": [0.375, 0.25, 0.625], "properties": {"magmom": 2.052}, "label": "U", "xyz": [1.6922483037499998, 1.4655298387499998, 2.9915006562499995]}, {"species": [{"element": "U", "occu": 1}], "abc": [0.25, 0.625, 0.375], "properties": {"magmom": 2.052}, "label": "U", "xyz": [-0.42306207750000013, 3.6638245799999996, 0.5983003937499998]}, {"species": [{"element": "P", "occu": 1}], "abc": [0.6606851, 0.6606851, 0.6606851], "properties": {"magmom": -0.133}, "label": "P", "xyz": [2.2360864746206595, 3.873014895752983, 1.5811522750393547]}, {"species": [{"element": "P", "occu": 1}], "abc": [0.3393149, 0.5, 1.0], "properties": {"magmom": -0.133}, "label": "P", "xyz": [0.6045719557586798, 2.931059676606851, 5.17095263132]}, {"species": [{"element": "P", "occu": 1}], "abc": [0.5, 1.0, 0.3393149], "properties": {"magmom": -0.133}, "label": "P", "xyz": [-6.6068513833145004e-09, 5.862119321786297, -1.1536543876793557]}, {"species": [{"element": "P", "occu": 1}], "abc": [0.0, 0.3393149, 0.5], "properties": {"magmom": -0.133}, "label": "P", "xyz": [-1.148410123772489, 1.9891044408538676, 2.77775210632]}, {"species": [{"element": "P", "occu": 1}], "abc": [0.5, 1.0, 0.8393149], "properties": {"magmom": -0.133}, "label": "P", "xyz": [-1.6068513833144995e-09, 5.862119331786297, 2.4361461373206446]}, {"species": [{"element": "P", "occu": 1}], "abc": [0.0, 0.8393149, 0.5], "properties": {"magmom": -0.133}, "label": "P", "xyz": [-2.840658428772489, 4.920164100853867, 1.5811521063199998]}, {"species": [{"element": "P", "occu": 1}], "abc": [0.1606851, 0.1606851, 0.1606851], "properties": {"magmom": -0.133}, "label": "P", "xyz": [0.5438381746206599, 0.9419552307529829, 0.38455175003935493]}, {"species": [{"element": "P", "occu": 1}], "abc": [0.8393149, 0.5, 1.0], "properties": {"magmom": -0.133}, "label": "P", "xyz": [3.989068555758679, 2.931059671606851, 3.9743526313199995]}]}, "task_ids": null, "uncorrected_energy_per_atom": null, "energy_per_atom": -40.617200512857146, "formation_energy_per_atom": -1.2122840667006791, "energy_above_hull": 0.0, "is_stable": true, "equilibrium_reaction_energy_per_atom": null, "decomposes_to": null, "xas": null, "grain_boundaries": null, "band_gap": 0.0, "cbm": null, "vbm": null, "efermi": 10.30334916, "is_gap_direct": null, "is_metal": null, "es_source_calc_id": null, "bandstructure": null, "dos": null, "dos_energy_up": null, "dos_energy_down": null, "is_magnetic": null, "ordering": null, "total_magnetization": 11.9999948, "total_magnetization_normalized_vol": null, "total_magnetization_normalized_formula_units": null, "num_magnetic_sites": null, "num_unique_magnetic_sites": null, "types_of_magnetic_species": null, "bulk_modulus": null, "shear_modulus": null, "universal_anisotropy": null, "homogeneous_poisson": null, "e_total": null, "e_ionic": null, "e_electronic": null, "n": null, "e_ij_max": null, "weighted_surface_energy_EV_PER_ANG2": null, "weighted_surface_energy": null, "weighted_work_function": null, "surface_anisotropy": null, "shape_factor": null, "has_reconstructed": null, "possible_species": null, "has_props": null, "theoretical": null, "database_IDs": null, "fields_not_requested": ["builder_meta", "nsites", "elements", "nelements", "composition", "composition_reduced", "chemsys", "symmetry", "property_name", "deprecated", "deprecation_reasons", "last_updated", "origins", "warnings", "task_ids", "uncorrected_energy_per_atom", "equilibrium_reaction_energy_per_atom", "decomposes_to", "xas", "grain_boundaries", "cbm", "vbm", "is_gap_direct", "is_metal", "es_source_calc_id", "bandstructure", "dos", "dos_energy_up", "dos_energy_down", "is_magnetic", "ordering", "total_magnetization_normalized_vol", "total_magnetization_normalized_formula_units", "num_magnetic_sites", "num_unique_magnetic_sites", "types_of_magnetic_species", "bulk_modulus", "shear_modulus", "universal_anisotropy", "homogeneous_poisson", "e_total", "e_ionic", "e_electronic", "n", "e_ij_max", "weighted_surface_energy_EV_PER_ANG2", "weighted_surface_energy", "weighted_work_function", "surface_anisotropy", "shape_factor", "has_reconstructed", "possible_species", "has_props", "theoretical", "database_IDs"]}