{"builder_meta": null, "nsites": null, "elements": null, "nelements": null, "composition": null, "composition_reduced": null, "formula_pretty": "U3S5", "formula_anonymous": "A3B5", "chemsys": null, "volume": 713.9194067504266, "density": 8.135343145061093, "density_atomic": 22.30998146095083, "symmetry": null, "property_name": null, "material_id": "mp-22536", "deprecated": null, "deprecation_reasons": null, "last_updated": null, "origins": null, "warnings": null, "structure": {"@module": "pymatgen.core.structure", "@class": "Structure", "charge": 0, "lattice": {"matrix": [[7.46860755, -0.0, 0.0], [-0.0, 8.02007232, 0.0], [0.0, 0.0, 11.91876519]], "pbc": [true, true, true], "a": 7.46860755, "b": 8.02007232, "c": 11.91876519, "alpha": 90.0, "beta": 90.0, "gamma": 90.0, "volume": 713.9194067504266}, "properties": {}, "sites": [{"species": [{"element": "U", "occu": 1}], "abc": [0.9262868200000001, 0.75, 0.49124164000000003], "properties": {"magmom": 2.29}, "label": "U", "xyz": [6.918072737317491, 6.01505424, 5.8549937587105125]}, {"species": [{"element": "U", "occu": 1}], "abc": [0.42628682, 0.25, 0.00875836], "properties": {"magmom": 2.29}, "label": "U", "xyz": [3.183768962317491, 2.00501808, 0.1043888362894884]}, {"species": [{"element": "U", "occu": 1}], "abc": [0.07371318, 0.25, 0.50875836], "properties": {"magmom": 2.29}, "label": "U", "xyz": [0.550534812682509, 2.00501808, 6.063771431289488]}, {"species": [{"element": "U", "occu": 1}], "abc": [0.57371318, 0.75, 0.99124164], "properties": {"magmom": 2.29}, "label": "U", "xyz": [4.2848385876825095, 6.01505424, 11.814376353710513]}, {"species": [{"element": "U", "occu": 1}], "abc": [0.47936304, 0.99937126, 0.32212698], "properties": {"magmom": 2.716}, "label": "U", "xyz": [3.580174419734952, 8.015029779729524, 3.8393558359838265]}, {"species": [{"element": "U", "occu": 1}], "abc": [0.9793630400000001, 0.00062874, 0.17787302], "properties": {"magmom": 2.716}, "label": "U", "xyz": [7.314478194734952, 0.0050425402704768005, 2.1200267590161737]}, {"species": [{"element": "U", "occu": 1}], "abc": [0.52063696, 0.49937126, 0.67787302], "properties": {"magmom": 2.716}, "label": "U", "xyz": [3.888433130265048, 4.0049936197295235, 8.079409354016175]}, {"species": [{"element": "U", "occu": 1}], "abc": [0.02063696, 0.50062874, 0.8221269800000001], "properties": {"magmom": 2.716}, "label": "U", "xyz": [0.15412935526504798, 4.015078700270477, 9.798738430983827]}, {"species": [{"element": "U", "occu": 1}], "abc": [0.52063696, 0.00062874, 0.67787302], "properties": {"magmom": 2.716}, "label": "U", "xyz": [3.888433130265048, 0.0050425402704768005, 8.079409354016175]}, {"species": [{"element": "U", "occu": 1}], "abc": [0.02063696, 0.99937126, 0.8221269800000001], "properties": {"magmom": 2.716}, "label": "U", "xyz": [0.15412935526504798, 8.015029779729524, 9.798738430983827]}, {"species": [{"element": "U", "occu": 1}], "abc": [0.47936304, 0.50062874, 0.32212698], "properties": {"magmom": 2.716}, "label": "U", "xyz": [3.580174419734952, 4.015078700270477, 3.8393558359838265]}, {"species": [{"element": "U", "occu": 1}], "abc": [0.9793630400000001, 0.49937126, 0.17787302], "properties": {"magmom": 2.716}, "label": "U", "xyz": [7.314478194734952, 4.0049936197295235, 2.1200267590161737]}, {"species": [{"element": "S", "occu": 1}], "abc": [0.17181591000000002, 0.75, 0.31337935], "properties": {"magmom": -0.063}, "label": "S", "xyz": [1.2832256026361206, 6.01505424, 3.7350948880448267]}, {"species": [{"element": "S", "occu": 1}], "abc": [0.67181591, 0.25, 0.18662065], "properties": {"magmom": -0.063}, "label": "S", "xyz": [5.01752937763612, 2.00501808, 2.2242877069551734]}, {"species": [{"element": "S", "occu": 1}], "abc": [0.82818409, 0.25, 0.68662065], "properties": {"magmom": -0.063}, "label": "S", "xyz": [6.185381947363879, 2.00501808, 8.183670301955175]}, {"species": [{"element": "S", "occu": 1}], "abc": [0.32818409, 0.75, 0.8133793500000001], "properties": {"magmom": -0.063}, "label": "S", "xyz": [2.4510781723638795, 6.01505424, 9.694477483044828]}, {"species": [{"element": "S", "occu": 1}], "abc": [0.54089563, 0.75, 0.500996], "properties": {"magmom": -0.063}, "label": "S", "xyz": [4.039737185980006, 6.01505424, 5.97125368512924]}, {"species": [{"element": "S", "occu": 1}], "abc": [0.04089563, 0.25, -0.000996], "properties": {"magmom": -0.063}, "label": "S", "xyz": [0.3054334109800065, 2.00501808, -0.01187109012924]}, {"species": [{"element": "S", "occu": 1}], "abc": [0.45910437, 0.25, 0.499004], "properties": {"magmom": -0.063}, "label": "S", "xyz": [3.428870364019993, 2.00501808, 5.94751150487076]}, {"species": [{"element": "S", "occu": 1}], "abc": [0.95910437, 0.75, 0.000996], "properties": {"magmom": -0.063}, "label": "S", "xyz": [7.1631741390199934, 6.01505424, 0.01187109012924]}, {"species": [{"element": "S", "occu": 1}], "abc": [0.80135182, 0.75, 0.7163060800000001], "properties": {"magmom": -0.061}, "label": "S", "xyz": [5.9849822530582415, 6.01505424, 8.537483971689356]}, {"species": [{"element": "S", "occu": 1}], "abc": [0.30135182, 0.25, 0.78369392], "properties": {"magmom": -0.061}, "label": "S", "xyz": [2.2506784780582407, 2.00501808, 9.340663813310645]}, {"species": [{"element": "S", "occu": 1}], "abc": [0.19864818, 0.25, 0.28369392], "properties": {"magmom": -0.061}, "label": "S", "xyz": [1.483625296941759, 2.00501808, 3.3812812183106447]}, {"species": [{"element": "S", "occu": 1}], "abc": [0.6986481800000001, 0.75, 0.21630608], "properties": {"magmom": -0.061}, "label": "S", "xyz": [5.217929071941759, 6.01505424, 2.5781013766893555]}, {"species": [{"element": "S", "occu": 1}], "abc": [0.16256686, 0.54290182, 0.59943349], "properties": {"magmom": -0.081}, "label": "S", "xyz": [1.214148077975793, 4.354111859059622, 7.144507014332214]}, {"species": [{"element": "S", "occu": 1}], "abc": [0.66256686, 0.45709818, 0.90056651], "properties": {"magmom": -0.081}, "label": "S", "xyz": [4.948451852975793, 3.665960460940378, 10.733640770667787]}, {"species": [{"element": "S", "occu": 1}], "abc": [0.83743314, 0.04290182, 0.40056651], "properties": {"magmom": -0.081}, "label": "S", "xyz": [6.254459472024207, 0.34407569905962243, 4.774258175667787]}, {"species": [{"element": "S", "occu": 1}], "abc": [0.33743314, 0.95709818, 0.09943349], "properties": {"magmom": -0.081}, "label": "S", "xyz": [2.520155697024207, 7.675996620940379, 1.185124419332213]}, {"species": [{"element": "S", "occu": 1}], "abc": [0.83743314, 0.45709818, 0.40056651], "properties": {"magmom": -0.081}, "label": "S", "xyz": [6.254459472024207, 3.665960460940378, 4.774258175667787]}, {"species": [{"element": "S", "occu": 1}], "abc": [0.33743314, 0.54290182, 0.09943349], "properties": {"magmom": -0.081}, "label": "S", "xyz": [2.520155697024207, 4.354111859059622, 1.185124419332213]}, {"species": [{"element": "S", "occu": 1}], "abc": [0.16256686, 0.95709818, 0.59943349], "properties": {"magmom": -0.081}, "label": "S", "xyz": [1.214148077975793, 7.675996620940379, 7.144507014332214]}, {"species": [{"element": "S", "occu": 1}], "abc": [0.66256686, 0.04290182, 0.90056651], "properties": {"magmom": -0.081}, "label": "S", "xyz": [4.948451852975793, 0.34407569905962243, 10.733640770667787]}]}, "task_ids": null, "uncorrected_energy_per_atom": null, "energy_per_atom": -36.908411975625, "formation_energy_per_atom": -1.908273814882818, "energy_above_hull": 0.0, "is_stable": true, "equilibrium_reaction_energy_per_atom": null, "decomposes_to": null, "xas": null, "grain_boundaries": null, "band_gap": 0.0, "cbm": null, "vbm": null, "efermi": 9.48088003, "is_gap_direct": null, "is_metal": null, "es_source_calc_id": null, "bandstructure": null, "dos": null, "dos_energy_up": null, "dos_energy_down": null, "is_magnetic": null, "ordering": null, "total_magnetization": 31.9998363, "total_magnetization_normalized_vol": null, "total_magnetization_normalized_formula_units": null, "num_magnetic_sites": null, "num_unique_magnetic_sites": null, "types_of_magnetic_species": null, "bulk_modulus": null, "shear_modulus": null, "universal_anisotropy": null, "homogeneous_poisson": null, "e_total": null, "e_ionic": null, "e_electronic": null, "n": null, "e_ij_max": null, "weighted_surface_energy_EV_PER_ANG2": null, "weighted_surface_energy": null, "weighted_work_function": null, "surface_anisotropy": null, "shape_factor": null, "has_reconstructed": null, "possible_species": null, "has_props": null, "theoretical": null, "database_IDs": null, "fields_not_requested": ["builder_meta", "nsites", "elements", "nelements", "composition", "composition_reduced", "chemsys", "symmetry", "property_name", "deprecated", "deprecation_reasons", "last_updated", "origins", "warnings", "task_ids", "uncorrected_energy_per_atom", "equilibrium_reaction_energy_per_atom", "decomposes_to", "xas", "grain_boundaries", "cbm", "vbm", "is_gap_direct", "is_metal", "es_source_calc_id", "bandstructure", "dos", "dos_energy_up", "dos_energy_down", "is_magnetic", "ordering", "total_magnetization_normalized_vol", "total_magnetization_normalized_formula_units", "num_magnetic_sites", "num_unique_magnetic_sites", "types_of_magnetic_species", "bulk_modulus", "shear_modulus", "universal_anisotropy", "homogeneous_poisson", "e_total", "e_ionic", "e_electronic", "n", "e_ij_max", "weighted_surface_energy_EV_PER_ANG2", "weighted_surface_energy", "weighted_work_function", "surface_anisotropy", "shape_factor", "has_reconstructed", "possible_species", "has_props", "theoretical", "database_IDs"]}