{
  "builder_meta": null,
  "nsites": null,
  "elements": null,
  "nelements": null,
  "composition": null,
  "composition_reduced": null,
  "formula_pretty": "U3Sb4",
  "formula_anonymous": "A3B4",
  "chemsys": null,
  "volume": 394.3026681357097,
  "density": 10.116684568900984,
  "density_atomic": 28.164476295407837,
  "symmetry": null,
  "property_name": null,
  "material_id": "mp-1975094",
  "deprecated": null,
  "deprecation_reasons": null,
  "last_updated": null,
  "origins": null,
  "warnings": null,
  "structure": {
    "@module": "pymatgen.core.structure",
    "@class": "Structure",
    "charge": 0,
    "lattice": {
      "matrix": [
        [7.59541888, -0.00054757, -2.6306851],
        [-3.7980403, 6.57833663, -2.63040892],
        [-0.00012529000000000002, 0.00023072000000000001, 7.89177585]
      ],
      "pbc": [true, true, true],
      "a": 8.038090093912569,
      "b": 8.038574128814103,
      "c": 7.891775854367161,
      "alpha": 109.09842327051014,
      "beta": 109.10451659232196,
      "gamma": 109.84152420089215,
      "volume": 394.30266813570967
    },
    "properties": {},
    "sites": [
      {
        "species": [{ "element": "U", "occu": 1 }],
        "abc": [0.74798808, 0.87315872, 0.12384719],
        "properties": { "magmom": -2.345 },
        "label": "U",
        "xyz": [2.3649752611761, 5.743550989770625, -3.287111319565029]
      },
      {
        "species": [{ "element": "U", "occu": 1 }],
        "abc": [0.62687167, 0.3748687, 0.25074444],
        "properties": { "magmom": -2.345 },
        "label": "U",
        "xyz": [3.337555072075633, 2.465727096287336, -0.6563410180761466]
      },
      {
        "species": [{ "element": "U", "occu": 1 }],
        "abc": [0.87489596, 0.12686939, 0.75073712],
        "properties": { "magmom": -2.345 },
        "label": "U",
        "xyz": [6.163252176709544, 0.8342836987502649, 3.2893549321613973]
      },
      {
        "species": [{ "element": "U", "occu": 1 }],
        "abc": [0.12510399, 0.75198208, 0.87584684],
        "properties": { "magmom": -2.345 },
        "label": "U",
        "xyz": [-1.905950771959076, 4.94692483415871, 4.604857366855111]
      },
      {
        "species": [{ "element": "U", "occu": 1 }],
        "abc": [0.37314127, 0.2480248, 0.6238790200000001],
        "properties": { "magmom": -2.346 },
        "label": "U",
        "xyz": [1.8920778954633224, 1.6315302473907045, 3.289489557872374]
      },
      {
        "species": [{ "element": "U", "occu": 1 }],
        "abc": [0.251976, 0.62513973, 0.37582843],
        "properties": { "magmom": -2.345 },
        "label": "U",
        "xyz": [-0.46048970750823376, 4.11232832136436, 0.658711096821424]
      },
      {
        "species": [{ "element": "Sb", "occu": 1 }],
        "abc": [0.65974615, 0.65762626, 0.65750359],
        "properties": { "magmom": 0.125 },
        "label": "Sb",
        "xyz": [2.513274947274244, 4.325877357036833, 1.7234606059326971]
      },
      {
        "species": [{ "element": "Sb", "occu": 1 }],
        "abc": [0.34024172, 0.49785023, 0.997752099999999],
        "properties": { "magmom": 0.125 },
        "label": "Sb",
        "xyz": [0.693298138586796, 3.2750702994688163, 5.669417418048353]
      },
      {
        "species": [{ "element": "Sb", "occu": 1 }],
        "abc": [0.49998951, -1.3040000000000002e-5, 0.34437848],
        "properties": { "magmom": 0.14300000000000002 },
        "label": "Sb",
        "xyz": [3.797636143321702, -0.00028010576274030007, 1.4024771181427236]
      },
      {
        "species": [{ "element": "Sb", "occu": 1 }],
        "abc": [0.0021541200000000003, 0.34239569000000003, 0.49992298],
        "properties": { "magmom": 0.125 },
        "label": "Sb",
        "xyz": [-1.2841338207986857, 2.252508272179582, 3.038972611890866]
      },
      {
        "species": [{ "element": "Sb", "occu": 1 }],
        "abc": [0.50000978, -2.3500000000000002e-5, 0.84444226],
        "properties": { "magmom": 0.14300000000000002 },
        "label": "Sb",
        "xyz": [3.797767176972941, -0.0002335515478124, 5.348842570696763]
      },
      {
        "species": [{ "element": "Sb", "occu": 1 }],
        "abc": [0.99786485, 0.84027573, 0.49780028],
        "properties": { "magmom": 0.125 },
        "label": "Sb",
        "xyz": [4.3877380663293675, 5.5271850655836765, -0.906808740333009]
      },
      {
        "species": [{ "element": "Sb", "occu": 1 }],
        "abc": [0.15758365, 0.159707699999999, 0.15744356],
        "properties": { "magmom": 0.125 },
        "label": "Sb",
        "xyz": [0.5903178234653734, 1.050561050301977, 0.4078597658147298]
      },
      {
        "species": [{ "element": "Sb", "occu": 1 }],
        "abc": [0.84243125, 0.502134499999999, -0.00012729],
        "properties": { "magmom": 0.125 },
        "label": "Sb",
        "xyz": [4.491491170279817, 3.3027484550888175, -3.5379949491370586]
      }
    ]
  },
  "task_ids": null,
  "uncorrected_energy_per_atom": null,
  "energy_per_atom": -49.57836351857143,
  "formation_energy_per_atom": -0.628167404999999,
  "energy_above_hull": 0.0,
  "is_stable": true,
  "equilibrium_reaction_energy_per_atom": null,
  "decomposes_to": null,
  "xas": null,
  "grain_boundaries": null,
  "band_gap": 0.0,
  "cbm": null,
  "vbm": null,
  "efermi": 8.83810546,
  "is_gap_direct": null,
  "is_metal": null,
  "es_source_calc_id": null,
  "bandstructure": null,
  "dos": null,
  "dos_energy_up": null,
  "dos_energy_down": null,
  "is_magnetic": null,
  "ordering": null,
  "total_magnetization": 13.3660948,
  "total_magnetization_normalized_vol": null,
  "total_magnetization_normalized_formula_units": null,
  "num_magnetic_sites": null,
  "num_unique_magnetic_sites": null,
  "types_of_magnetic_species": null,
  "bulk_modulus": null,
  "shear_modulus": null,
  "universal_anisotropy": null,
  "homogeneous_poisson": null,
  "e_total": null,
  "e_ionic": null,
  "e_electronic": null,
  "n": null,
  "e_ij_max": null,
  "weighted_surface_energy_EV_PER_ANG2": null,
  "weighted_surface_energy": null,
  "weighted_work_function": null,
  "surface_anisotropy": null,
  "shape_factor": null,
  "has_reconstructed": null,
  "possible_species": null,
  "has_props": null,
  "theoretical": null,
  "database_IDs": null,
  "fields_not_requested": [
    "builder_meta",
    "nsites",
    "elements",
    "nelements",
    "composition",
    "composition_reduced",
    "chemsys",
    "symmetry",
    "property_name",
    "deprecated",
    "deprecation_reasons",
    "last_updated",
    "origins",
    "warnings",
    "task_ids",
    "uncorrected_energy_per_atom",
    "equilibrium_reaction_energy_per_atom",
    "decomposes_to",
    "xas",
    "grain_boundaries",
    "cbm",
    "vbm",
    "is_gap_direct",
    "is_metal",
    "es_source_calc_id",
    "bandstructure",
    "dos",
    "dos_energy_up",
    "dos_energy_down",
    "is_magnetic",
    "ordering",
    "total_magnetization_normalized_vol",
    "total_magnetization_normalized_formula_units",
    "num_magnetic_sites",
    "num_unique_magnetic_sites",
    "types_of_magnetic_species",
    "bulk_modulus",
    "shear_modulus",
    "universal_anisotropy",
    "homogeneous_poisson",
    "e_total",
    "e_ionic",
    "e_electronic",
    "n",
    "e_ij_max",
    "weighted_surface_energy_EV_PER_ANG2",
    "weighted_surface_energy",
    "weighted_work_function",
    "surface_anisotropy",
    "shape_factor",
    "has_reconstructed",
    "possible_species",
    "has_props",
    "theoretical",
    "database_IDs"
  ]
}
