{"builder_meta": null, "nsites": null, "elements": null, "nelements": null, "composition": null, "composition_reduced": null, "formula_pretty": "U3Se4", "formula_anonymous": "A3B4", "chemsys": null, "volume": 347.2150957383038, "density": 9.85114755603595, "density_atomic": 24.801078267021698, "symmetry": null, "property_name": null, "material_id": "mp-20328", "deprecated": null, "deprecation_reasons": null, "last_updated": null, "origins": null, "warnings": null, "structure": {"@module": "pymatgen.core.structure", "@class": "Structure", "charge": 0, "lattice": {"matrix": [[-4.42957956, 4.42856018, 4.42556506], [4.42961926, -4.42809912, 4.42486576], [4.42959552, 4.42807903, -4.42495418]], "pbc": [true, true, true], "a": 7.669351109875217, "b": 7.66870429728048, "c": 7.6687300031901815, "alpha": 109.43330599529817, "beta": 109.46029540460061, "gamma": 109.51696126006921, "volume": 347.2150957383038}, "properties": {}, "sites": [{"species": [{"element": "U", "occu": 1}], "abc": [0.87509665, 0.24993951, 0.12510779], "properties": {"magmom": 2.985}, "label": "U", "xyz": [-2.2149964604324106, 3.322648434945809, 4.425149699922165]}, {"species": [{"element": "U", "occu": 1}], "abc": [0.12507385000000001, 0.87498893, 0.2499314], "properties": {"magmom": 2.985999999999999}, "label": "U", "xyz": [4.428938256911614, -2.213924647994906, 3.3192960240724667]}, {"species": [{"element": "U", "occu": 1}], "abc": [0.37518014, 0.62506018, 0.74997883], "properties": {"magmom": 2.987}, "label": "U", "xyz": [4.42899119798797, 2.2146449253927187, 1.1075695484913357]}, {"species": [{"element": "U", "occu": 1}], "abc": [0.24996711, 0.12477871, 0.87487379], "properties": {"magmom": 2.985999999999999}, "label": "U", "xyz": [3.320809996675104, 4.428472177105569, -2.212901684411796]}, {"species": [{"element": "U", "occu": 1}], "abc": [0.74990888, 0.37513727, 0.62520391], "properties": {"magmom": 2.985}, "label": "U", "xyz": [1.1093346684478111, 4.428323912775204, 2.212203943927765]}, {"species": [{"element": "U", "occu": 1}], "abc": [0.62472109, 0.74996608, 0.37479948], "properties": {"magmom": 2.985999999999999}, "label": "U", "xyz": [2.2150225188561103, 1.105332521745251, 4.42477253101471]}, {"species": [{"element": "Se", "occu": 1}], "abc": [0.50002238, 8.011e-05, 0.65138144], "properties": {"magmom": -0.05}, "label": "Se", "xyz": [0.6708222512435147, 5.098392961151529, -0.6690969755603429]}, {"species": [{"element": "Se", "occu": 1}], "abc": [0.15140107, 0.49996237, 8.67e-06], "properties": {"magmom": -0.05}, "label": "Se", "xyz": [1.5440382629862752, -1.5433557893735315, 2.8822632933873256]}, {"species": [{"element": "Se", "occu": 1}], "abc": [0.34857339, 0.34848392, 0.34872582], "properties": {"magmom": -0.05}, "label": "Se", "xyz": [1.5443318503087176, 1.5447423860370144, 1.5415330062654053]}, {"species": [{"element": "Se", "occu": 1}], "abc": [1.252e-05, 0.15137352, 0.49982721], "properties": {"magmom": -0.049}, "label": "Se", "xyz": [2.8845039715000036, 1.5430328820945576, -1.5418495884740113]}, {"species": [{"element": "Se", "occu": 1}], "abc": [0.84855262, 0.84853133, 0.84873904], "properties": {"magmom": -0.05}, "label": "Se", "xyz": [3.7595100301780704, 3.758769052867573, 3.7543306922705306]}, {"species": [{"element": "Se", "occu": 1}], "abc": [2.8100000000000002e-05, 0.65126988, 0.49983266], "properties": {"magmom": -0.049}, "label": "Se", "xyz": [5.098809644205936, -0.6704646197143274, 0.6701695327419754]}, {"species": [{"element": "Se", "occu": 1}], "abc": [0.50002091, 0.0001558, 0.15153867000000001], "properties": {"magmom": -0.05}, "label": "Se", "xyz": [-1.542937254089133, 2.884708000211558, 1.543012791402672]}, {"species": [{"element": "Se", "occu": 1}], "abc": [0.6514412900000001, 0.50027239, 5.0300000000000016e-05], "properties": {"magmom": -0.05}, "label": "Se", "xyz": [-0.6693720000791449, 0.6699139589577446, 5.0964114056544405]}]}, "task_ids": null, "uncorrected_energy_per_atom": null, "energy_per_atom": -8.191017197857139, "formation_energy_per_atom": -1.354177777767853, "energy_above_hull": 0.037985345714284004, "is_stable": false, "equilibrium_reaction_energy_per_atom": null, "decomposes_to": null, "xas": null, "grain_boundaries": null, "band_gap": 0.0, "cbm": null, "vbm": null, "efermi": 9.30547552, "is_gap_direct": null, "is_metal": null, "es_source_calc_id": null, "bandstructure": null, "dos": null, "dos_energy_up": null, "dos_energy_down": null, "is_magnetic": null, "ordering": null, "total_magnetization": 19.9484301, "total_magnetization_normalized_vol": null, "total_magnetization_normalized_formula_units": null, "num_magnetic_sites": null, "num_unique_magnetic_sites": null, "types_of_magnetic_species": null, "bulk_modulus": null, "shear_modulus": null, "universal_anisotropy": null, "homogeneous_poisson": null, "e_total": null, "e_ionic": null, "e_electronic": null, "n": null, "e_ij_max": null, "weighted_surface_energy_EV_PER_ANG2": null, "weighted_surface_energy": null, "weighted_work_function": null, "surface_anisotropy": null, "shape_factor": null, "has_reconstructed": null, "possible_species": null, "has_props": null, "theoretical": null, "database_IDs": null, "fields_not_requested": ["builder_meta", "nsites", "elements", "nelements", "composition", "composition_reduced", "chemsys", "symmetry", "property_name", "deprecated", "deprecation_reasons", "last_updated", "origins", "warnings", "task_ids", "uncorrected_energy_per_atom", "equilibrium_reaction_energy_per_atom", "decomposes_to", "xas", "grain_boundaries", "cbm", "vbm", "is_gap_direct", "is_metal", "es_source_calc_id", "bandstructure", "dos", "dos_energy_up", "dos_energy_down", "is_magnetic", "ordering", "total_magnetization_normalized_vol", "total_magnetization_normalized_formula_units", "num_magnetic_sites", "num_unique_magnetic_sites", "types_of_magnetic_species", "bulk_modulus", "shear_modulus", "universal_anisotropy", "homogeneous_poisson", "e_total", "e_ionic", "e_electronic", "n", "e_ij_max", "weighted_surface_energy_EV_PER_ANG2", "weighted_surface_energy", "weighted_work_function", "surface_anisotropy", "shape_factor", "has_reconstructed", "possible_species", "has_props", "theoretical", "database_IDs"]}