{"builder_meta": null, "nsites": null, "elements": null, "nelements": null, "composition": null, "composition_reduced": null, "formula_pretty": "U3Se5", "formula_anonymous": "A3B5", "chemsys": null, "volume": 819.7291433472125, "density": 8.985161747845218, "density_atomic": 25.61653572960039, "symmetry": null, "property_name": null, "material_id": "mp-669684", "deprecated": null, "deprecation_reasons": null, "last_updated": null, "origins": null, "warnings": null, "structure": {"@module": "pymatgen.core.structure", "@class": "Structure", "charge": 0, "lattice": {"matrix": [[7.84139946, 0.0, 0.0], [0.0, 8.38042145, 0.0], [0.0, 0.0, 12.47414929]], "pbc": [true, true, true], "a": 7.84139946, "b": 8.38042145, "c": 12.47414929, "alpha": 90.0, "beta": 90.0, "gamma": 90.0, "volume": 819.7291433472125}, "properties": {}, "sites": [{"species": [{"element": "U", "occu": 1}], "abc": [0.5210846, 0.49942922, 0.32107835], "properties": {"magmom": 2.76}, "label": "U", "xyz": [4.086032501054316, 4.185427348044769, 4.005179271686871]}, {"species": [{"element": "U", "occu": 1}], "abc": [0.9789154, 0.00057078, 0.8210783500000001], "properties": {"magmom": 2.76}, "label": "U", "xyz": [7.676066688945684, 0.004783376955231, 10.242253916686872]}, {"species": [{"element": "U", "occu": 1}], "abc": [0.4789154, -0.00057078, 0.67892165], "properties": {"magmom": 2.76}, "label": "U", "xyz": [3.7553669589456837, -0.004783376955231, 8.46897001831313]}, {"species": [{"element": "U", "occu": 1}], "abc": [0.0210846, 0.50057078, 0.17892165000000002], "properties": {"magmom": 2.76}, "label": "U", "xyz": [0.16533277105431599, 4.194994101955231, 2.2318953733131286]}, {"species": [{"element": "U", "occu": 1}], "abc": [0.4789154, 0.50057078, 0.67892165], "properties": {"magmom": 2.76}, "label": "U", "xyz": [3.7553669589456837, 4.194994101955231, 8.46897001831313]}, {"species": [{"element": "U", "occu": 1}], "abc": [0.0210846, -0.00057078, 0.17892165000000002], "properties": {"magmom": 2.76}, "label": "U", "xyz": [0.16533277105431599, -0.004783376955231, 2.2318953733131286]}, {"species": [{"element": "U", "occu": 1}], "abc": [0.5210846, 0.00057078, 0.32107835], "properties": {"magmom": 2.76}, "label": "U", "xyz": [4.086032501054316, 0.004783376955231, 4.005179271686871]}, {"species": [{"element": "U", "occu": 1}], "abc": [0.9789154, 0.49942922, 0.8210783500000001], "properties": {"magmom": 2.76}, "label": "U", "xyz": [7.676066688945684, 4.185427348044769, 10.242253916686872]}, {"species": [{"element": "U", "occu": 1}], "abc": [0.07409679, 0.75, 0.49166453], "properties": {"magmom": 2.337}, "label": "U", "xyz": [0.5810225290937333, 6.2853160875, 6.133096747817683]}, {"species": [{"element": "U", "occu": 1}], "abc": [0.42590321000000003, 0.75, 0.99166453], "properties": {"magmom": 2.337}, "label": "U", "xyz": [3.3396772009062667, 6.2853160875, 12.370171392817683]}, {"species": [{"element": "U", "occu": 1}], "abc": [0.92590321, 0.25, 0.50833547], "properties": {"magmom": 2.337}, "label": "U", "xyz": [7.260376930906267, 2.0951053625, 6.341052542182316]}, {"species": [{"element": "U", "occu": 1}], "abc": [0.57409679, 0.25, 0.00833547], "properties": {"magmom": 2.337}, "label": "U", "xyz": [4.501722259093733, 2.0951053625, 0.10397789718231629]}, {"species": [{"element": "Se", "occu": 1}], "abc": [0.83565106, 0.9557393200000001, 0.59900779], "properties": {"magmom": -0.085}, "label": "Se", "xyz": [6.552673770632428, 8.009498297936414, 7.472112598332969]}, {"species": [{"element": "Se", "occu": 1}], "abc": [0.66434894, 0.54426068, 0.09900779], "properties": {"magmom": -0.085}, "label": "Se", "xyz": [5.209425419367572, 4.561133877063586, 1.235037953332969]}, {"species": [{"element": "Se", "occu": 1}], "abc": [0.16434894, 0.45573932, 0.40099221], "properties": {"magmom": -0.085}, "label": "Se", "xyz": [1.2887256893675725, 3.819287572936414, 5.002036691667031]}, {"species": [{"element": "Se", "occu": 1}], "abc": [0.33565106, 0.044260680000000004, 0.9009922100000001], "properties": {"magmom": -0.085}, "label": "Se", "xyz": [2.6319740406324277, 0.37092315206358606, 11.239111336667031]}, {"species": [{"element": "Se", "occu": 1}], "abc": [0.16434894, 0.044260680000000004, 0.40099221], "properties": {"magmom": -0.085}, "label": "Se", "xyz": [1.2887256893675725, 0.37092315206358606, 5.002036691667031]}, {"species": [{"element": "Se", "occu": 1}], "abc": [0.33565106, 0.45573932, 0.9009922100000001], "properties": {"magmom": -0.085}, "label": "Se", "xyz": [2.6319740406324277, 3.819287572936414, 11.239111336667031]}, {"species": [{"element": "Se", "occu": 1}], "abc": [0.83565106, 0.54426068, 0.59900779], "properties": {"magmom": -0.085}, "label": "Se", "xyz": [6.552673770632428, 4.561133877063586, 7.472112598332969]}, {"species": [{"element": "Se", "occu": 1}], "abc": [0.66434894, 0.9557393200000001, 0.09900779], "properties": {"magmom": -0.085}, "label": "Se", "xyz": [5.209425419367572, 8.009498297936414, 1.235037953332969]}, {"species": [{"element": "Se", "occu": 1}], "abc": [0.82752006, 0.75, 0.31482329000000003], "properties": {"magmom": -0.064}, "label": "Se", "xyz": [6.4889153516231675, 6.2853160875, 3.9271527194289644]}, {"species": [{"element": "Se", "occu": 1}], "abc": [0.67247994, 0.75, 0.81482329], "properties": {"magmom": -0.064}, "label": "Se", "xyz": [5.273183838376832, 6.2853160875, 10.164227364428964]}, {"species": [{"element": "Se", "occu": 1}], "abc": [0.17247994, 0.25, 0.68517671], "properties": {"magmom": -0.064}, "label": "Se", "xyz": [1.3524841083768324, 2.0951053625, 8.546996570571036]}, {"species": [{"element": "Se", "occu": 1}], "abc": [0.32752006, 0.25, 0.18517671], "properties": {"magmom": -0.064}, "label": "Se", "xyz": [2.5682156216231675, 2.0951053625, 2.309921925571036]}, {"species": [{"element": "Se", "occu": 1}], "abc": [0.45887839, 0.75, 0.50098772], "properties": {"magmom": -0.063}, "label": "Se", "xyz": [3.5982487595516695, 6.2853160875, 6.249395611736719]}, {"species": [{"element": "Se", "occu": 1}], "abc": [0.04112161, 0.75, 0.00098772], "properties": {"magmom": -0.063}, "label": "Se", "xyz": [0.3224509704483306, 6.2853160875, 0.012320966736718801]}, {"species": [{"element": "Se", "occu": 1}], "abc": [0.54112161, 0.25, 0.49901228000000003], "properties": {"magmom": -0.063}, "label": "Se", "xyz": [4.24315070044833, 2.0951053625, 6.224753678263282]}, {"species": [{"element": "Se", "occu": 1}], "abc": [0.95887839, 0.25, 0.99901228], "properties": {"magmom": -0.063}, "label": "Se", "xyz": [7.518948489551669, 2.0951053625, 12.46182832326328]}, {"species": [{"element": "Se", "occu": 1}], "abc": [0.19814811000000002, 0.75, 0.71615425], "properties": {"magmom": -0.057}, "label": "Se", "xyz": [1.5537584827540207, 6.2853160875, 8.933415029167982]}, {"species": [{"element": "Se", "occu": 1}], "abc": [0.30185189, 0.75, 0.21615425], "properties": {"magmom": -0.057}, "label": "Se", "xyz": [2.3669412472459794, 6.2853160875, 2.6963403841679825]}, {"species": [{"element": "Se", "occu": 1}], "abc": [0.80185189, 0.25, 0.28384575], "properties": {"magmom": -0.057}, "label": "Se", "xyz": [6.28764097724598, 2.0951053625, 3.5407342608320174]}, {"species": [{"element": "Se", "occu": 1}], "abc": [0.69814811, 0.25, 0.78384575], "properties": {"magmom": -0.057}, "label": "Se", "xyz": [5.47445821275402, 2.0951053625, 9.777808905832018]}]}, "task_ids": null, "uncorrected_energy_per_atom": null, "energy_per_atom": -7.872970177812498, "formation_energy_per_atom": -1.453746750527338, "energy_above_hull": 0.01262910549107, "is_stable": false, "equilibrium_reaction_energy_per_atom": null, "decomposes_to": null, "xas": null, "grain_boundaries": null, "band_gap": 0.0, "cbm": null, "vbm": null, "efermi": 7.91852615, "is_gap_direct": null, "is_metal": null, "es_source_calc_id": null, "bandstructure": null, "dos": null, "dos_energy_up": null, "dos_energy_down": null, "is_magnetic": null, "ordering": null, "total_magnetization": 32.0000019, "total_magnetization_normalized_vol": null, "total_magnetization_normalized_formula_units": null, "num_magnetic_sites": null, "num_unique_magnetic_sites": null, "types_of_magnetic_species": null, "bulk_modulus": null, "shear_modulus": null, "universal_anisotropy": null, "homogeneous_poisson": null, "e_total": null, "e_ionic": null, "e_electronic": null, "n": null, "e_ij_max": null, "weighted_surface_energy_EV_PER_ANG2": null, "weighted_surface_energy": null, "weighted_work_function": null, "surface_anisotropy": null, "shape_factor": null, "has_reconstructed": null, "possible_species": null, "has_props": null, "theoretical": null, "database_IDs": null, "fields_not_requested": ["builder_meta", "nsites", "elements", "nelements", "composition", "composition_reduced", "chemsys", "symmetry", "property_name", "deprecated", "deprecation_reasons", "last_updated", "origins", "warnings", "task_ids", "uncorrected_energy_per_atom", "equilibrium_reaction_energy_per_atom", "decomposes_to", "xas", "grain_boundaries", "cbm", "vbm", "is_gap_direct", "is_metal", "es_source_calc_id", "bandstructure", "dos", "dos_energy_up", "dos_energy_down", "is_magnetic", "ordering", "total_magnetization_normalized_vol", "total_magnetization_normalized_formula_units", "num_magnetic_sites", "num_unique_magnetic_sites", "types_of_magnetic_species", "bulk_modulus", "shear_modulus", "universal_anisotropy", "homogeneous_poisson", "e_total", "e_ionic", "e_electronic", "n", "e_ij_max", "weighted_surface_energy_EV_PER_ANG2", "weighted_surface_energy", "weighted_work_function", "surface_anisotropy", "shape_factor", "has_reconstructed", "possible_species", "has_props", "theoretical", "database_IDs"]}