{"builder_meta": null, "nsites": null, "elements": null, "nelements": null, "composition": null, "composition_reduced": null, "formula_pretty": "U3Si2", "formula_anonymous": "A2B3", "chemsys": null, "volume": 204.63059797459562, "density": 12.50099510704088, "density_atomic": 20.46305979745956, "symmetry": null, "property_name": null, "material_id": "mp-21346", "deprecated": null, "deprecation_reasons": null, "last_updated": null, "origins": null, "warnings": null, "structure": {"@module": "pymatgen.core.structure", "@class": "Structure", "charge": 0, "lattice": {"matrix": [[7.238981, 0.0, 0.0], [0.0, 7.238981, 0.0], [0.0, 0.0, 3.904951999999999]], "pbc": [true, true, true], "a": 7.238981, "b": 7.238981, "c": 3.904951999999999, "alpha": 90.0, "beta": 90.0, "gamma": 90.0, "volume": 204.63059797459556}, "properties": {}, "sites": [{"species": [{"element": "U", "occu": 1}], "abc": [0.8157000000000001, 0.6843, 0.5], "properties": {"magmom": -0.064}, "label": "U", "xyz": [5.9048368017, 4.9536346983, 1.9524759999999994]}, {"species": [{"element": "U", "occu": 1}], "abc": [0.31570000000000004, 0.8157000000000001, 0.5], "properties": {"magmom": -0.062}, "label": "U", "xyz": [2.2853463017, 5.9048368017, 1.9524759999999994]}, {"species": [{"element": "U", "occu": 1}], "abc": [0.18430000000000002, 0.31570000000000004, 0.5], "properties": {"magmom": -0.065}, "label": "U", "xyz": [1.3341441983000002, 2.2853463017, 1.9524759999999994]}, {"species": [{"element": "U", "occu": 1}], "abc": [0.6843, 0.18430000000000002, 0.5], "properties": {"magmom": -0.061}, "label": "U", "xyz": [4.9536346983, 1.3341441983000002, 1.9524759999999994]}, {"species": [{"element": "U", "occu": 1}], "abc": [0.5, 0.5, 0.0], "properties": {"magmom": 0.092}, "label": "U", "xyz": [3.6194905, 3.6194905, 0.0]}, {"species": [{"element": "U", "occu": 1}], "abc": [0.0, 0.0, 0.0], "properties": {"magmom": 0.093}, "label": "U", "xyz": [0.0, 0.0, 0.0]}, {"species": [{"element": "Si", "occu": 1}], "abc": [0.884872999999999, 0.384872999999999, 0.0], "properties": {"magmom": 0.001}, "label": "Si", "xyz": [6.405578834412993, 2.7860883344129928, 0.0]}, {"species": [{"element": "Si", "occu": 1}], "abc": [0.384872999999999, 0.115127, 0.0], "properties": {"magmom": 0.001}, "label": "Si", "xyz": [2.7860883344129928, 0.833402165587, 0.0]}, {"species": [{"element": "Si", "occu": 1}], "abc": [0.615127, 0.884872999999999, 0.0], "properties": {"magmom": 0.001}, "label": "Si", "xyz": [4.452892665587, 6.405578834412993, 0.0]}, {"species": [{"element": "Si", "occu": 1}], "abc": [0.115127, 0.615127, 0.0], "properties": {"magmom": 0.001}, "label": "Si", "xyz": [0.833402165587, 4.452892665587, 0.0]}]}, "task_ids": null, "uncorrected_energy_per_atom": null, "energy_per_atom": -51.63629459309999, "formation_energy_per_atom": -0.161566780099997, "energy_above_hull": 0.151177656500003, "is_stable": false, "equilibrium_reaction_energy_per_atom": null, "decomposes_to": null, "xas": null, "grain_boundaries": null, "band_gap": 0.0, "cbm": null, "vbm": null, "efermi": 11.28805237, "is_gap_direct": null, "is_metal": null, "es_source_calc_id": null, "bandstructure": null, "dos": null, "dos_energy_up": null, "dos_energy_down": null, "is_magnetic": null, "ordering": null, "total_magnetization": 0.1014863, "total_magnetization_normalized_vol": null, "total_magnetization_normalized_formula_units": null, "num_magnetic_sites": null, "num_unique_magnetic_sites": null, "types_of_magnetic_species": null, "bulk_modulus": null, "shear_modulus": null, "universal_anisotropy": null, "homogeneous_poisson": null, "e_total": null, "e_ionic": null, "e_electronic": null, "n": null, "e_ij_max": null, "weighted_surface_energy_EV_PER_ANG2": null, "weighted_surface_energy": null, "weighted_work_function": null, "surface_anisotropy": null, "shape_factor": null, "has_reconstructed": null, "possible_species": null, "has_props": null, "theoretical": null, "database_IDs": null, "fields_not_requested": ["builder_meta", "nsites", "elements", "nelements", "composition", "composition_reduced", "chemsys", "symmetry", "property_name", "deprecated", "deprecation_reasons", "last_updated", "origins", "warnings", "task_ids", "uncorrected_energy_per_atom", "equilibrium_reaction_energy_per_atom", "decomposes_to", "xas", "grain_boundaries", "cbm", "vbm", "is_gap_direct", "is_metal", "es_source_calc_id", "bandstructure", "dos", "dos_energy_up", "dos_energy_down", "is_magnetic", "ordering", "total_magnetization_normalized_vol", "total_magnetization_normalized_formula_units", "num_magnetic_sites", "num_unique_magnetic_sites", "types_of_magnetic_species", "bulk_modulus", "shear_modulus", "universal_anisotropy", "homogeneous_poisson", "e_total", "e_ionic", "e_electronic", "n", "e_ij_max", "weighted_surface_energy_EV_PER_ANG2", "weighted_surface_energy", "weighted_work_function", "surface_anisotropy", "shape_factor", "has_reconstructed", "possible_species", "has_props", "theoretical", "database_IDs"]}