{
  "builder_meta": null,
  "nsites": null,
  "elements": null,
  "nelements": null,
  "composition": null,
  "composition_reduced": null,
  "formula_pretty": "U3Si",
  "formula_anonymous": "AB3",
  "chemsys": null,
  "volume": 152.43626525668375,
  "density": 16.169459150490493,
  "density_atomic": 19.05453315708547,
  "symmetry": null,
  "property_name": null,
  "material_id": "mp-1078858",
  "deprecated": null,
  "deprecation_reasons": null,
  "last_updated": null,
  "origins": null,
  "warnings": null,
  "structure": {
    "@module": "pymatgen.core.structure",
    "@class": "Structure",
    "charge": 0,
    "lattice": {
      "matrix": [
        [-0.10223645, 4.20346893, 4.27397221],
        [0.07072244, -4.27445614, 4.20383152],
        [4.25538313, 0.12176908, -4.21945842]
      ],
      "pbc": [true, true, true],
      "a": 5.9955351545159195,
      "b": 5.995679811735176,
      "c": 5.993908795605881,
      "alpha": 119.97912361243493,
      "beta": 119.97920862870293,
      "gamma": 90.01229663677464,
      "volume": 152.43626525668375
    },
    "properties": {},
    "sites": [
      {
        "species": [{ "element": "U", "occu": 1 }],
        "abc": [0.71442313, 0.71526603, 0.00011655],
        "properties": { "magmom": -0.736 },
        "label": "U",
        "xyz": [-0.021958760814573812, -0.054303651652298966, 6.059790708021632]
      },
      {
        "species": [{ "element": "U", "occu": 1 }],
        "abc": [0.28555976, 0.28471268, -0.00011911],
        "properties": { "magmom": -0.735 },
        "label": "U",
        "xyz": [-0.009565899381327103, -0.016664788258717075, 2.417861196554349]
      },
      {
        "species": [{ "element": "U", "occu": 1 }],
        "abc": [0.23256768, 0.76811025, -1.166e-5],
        "properties": { "magmom": -0.497 },
        "label": "U",
        "xyz": [0.030496119313778193, -2.3056639771347256, 4.223043079934429]
      },
      {
        "species": [{ "element": "U", "occu": 1 }],
        "abc": [0.7674402100000001, 0.23189804, 1.393e-5],
        "properties": { "magmom": -0.497 },
        "label": "U",
        "xyz": [-0.062000689950636005, 2.2346747736789943, 4.254819643298995]
      },
      {
        "species": [{ "element": "U", "occu": 1 }],
        "abc": [0.23436132, 0.234375299999999, 0.46910745000000004],
        "properties": { "magmom": -0.461 },
        "label": "U",
        "xyz": [1.9888472526049366, 0.04042636947209575, 0.007548662641140069]
      },
      {
        "species": [{ "element": "U", "occu": 1 }],
        "abc": [0.76563587, 0.76563292, 0.53089378],
        "properties": { "magmom": -0.461 },
        "label": "U",
        "xyz": [2.235027970139195, 0.010308702526712385, 4.250814003058184]
      },
      {
        "species": [{ "element": "Si", "occu": 1 }],
        "abc": [0.24931621, 0.74943495, 0.49871529000000003],
        "properties": { "magmom": 0.025 },
        "label": "Si",
        "xyz": [2.1497372957864815, -2.0947057790325045, 2.111760388468906]
      },
      {
        "species": [{ "element": "Si", "occu": 1 }],
        "abc": [0.75069483, 0.25057082, 0.50128176],
        "properties": { "magmom": 0.025 },
        "label": "Si",
        "xyz": [2.0741185502113564, 2.1455090324987776, 2.1466688096945017]
      }
    ]
  },
  "task_ids": null,
  "uncorrected_energy_per_atom": null,
  "energy_per_atom": -62.42032252625,
  "formation_energy_per_atom": -0.27035390875000304,
  "energy_above_hull": 0.0,
  "is_stable": true,
  "equilibrium_reaction_energy_per_atom": null,
  "decomposes_to": null,
  "xas": null,
  "grain_boundaries": null,
  "band_gap": 0.0,
  "cbm": null,
  "vbm": null,
  "efermi": 13.55715976,
  "is_gap_direct": null,
  "is_metal": null,
  "es_source_calc_id": null,
  "bandstructure": null,
  "dos": null,
  "dos_energy_up": null,
  "dos_energy_down": null,
  "is_magnetic": null,
  "ordering": null,
  "total_magnetization": 3.3257133,
  "total_magnetization_normalized_vol": null,
  "total_magnetization_normalized_formula_units": null,
  "num_magnetic_sites": null,
  "num_unique_magnetic_sites": null,
  "types_of_magnetic_species": null,
  "bulk_modulus": null,
  "shear_modulus": null,
  "universal_anisotropy": null,
  "homogeneous_poisson": null,
  "e_total": null,
  "e_ionic": null,
  "e_electronic": null,
  "n": null,
  "e_ij_max": null,
  "weighted_surface_energy_EV_PER_ANG2": null,
  "weighted_surface_energy": null,
  "weighted_work_function": null,
  "surface_anisotropy": null,
  "shape_factor": null,
  "has_reconstructed": null,
  "possible_species": null,
  "has_props": null,
  "theoretical": null,
  "database_IDs": null,
  "fields_not_requested": [
    "builder_meta",
    "nsites",
    "elements",
    "nelements",
    "composition",
    "composition_reduced",
    "chemsys",
    "symmetry",
    "property_name",
    "deprecated",
    "deprecation_reasons",
    "last_updated",
    "origins",
    "warnings",
    "task_ids",
    "uncorrected_energy_per_atom",
    "equilibrium_reaction_energy_per_atom",
    "decomposes_to",
    "xas",
    "grain_boundaries",
    "cbm",
    "vbm",
    "is_gap_direct",
    "is_metal",
    "es_source_calc_id",
    "bandstructure",
    "dos",
    "dos_energy_up",
    "dos_energy_down",
    "is_magnetic",
    "ordering",
    "total_magnetization_normalized_vol",
    "total_magnetization_normalized_formula_units",
    "num_magnetic_sites",
    "num_unique_magnetic_sites",
    "types_of_magnetic_species",
    "bulk_modulus",
    "shear_modulus",
    "universal_anisotropy",
    "homogeneous_poisson",
    "e_total",
    "e_ionic",
    "e_electronic",
    "n",
    "e_ij_max",
    "weighted_surface_energy_EV_PER_ANG2",
    "weighted_surface_energy",
    "weighted_work_function",
    "surface_anisotropy",
    "shape_factor",
    "has_reconstructed",
    "possible_species",
    "has_props",
    "theoretical",
    "database_IDs"
  ]
}
