{
  "builder_meta": null,
  "nsites": null,
  "elements": null,
  "nelements": null,
  "composition": null,
  "composition_reduced": null,
  "formula_pretty": "U3Sn7",
  "formula_anonymous": "A3B7",
  "chemsys": null,
  "volume": 252.5519572527551,
  "density": 10.158808857341608,
  "density_atomic": 25.25519572527551,
  "symmetry": null,
  "property_name": null,
  "material_id": "mp-1205645",
  "deprecated": null,
  "deprecation_reasons": null,
  "last_updated": null,
  "origins": null,
  "warnings": null,
  "structure": {
    "@module": "pymatgen.core.structure",
    "@class": "Structure",
    "charge": 0,
    "lattice": {
      "matrix": [
        [2.2469200000000003, -12.06451, 0.0],
        [2.2469200000000003, 12.06451, 0.0],
        [0.0, 0.0, 4.658257]
      ],
      "pbc": [true, true, true],
      "a": 12.271961987657066,
      "b": 12.271961987657066,
      "c": 4.658257,
      "alpha": 90.0,
      "beta": 90.0,
      "gamma": 158.89996739760397,
      "volume": 252.55195725275516
    },
    "properties": {},
    "sites": [
      {
        "species": [{ "element": "U", "occu": 1 }],
        "abc": [0.808300999999999, 0.191698999999999, 0.0],
        "properties": { "magmom": 2.37 },
        "label": "U",
        "xyz": [2.246919999999996, -7.43900099502, 0.0]
      },
      {
        "species": [{ "element": "U", "occu": 1 }],
        "abc": [0.191698999999999, 0.808300999999999, 0.0],
        "properties": { "magmom": 2.37 },
        "label": "U",
        "xyz": [2.246919999999996, 7.43900099502, 0.0]
      },
      {
        "species": [{ "element": "U", "occu": 1 }],
        "abc": [0.0, 0.0, 0.0],
        "properties": { "magmom": 2.014 },
        "label": "U",
        "xyz": [0.0, 0.0, 0.0]
      },
      {
        "species": [{ "element": "Sn", "occu": 1 }],
        "abc": [0.901018, 0.098982, 0.5],
        "properties": { "magmom": -0.023 },
        "label": "Sn",
        "xyz": [2.2469200000000003, -9.67617134236, 2.3291285]
      },
      {
        "species": [{ "element": "Sn", "occu": 1 }],
        "abc": [0.098982, 0.901018, 0.5],
        "properties": { "magmom": -0.023 },
        "label": "Sn",
        "xyz": [2.2469200000000003, 9.67617134236, 2.3291285]
      },
      {
        "species": [{ "element": "Sn", "occu": 1 }],
        "abc": [0.705751, 0.294249, 0.5],
        "properties": { "magmom": -0.033 },
        "label": "Sn",
        "xyz": [2.2469200000000003, -4.964569994020001, 2.3291285]
      },
      {
        "species": [{ "element": "Sn", "occu": 1 }],
        "abc": [0.294249, 0.705751, 0.5],
        "properties": { "magmom": -0.033 },
        "label": "Sn",
        "xyz": [2.2469200000000003, 4.964569994020001, 2.3291285]
      },
      {
        "species": [{ "element": "Sn", "occu": 1 }],
        "abc": [0.597264, 0.402736, 0.0],
        "properties": { "magmom": -0.025 },
        "label": "Sn",
        "xyz": [2.2469200000000003, -2.3468850012800004, 0.0]
      },
      {
        "species": [{ "element": "Sn", "occu": 1 }],
        "abc": [0.402736, 0.597264, 0.0],
        "properties": { "magmom": -0.025 },
        "label": "Sn",
        "xyz": [2.2469200000000003, 2.3468850012800004, 0.0]
      },
      {
        "species": [{ "element": "Sn", "occu": 1 }],
        "abc": [0.5, 0.5, 0.5],
        "properties": { "magmom": -0.027 },
        "label": "Sn",
        "xyz": [2.2469200000000003, 0.0, 2.3291285]
      }
    ]
  },
  "task_ids": null,
  "uncorrected_energy_per_atom": null,
  "energy_per_atom": -6.320672802,
  "formation_energy_per_atom": -0.126549500499997,
  "energy_above_hull": 0.0,
  "is_stable": true,
  "equilibrium_reaction_energy_per_atom": null,
  "decomposes_to": null,
  "xas": null,
  "grain_boundaries": null,
  "band_gap": 0.0,
  "cbm": null,
  "vbm": null,
  "efermi": 10.08447382,
  "is_gap_direct": null,
  "is_metal": null,
  "es_source_calc_id": null,
  "bandstructure": null,
  "dos": null,
  "dos_energy_up": null,
  "dos_energy_down": null,
  "is_magnetic": null,
  "ordering": null,
  "total_magnetization": 7.2008332,
  "total_magnetization_normalized_vol": null,
  "total_magnetization_normalized_formula_units": null,
  "num_magnetic_sites": null,
  "num_unique_magnetic_sites": null,
  "types_of_magnetic_species": null,
  "bulk_modulus": null,
  "shear_modulus": null,
  "universal_anisotropy": null,
  "homogeneous_poisson": null,
  "e_total": null,
  "e_ionic": null,
  "e_electronic": null,
  "n": null,
  "e_ij_max": null,
  "weighted_surface_energy_EV_PER_ANG2": null,
  "weighted_surface_energy": null,
  "weighted_work_function": null,
  "surface_anisotropy": null,
  "shape_factor": null,
  "has_reconstructed": null,
  "possible_species": null,
  "has_props": null,
  "theoretical": null,
  "database_IDs": null,
  "fields_not_requested": [
    "builder_meta",
    "nsites",
    "elements",
    "nelements",
    "composition",
    "composition_reduced",
    "chemsys",
    "symmetry",
    "property_name",
    "deprecated",
    "deprecation_reasons",
    "last_updated",
    "origins",
    "warnings",
    "task_ids",
    "uncorrected_energy_per_atom",
    "equilibrium_reaction_energy_per_atom",
    "decomposes_to",
    "xas",
    "grain_boundaries",
    "cbm",
    "vbm",
    "is_gap_direct",
    "is_metal",
    "es_source_calc_id",
    "bandstructure",
    "dos",
    "dos_energy_up",
    "dos_energy_down",
    "is_magnetic",
    "ordering",
    "total_magnetization_normalized_vol",
    "total_magnetization_normalized_formula_units",
    "num_magnetic_sites",
    "num_unique_magnetic_sites",
    "types_of_magnetic_species",
    "bulk_modulus",
    "shear_modulus",
    "universal_anisotropy",
    "homogeneous_poisson",
    "e_total",
    "e_ionic",
    "e_electronic",
    "n",
    "e_ij_max",
    "weighted_surface_energy_EV_PER_ANG2",
    "weighted_surface_energy",
    "weighted_work_function",
    "surface_anisotropy",
    "shape_factor",
    "has_reconstructed",
    "possible_species",
    "has_props",
    "theoretical",
    "database_IDs"
  ]
}
