{"builder_meta": null, "nsites": null, "elements": null, "nelements": null, "composition": null, "composition_reduced": null, "formula_pretty": "U3Te4", "formula_anonymous": "A3B4", "chemsys": null, "volume": 426.68462666105466, "density": 9.530730308282159, "density_atomic": 30.477473332932476, "symmetry": null, "property_name": null, "material_id": "mp-20520", "deprecated": null, "deprecation_reasons": null, "last_updated": null, "origins": null, "warnings": null, "structure": {"@module": "pymatgen.core.structure", "@class": "Structure", "charge": 0, "lattice": {"matrix": [[7.74739418, -0.00044889999999900006, -2.73628224], [-3.87393099, 6.70984416, -2.73563152], [-0.00015602000000000001, 0.00027042, 8.20819381]], "pbc": [true, true, true], "a": 8.216407808692828, "b": 8.21663129147134, "c": 8.20819381593731, "alpha": 109.44503841143228, "beta": 109.45366941072724, "gamma": 109.49524908401139, "volume": 426.68462666105466}, "properties": {}, "sites": [{"species": [{"element": "U", "occu": 1}], "abc": [0.75052907, 0.87410537, 0.12464233000000001], "properties": {"magmom": 3.003}, "label": "U", "xyz": [2.4284012207740693, 5.864807605398496, -3.421801165248002]}, {"species": [{"element": "U", "occu": 1}], "abc": [0.625792799999999, 0.37648963, 0.25056221], "properties": {"magmom": 3.003}, "label": "U", "xyz": [3.389729558819258, 2.5259735838009694, -0.6856194421990871]}, {"species": [{"element": "U", "occu": 1}], "abc": [0.87643828, 0.1257809, 0.75049886], "properties": {"magmom": 3.003}, "label": "U", "xyz": [6.302729210308983, 0.843779754062374, 3.417967402389941]}, {"species": [{"element": "U", "occu": 1}], "abc": [0.12356172, 0.7493426200000001, 0.87406058], "properties": {"magmom": 3.003}, "label": "U", "xyz": [-1.945756618278696, 5.028153099252036, 4.786433611789774]}, {"species": [{"element": "U", "occu": 1}], "abc": [0.374207199999999, 0.25069683, 0.62476941], "properties": {"magmom": 3.003}, "label": "U", "xyz": [1.9278509880389787, 1.6821376292377852, 3.4184777382871445]}, {"species": [{"element": "U", "occu": 1}], "abc": [0.24947093, 0.6235763, 0.37411326], "properties": {"magmom": 3.003}, "label": "U", "xyz": [-0.4830002911891745, 4.184088975076701, 0.6822962884106611]}, {"species": [{"element": "Te", "occu": 1}], "abc": [0.65131474, 0.65158282, 0.65139599], "properties": {"magmom": -0.062}, "label": "Te", "xyz": [2.521703516272262, 4.371902954850161, 1.7821130769821174]}, {"species": [{"element": "Te", "occu": 1}], "abc": [0.34868526, 0.50026808, 8.124000000000003e-05], "properties": {"magmom": -0.062}, "label": "Te", "xyz": [0.7633981228809228, 3.35656435217812, -2.32198357872054]}, {"species": [{"element": "Te", "occu": 1}], "abc": [0.50000556, -1.2990000000000001e-05, 0.34922277], "properties": {"magmom": -0.06}, "label": "Te", "xyz": [3.873736002138625, -0.00021717655005850002, 1.4983673811492437]}, {"species": [{"element": "Te", "occu": 1}], "abc": [-0.00017575000000000002, 0.34847116, 0.50003081], "properties": {"magmom": -0.062}, "label": "Te", "xyz": [-1.3513928451793595, 2.338322475080241, 3.1515420119480027]}, {"species": [{"element": "Te", "occu": 1}], "abc": [0.49999444, -1.855e-05, 0.8492172100000001], "properties": {"magmom": -0.06}, "label": "Te", "xyz": [3.8735933810391194, -0.00011926979535530007, 5.60246428616142]}, {"species": [{"element": "Te", "occu": 1}], "abc": [0.00017575000000000002, 0.8486479100000001, 0.50020655], "properties": {"magmom": -0.062}, "label": "Te", "xyz": [-3.2863198758465266, 5.694430409770782, 1.783723433849652]}, {"species": [{"element": "Te", "occu": 1}], "abc": [0.15161537, 0.15134164, 0.15140657], "properties": {"magmom": -0.062}, "label": "Te", "xyz": [0.5883133434100715, 1.015451702543889, 0.41389706575281004]}, {"species": [{"element": "Te", "occu": 1}], "abc": [0.84838463, 0.49972627000000003, -0.00020879999999900002], "properties": {"magmom": -0.062}, "label": "Te", "xyz": [4.6368650935703215, 3.3527044980339817, -3.6902006022095217]}]}, "task_ids": null, "uncorrected_energy_per_atom": null, "energy_per_atom": -49.85598718071429, "formation_energy_per_atom": -1.070986164285719, "energy_above_hull": 0.038036497619053006, "is_stable": false, "equilibrium_reaction_energy_per_atom": null, "decomposes_to": null, "xas": null, "grain_boundaries": null, "band_gap": 0.0, "cbm": null, "vbm": null, "efermi": 9.84153899, "is_gap_direct": null, "is_metal": null, "es_source_calc_id": null, "bandstructure": null, "dos": null, "dos_energy_up": null, "dos_energy_down": null, "is_magnetic": null, "ordering": null, "total_magnetization": 19.9681518, "total_magnetization_normalized_vol": null, "total_magnetization_normalized_formula_units": null, "num_magnetic_sites": null, "num_unique_magnetic_sites": null, "types_of_magnetic_species": null, "bulk_modulus": null, "shear_modulus": null, "universal_anisotropy": null, "homogeneous_poisson": null, "e_total": null, "e_ionic": null, "e_electronic": null, "n": null, "e_ij_max": null, "weighted_surface_energy_EV_PER_ANG2": null, "weighted_surface_energy": null, "weighted_work_function": null, "surface_anisotropy": null, "shape_factor": null, "has_reconstructed": null, "possible_species": null, "has_props": null, "theoretical": null, "database_IDs": null, "fields_not_requested": ["builder_meta", "nsites", "elements", "nelements", "composition", "composition_reduced", "chemsys", "symmetry", "property_name", "deprecated", "deprecation_reasons", "last_updated", "origins", "warnings", "task_ids", "uncorrected_energy_per_atom", "equilibrium_reaction_energy_per_atom", "decomposes_to", "xas", "grain_boundaries", "cbm", "vbm", "is_gap_direct", "is_metal", "es_source_calc_id", "bandstructure", "dos", "dos_energy_up", "dos_energy_down", "is_magnetic", "ordering", "total_magnetization_normalized_vol", "total_magnetization_normalized_formula_units", "num_magnetic_sites", "num_unique_magnetic_sites", "types_of_magnetic_species", "bulk_modulus", "shear_modulus", "universal_anisotropy", "homogeneous_poisson", "e_total", "e_ionic", "e_electronic", "n", "e_ij_max", "weighted_surface_energy_EV_PER_ANG2", "weighted_surface_energy", "weighted_work_function", "surface_anisotropy", "shape_factor", "has_reconstructed", "possible_species", "has_props", "theoretical", "database_IDs"]}