{
  "builder_meta": null,
  "nsites": null,
  "elements": null,
  "nelements": null,
  "composition": null,
  "composition_reduced": null,
  "formula_pretty": "U3Te5",
  "formula_anonymous": "A3B5",
  "chemsys": null,
  "volume": 979.2566258733992,
  "density": 9.171009017555365,
  "density_atomic": 30.601769558543726,
  "symmetry": null,
  "property_name": null,
  "material_id": "mp-29790",
  "deprecated": null,
  "deprecation_reasons": null,
  "last_updated": null,
  "origins": null,
  "warnings": null,
  "structure": {
    "@module": "pymatgen.core.structure",
    "@class": "Structure",
    "charge": 0,
    "lattice": {
      "matrix": [
        [4.21513749, 0.0, 0.0],
        [0.0, 14.26427631, 0.0],
        [0.0, 0.0, 16.28677253]
      ],
      "pbc": [true, true, true],
      "a": 4.21513749,
      "b": 14.26427631,
      "c": 16.28677253,
      "alpha": 90.0,
      "beta": 90.0,
      "gamma": 90.0,
      "volume": 979.2566258733992
    },
    "properties": {},
    "sites": [
      {
        "species": [{ "element": "U", "occu": 1 }],
        "abc": [0.25, 0.24859103000000002, 0.8812274600000001],
        "properties": { "magmom": 2.731 },
        "label": "U",
        "xyz": [1.0537843725, 3.5459711401074996, 14.352351188209676]
      },
      {
        "species": [{ "element": "U", "occu": 1 }],
        "abc": [0.75, 0.7514089700000001, 0.11877254],
        "properties": { "magmom": 2.731 },
        "label": "U",
        "xyz": [3.1613531175, 10.718305169892501, 1.9344213417903262]
      },
      {
        "species": [{ "element": "U", "occu": 1 }],
        "abc": [0.75, 0.74859103, 0.61877254],
        "properties": { "magmom": 2.731 },
        "label": "U",
        "xyz": [3.1613531175, 10.6781092951075, 10.077807606790326]
      },
      {
        "species": [{ "element": "U", "occu": 1 }],
        "abc": [0.25, 0.25140897, 0.38122746],
        "properties": { "magmom": 2.731 },
        "label": "U",
        "xyz": [1.0537843725, 3.5861670148925007, 6.208964923209674]
      },
      {
        "species": [{ "element": "U", "occu": 1 }],
        "abc": [0.25, 0.92973053, 0.86236194],
        "properties": { "magmom": 2.509 },
        "label": "U",
        "xyz": [1.0537843725, 13.261933173762745, 14.045092755309508]
      },
      {
        "species": [{ "element": "U", "occu": 1 }],
        "abc": [0.75, 0.07026947, 0.13763806],
        "properties": { "magmom": 2.509 },
        "label": "U",
        "xyz": [3.1613531175, 1.0023431362372557, 2.241679774690492]
      },
      {
        "species": [{ "element": "U", "occu": 1 }],
        "abc": [0.75, 0.42973053, 0.63763806],
        "properties": { "magmom": 2.509 },
        "label": "U",
        "xyz": [3.1613531175, 6.129795018762744, 10.385066039690493]
      },
      {
        "species": [{ "element": "U", "occu": 1 }],
        "abc": [0.25, 0.5702694700000001, 0.36236194],
        "properties": { "magmom": 2.509 },
        "label": "U",
        "xyz": [1.0537843725, 8.134481291237256, 5.9017064903095084]
      },
      {
        "species": [{ "element": "U", "occu": 1 }],
        "abc": [0.25, 0.09144324, 0.62670828],
        "properties": { "magmom": 2.789 },
        "label": "U",
        "xyz": [1.0537843725, 1.3043716420416442, 10.207055199027549]
      },
      {
        "species": [{ "element": "U", "occu": 1 }],
        "abc": [0.75, 0.9085567600000001, 0.37329172],
        "properties": { "magmom": 2.789 },
        "label": "U",
        "xyz": [3.1613531175, 12.959904667958357, 6.079717330972452]
      },
      {
        "species": [{ "element": "U", "occu": 1 }],
        "abc": [0.75, 0.59144324, 0.87329172],
        "properties": { "magmom": 2.789 },
        "label": "U",
        "xyz": [3.1613531175, 8.436509797041644, 14.223103595972452]
      },
      {
        "species": [{ "element": "U", "occu": 1 }],
        "abc": [0.25, 0.40855676, 0.12670828],
        "properties": { "magmom": 2.789 },
        "label": "U",
        "xyz": [1.0537843725, 5.827766512958355, 2.0636689340275485]
      },
      {
        "species": [{ "element": "Te", "occu": 1 }],
        "abc": [0.25, 0.92037462, 0.07513606],
        "properties": { "magmom": -0.146 },
        "label": "Te",
        "xyz": [1.0537843725, 13.128477888391252, 1.223723918020432]
      },
      {
        "species": [{ "element": "Te", "occu": 1 }],
        "abc": [0.75, 0.07962538, 0.92486394],
        "properties": { "magmom": -0.146 },
        "label": "Te",
        "xyz": [3.1613531175, 1.1357984216087478, 15.06304861197957]
      },
      {
        "species": [{ "element": "Te", "occu": 1 }],
        "abc": [0.75, 0.42037462000000003, 0.42486394],
        "properties": { "magmom": -0.146 },
        "label": "Te",
        "xyz": [3.1613531175, 5.9963397333912525, 6.919662346979568]
      },
      {
        "species": [{ "element": "Te", "occu": 1 }],
        "abc": [0.25, 0.57962538, 0.5751360600000001],
        "properties": { "magmom": -0.146 },
        "label": "Te",
        "xyz": [1.0537843725, 8.267936576608747, 9.367110183020433]
      },
      {
        "species": [{ "element": "Te", "occu": 1 }],
        "abc": [0.25, 0.45302891, 0.78508144],
        "properties": { "magmom": -0.116 },
        "label": "Te",
        "xyz": [1.0537843725, 6.462129548658122, 12.786442830804845]
      },
      {
        "species": [{ "element": "Te", "occu": 1 }],
        "abc": [0.75, 0.54697109, 0.21491856],
        "properties": { "magmom": -0.116 },
        "label": "Te",
        "xyz": [3.1613531175, 7.802146761341878, 3.500329699195157]
      },
      {
        "species": [{ "element": "Te", "occu": 1 }],
        "abc": [0.75, 0.95302891, 0.71491856],
        "properties": { "magmom": -0.116 },
        "label": "Te",
        "xyz": [3.1613531175, 13.594267703658122, 11.643715964195156]
      },
      {
        "species": [{ "element": "Te", "occu": 1 }],
        "abc": [0.25, 0.04697109, 0.28508144],
        "properties": { "magmom": -0.116 },
        "label": "Te",
        "xyz": [1.0537843725, 0.6700086063418779, 4.6430565658048435]
      },
      {
        "species": [{ "element": "Te", "occu": 1 }],
        "abc": [0.25, 0.72336625, 0.76490865],
        "properties": { "magmom": -0.111 },
        "label": "Te",
        "xyz": [1.0537843725, 10.318296063328537, 12.457893188779384]
      },
      {
        "species": [{ "element": "Te", "occu": 1 }],
        "abc": [0.75, 0.27663375, 0.23509135],
        "properties": { "magmom": -0.111 },
        "label": "Te",
        "xyz": [3.1613531175, 3.9459802466714624, 3.8288793412206155]
      },
      {
        "species": [{ "element": "Te", "occu": 1 }],
        "abc": [0.75, 0.22336625000000002, 0.73509135],
        "properties": { "magmom": -0.111 },
        "label": "Te",
        "xyz": [3.1613531175, 3.186157908328538, 11.972265606220617]
      },
      {
        "species": [{ "element": "Te", "occu": 1 }],
        "abc": [0.25, 0.77663375, 0.26490865],
        "properties": { "magmom": -0.111 },
        "label": "Te",
        "xyz": [1.0537843725, 11.078118401671462, 4.314506923779385]
      },
      {
        "species": [{ "element": "Te", "occu": 1 }],
        "abc": [0.25, 0.61004603, 0.02625734],
        "properties": { "magmom": -0.1 },
        "label": "Te",
        "xyz": [1.0537843725, 8.701865133738549, 0.42764732382287024]
      },
      {
        "species": [{ "element": "Te", "occu": 1 }],
        "abc": [0.75, 0.38995397, 0.97374266],
        "properties": { "magmom": -0.1 },
        "label": "Te",
        "xyz": [3.1613531175, 5.56241117626145, 15.85912520617713]
      },
      {
        "species": [{ "element": "Te", "occu": 1 }],
        "abc": [0.75, 0.11004603, 0.47374266000000004],
        "properties": { "magmom": -0.1 },
        "label": "Te",
        "xyz": [3.1613531175, 1.5697269787385493, 7.715738941177131]
      },
      {
        "species": [{ "element": "Te", "occu": 1 }],
        "abc": [0.25, 0.88995397, 0.52625734],
        "properties": { "magmom": -0.1 },
        "label": "Te",
        "xyz": [1.0537843725, 12.69454933126145, 8.571033588822871]
      },
      {
        "species": [{ "element": "Te", "occu": 1 }],
        "abc": [0.25, 0.20081182, 0.06833699],
        "properties": { "magmom": -0.136 },
        "label": "Te",
        "xyz": [1.0537843725, 2.864435286793984, 1.1129890115148848]
      },
      {
        "species": [{ "element": "Te", "occu": 1 }],
        "abc": [0.75, 0.79918818, 0.9316630100000001],
        "properties": { "magmom": -0.136 },
        "label": "Te",
        "xyz": [3.1613531175, 11.399841023206015, 15.173783518485116]
      },
      {
        "species": [{ "element": "Te", "occu": 1 }],
        "abc": [0.75, 0.70081182, 0.43166301],
        "properties": { "magmom": -0.136 },
        "label": "Te",
        "xyz": [3.1613531175, 9.996573441793984, 7.030397253485115]
      },
      {
        "species": [{ "element": "Te", "occu": 1 }],
        "abc": [0.25, 0.29918818, 0.56833699],
        "properties": { "magmom": -0.136 },
        "label": "Te",
        "xyz": [1.0537843725, 4.267702868206016, 9.256375276514886]
      }
    ]
  },
  "task_ids": null,
  "uncorrected_energy_per_atom": null,
  "energy_per_atom": -46.993781322500006,
  "formation_energy_per_atom": -1.12975239437501,
  "energy_above_hull": 0.0024769631249980002,
  "is_stable": false,
  "equilibrium_reaction_energy_per_atom": null,
  "decomposes_to": null,
  "xas": null,
  "grain_boundaries": null,
  "band_gap": 0.0,
  "cbm": null,
  "vbm": null,
  "efermi": 8.65205577,
  "is_gap_direct": null,
  "is_metal": null,
  "es_source_calc_id": null,
  "bandstructure": null,
  "dos": null,
  "dos_energy_up": null,
  "dos_energy_down": null,
  "is_magnetic": null,
  "ordering": null,
  "total_magnetization": 11.6548587,
  "total_magnetization_normalized_vol": null,
  "total_magnetization_normalized_formula_units": null,
  "num_magnetic_sites": null,
  "num_unique_magnetic_sites": null,
  "types_of_magnetic_species": null,
  "bulk_modulus": null,
  "shear_modulus": null,
  "universal_anisotropy": null,
  "homogeneous_poisson": null,
  "e_total": null,
  "e_ionic": null,
  "e_electronic": null,
  "n": null,
  "e_ij_max": null,
  "weighted_surface_energy_EV_PER_ANG2": null,
  "weighted_surface_energy": null,
  "weighted_work_function": null,
  "surface_anisotropy": null,
  "shape_factor": null,
  "has_reconstructed": null,
  "possible_species": null,
  "has_props": null,
  "theoretical": null,
  "database_IDs": null,
  "fields_not_requested": [
    "builder_meta",
    "nsites",
    "elements",
    "nelements",
    "composition",
    "composition_reduced",
    "chemsys",
    "symmetry",
    "property_name",
    "deprecated",
    "deprecation_reasons",
    "last_updated",
    "origins",
    "warnings",
    "task_ids",
    "uncorrected_energy_per_atom",
    "equilibrium_reaction_energy_per_atom",
    "decomposes_to",
    "xas",
    "grain_boundaries",
    "cbm",
    "vbm",
    "is_gap_direct",
    "is_metal",
    "es_source_calc_id",
    "bandstructure",
    "dos",
    "dos_energy_up",
    "dos_energy_down",
    "is_magnetic",
    "ordering",
    "total_magnetization_normalized_vol",
    "total_magnetization_normalized_formula_units",
    "num_magnetic_sites",
    "num_unique_magnetic_sites",
    "types_of_magnetic_species",
    "bulk_modulus",
    "shear_modulus",
    "universal_anisotropy",
    "homogeneous_poisson",
    "e_total",
    "e_ionic",
    "e_electronic",
    "n",
    "e_ij_max",
    "weighted_surface_energy_EV_PER_ANG2",
    "weighted_surface_energy",
    "weighted_work_function",
    "surface_anisotropy",
    "shape_factor",
    "has_reconstructed",
    "possible_species",
    "has_props",
    "theoretical",
    "database_IDs"
  ]
}
