{
  "builder_meta": null,
  "nsites": null,
  "elements": null,
  "nelements": null,
  "composition": null,
  "composition_reduced": null,
  "formula_pretty": "U4Al",
  "formula_anonymous": "AB4",
  "chemsys": null,
  "volume": 263.19175840809254,
  "density": 12.354711446109985,
  "density_atomic": 26.319175840809255,
  "symmetry": null,
  "property_name": null,
  "material_id": "mp-1208233",
  "deprecated": null,
  "deprecation_reasons": null,
  "last_updated": null,
  "origins": null,
  "warnings": null,
  "structure": {
    "@module": "pymatgen.core.structure",
    "@class": "Structure",
    "charge": 0,
    "lattice": {
      "matrix": [
        [0.0, 5.086442, 5.086442],
        [5.086442, 0.0, 5.086442],
        [5.086442, 5.086442, 0.0]
      ],
      "pbc": [true, true, true],
      "a": 7.19331526062413,
      "b": 7.19331526062413,
      "c": 7.19331526062413,
      "alpha": 59.99999999999999,
      "beta": 59.99999999999999,
      "gamma": 59.99999999999999,
      "volume": 263.19175840809254
    },
    "properties": {},
    "sites": [
      {
        "species": [{ "element": "U", "occu": 1 }],
        "abc": [0.409037, 0.409037, 0.409037],
        "properties": { "magmom": 0.304 },
        "label": "U",
        "xyz": [4.1610859527079995, 4.1610859527079995, 4.1610859527079995]
      },
      {
        "species": [{ "element": "U", "occu": 1 }],
        "abc": [0.409037, 0.409037, 0.772888],
        "properties": { "magmom": 0.28400000000000003 },
        "label": "U",
        "xyz": [6.01179296085, 6.01179296085, 4.1610859527079995]
      },
      {
        "species": [{ "element": "U", "occu": 1 }],
        "abc": [0.409037, 0.772888, 0.409037],
        "properties": { "magmom": 0.35000000000000003 },
        "label": "U",
        "xyz": [6.01179296085, 4.1610859527079995, 6.01179296085]
      },
      {
        "species": [{ "element": "U", "occu": 1 }],
        "abc": [0.840963, 0.840963, 0.477112],
        "properties": { "magmom": 0.28800000000000003 },
        "label": "U",
        "xyz": [6.7043120391499995, 6.7043120391499995, 8.555019047292]
      },
      {
        "species": [{ "element": "U", "occu": 1 }],
        "abc": [0.840963, 0.840963, 0.840963],
        "properties": { "magmom": 0.269 },
        "label": "U",
        "xyz": [8.555019047292, 8.555019047292, 8.555019047292]
      },
      {
        "species": [{ "element": "U", "occu": 1 }],
        "abc": [0.772888, 0.409037, 0.409037],
        "properties": { "magmom": 0.20700000000000002 },
        "label": "U",
        "xyz": [4.1610859527079995, 6.01179296085, 6.01179296085]
      },
      {
        "species": [{ "element": "U", "occu": 1 }],
        "abc": [0.840963, 0.477112, 0.840963],
        "properties": { "magmom": 0.264 },
        "label": "U",
        "xyz": [6.7043120391499995, 8.555019047292, 6.7043120391499995]
      },
      {
        "species": [{ "element": "U", "occu": 1 }],
        "abc": [0.477112, 0.840963, 0.840963],
        "properties": { "magmom": 0.334 },
        "label": "U",
        "xyz": [8.555019047292, 6.7043120391499995, 6.7043120391499995]
      },
      {
        "species": [{ "element": "Al", "occu": 1 }],
        "abc": [0.0, 0.0, 0.0],
        "properties": { "magmom": -0.003 },
        "label": "Al",
        "xyz": [0.0, 0.0, 0.0]
      },
      {
        "species": [{ "element": "Al", "occu": 1 }],
        "abc": [0.25, 0.25, 0.25],
        "properties": { "magmom": -0.003 },
        "label": "Al",
        "xyz": [2.543221, 2.543221, 2.543221]
      }
    ]
  },
  "task_ids": null,
  "uncorrected_energy_per_atom": null,
  "energy_per_atom": -64.19730019849999,
  "formation_energy_per_atom": 1.102748767500009,
  "energy_above_hull": 1.186670757750008,
  "is_stable": false,
  "equilibrium_reaction_energy_per_atom": null,
  "decomposes_to": null,
  "xas": null,
  "grain_boundaries": null,
  "band_gap": 0.0,
  "cbm": null,
  "vbm": null,
  "efermi": 9.55665193,
  "is_gap_direct": null,
  "is_metal": null,
  "es_source_calc_id": null,
  "bandstructure": null,
  "dos": null,
  "dos_energy_up": null,
  "dos_energy_down": null,
  "is_magnetic": null,
  "ordering": null,
  "total_magnetization": 2.4374135,
  "total_magnetization_normalized_vol": null,
  "total_magnetization_normalized_formula_units": null,
  "num_magnetic_sites": null,
  "num_unique_magnetic_sites": null,
  "types_of_magnetic_species": null,
  "bulk_modulus": null,
  "shear_modulus": null,
  "universal_anisotropy": null,
  "homogeneous_poisson": null,
  "e_total": null,
  "e_ionic": null,
  "e_electronic": null,
  "n": null,
  "e_ij_max": null,
  "weighted_surface_energy_EV_PER_ANG2": null,
  "weighted_surface_energy": null,
  "weighted_work_function": null,
  "surface_anisotropy": null,
  "shape_factor": null,
  "has_reconstructed": null,
  "possible_species": null,
  "has_props": null,
  "theoretical": null,
  "database_IDs": null,
  "fields_not_requested": [
    "builder_meta",
    "nsites",
    "elements",
    "nelements",
    "composition",
    "composition_reduced",
    "chemsys",
    "symmetry",
    "property_name",
    "deprecated",
    "deprecation_reasons",
    "last_updated",
    "origins",
    "warnings",
    "task_ids",
    "uncorrected_energy_per_atom",
    "equilibrium_reaction_energy_per_atom",
    "decomposes_to",
    "xas",
    "grain_boundaries",
    "cbm",
    "vbm",
    "is_gap_direct",
    "is_metal",
    "es_source_calc_id",
    "bandstructure",
    "dos",
    "dos_energy_up",
    "dos_energy_down",
    "is_magnetic",
    "ordering",
    "total_magnetization_normalized_vol",
    "total_magnetization_normalized_formula_units",
    "num_magnetic_sites",
    "num_unique_magnetic_sites",
    "types_of_magnetic_species",
    "bulk_modulus",
    "shear_modulus",
    "universal_anisotropy",
    "homogeneous_poisson",
    "e_total",
    "e_ionic",
    "e_electronic",
    "n",
    "e_ij_max",
    "weighted_surface_energy_EV_PER_ANG2",
    "weighted_surface_energy",
    "weighted_work_function",
    "surface_anisotropy",
    "shape_factor",
    "has_reconstructed",
    "possible_species",
    "has_props",
    "theoretical",
    "database_IDs"
  ]
}
