{"builder_meta": null, "nsites": null, "elements": null, "nelements": null, "composition": null, "composition_reduced": null, "formula_pretty": "U4Co", "formula_anonymous": "AB4", "chemsys": null, "volume": 216.09633170611892, "density": 15.538311784404788, "density_atomic": 21.609633170611893, "symmetry": null, "property_name": null, "material_id": "mp-1208177", "deprecated": null, "deprecation_reasons": null, "last_updated": null, "origins": null, "warnings": null, "structure": {"@module": "pymatgen.core.structure", "@class": "Structure", "charge": 0, "lattice": {"matrix": [[-4.762911, -4.762911, 0.0], [-4.762911, 0.0, -4.762911], [0.0, -4.762911, -4.762911]], "pbc": [true, true, true], "a": 6.7357733325760005, "b": 6.7357733325760005, "c": 6.7357733325760005, "alpha": 59.99999999999999, "beta": 59.99999999999999, "gamma": 59.99999999999999, "volume": 216.09633170611892}, "properties": {}, "sites": [{"species": [{"element": "U", "occu": 1}], "abc": [0.600793999999999, 0.600793999999999, 0.600793999999999], "properties": {"magmom": 0.108}, "label": "U", "xyz": [-5.723056702667991, -5.723056702667991, -5.723056702667991]}, {"species": [{"element": "U", "occu": 1}], "abc": [0.197617, 0.600793999999999, 0.600793999999999], "properties": {"magmom": 0.107}, "label": "U", "xyz": [-3.8027605344209956, -3.8027605344209956, -5.723056702667991]}, {"species": [{"element": "U", "occu": 1}], "abc": [0.600793999999999, 0.197617, 0.600793999999999], "properties": {"magmom": 0.105}, "label": "U", "xyz": [-3.8027605344209956, -5.723056702667991, -3.8027605344209956]}, {"species": [{"element": "U", "occu": 1}], "abc": [0.552383, 0.149206, 0.149206], "properties": {"magmom": 0.079}, "label": "U", "xyz": [-3.3416059655789994, -3.3416059655789994, -1.421309797332]}, {"species": [{"element": "U", "occu": 1}], "abc": [0.149206, 0.149206, 0.149206], "properties": {"magmom": 0.079}, "label": "U", "xyz": [-1.421309797332, -1.421309797332, -1.421309797332]}, {"species": [{"element": "U", "occu": 1}], "abc": [0.600793999999999, 0.600793999999999, 0.197617], "properties": {"magmom": 0.10300000000000001}, "label": "U", "xyz": [-5.723056702667991, -3.8027605344209956, -3.8027605344209956]}, {"species": [{"element": "U", "occu": 1}], "abc": [0.149206, 0.552383, 0.149206], "properties": {"magmom": 0.078}, "label": "U", "xyz": [-3.3416059655789994, -1.421309797332, -3.3416059655789994]}, {"species": [{"element": "U", "occu": 1}], "abc": [0.149206, 0.149206, 0.552383], "properties": {"magmom": 0.076}, "label": "U", "xyz": [-1.421309797332, -3.3416059655789994, -3.3416059655789994]}, {"species": [{"element": "Co", "occu": 1}], "abc": [0.0, 0.0, 0.0], "properties": {"magmom": -0.008}, "label": "Co", "xyz": [0.0, 0.0, 0.0]}, {"species": [{"element": "Co", "occu": 1}], "abc": [0.75, 0.75, 0.75], "properties": {"magmom": -0.013000000000000001}, "label": "Co", "xyz": [-7.1443665, -7.1443665, -7.1443665]}]}, "task_ids": null, "uncorrected_energy_per_atom": null, "energy_per_atom": -65.85705664849999, "formation_energy_per_atom": 0.743418877500005, "energy_above_hull": 0.804803606500001, "is_stable": false, "equilibrium_reaction_energy_per_atom": null, "decomposes_to": null, "xas": null, "grain_boundaries": null, "band_gap": 0.0, "cbm": null, "vbm": null, "efermi": 11.53323019, "is_gap_direct": null, "is_metal": null, "es_source_calc_id": null, "bandstructure": null, "dos": null, "dos_energy_up": null, "dos_energy_down": null, "is_magnetic": null, "ordering": null, "total_magnetization": 0.7061986, "total_magnetization_normalized_vol": null, "total_magnetization_normalized_formula_units": null, "num_magnetic_sites": null, "num_unique_magnetic_sites": null, "types_of_magnetic_species": null, "bulk_modulus": null, "shear_modulus": null, "universal_anisotropy": null, "homogeneous_poisson": null, "e_total": null, "e_ionic": null, "e_electronic": null, "n": null, "e_ij_max": null, "weighted_surface_energy_EV_PER_ANG2": null, "weighted_surface_energy": null, "weighted_work_function": null, "surface_anisotropy": null, "shape_factor": null, "has_reconstructed": null, "possible_species": null, "has_props": null, "theoretical": null, "database_IDs": null, "fields_not_requested": ["builder_meta", "nsites", "elements", "nelements", "composition", "composition_reduced", "chemsys", "symmetry", "property_name", "deprecated", "deprecation_reasons", "last_updated", "origins", "warnings", "task_ids", "uncorrected_energy_per_atom", "equilibrium_reaction_energy_per_atom", "decomposes_to", "xas", "grain_boundaries", "cbm", "vbm", "is_gap_direct", "is_metal", "es_source_calc_id", "bandstructure", "dos", "dos_energy_up", "dos_energy_down", "is_magnetic", "ordering", "total_magnetization_normalized_vol", "total_magnetization_normalized_formula_units", "num_magnetic_sites", "num_unique_magnetic_sites", "types_of_magnetic_species", "bulk_modulus", "shear_modulus", "universal_anisotropy", "homogeneous_poisson", "e_total", "e_ionic", "e_electronic", "n", "e_ij_max", "weighted_surface_energy_EV_PER_ANG2", "weighted_surface_energy", "weighted_work_function", "surface_anisotropy", "shape_factor", "has_reconstructed", "possible_species", "has_props", "theoretical", "database_IDs"]}