{
  "builder_meta": null,
  "nsites": null,
  "elements": null,
  "nelements": null,
  "composition": null,
  "composition_reduced": null,
  "formula_pretty": "U4N7",
  "formula_anonymous": "A4B7",
  "chemsys": null,
  "volume": 602.8218571245615,
  "density": 11.57115259402119,
  "density_atomic": 13.700496752830942,
  "symmetry": null,
  "property_name": null,
  "material_id": "mp-32590",
  "deprecated": null,
  "deprecation_reasons": null,
  "last_updated": null,
  "origins": null,
  "warnings": null,
  "structure": {
    "@module": "pymatgen.core.structure",
    "@class": "Structure",
    "charge": 0,
    "lattice": {
      "matrix": [
        [-5.32845397, 5.32865514, 5.30744523],
        [5.32885671, -5.32864068, 5.30781071],
        [5.32837935, 5.32856487, -5.30742993]
      ],
      "pbc": [true, true, true],
      "a": 9.217155861810461,
      "b": 9.2175907842263,
      "c": 9.217051726727172,
      "alpha": 109.36467599342329,
      "beta": 109.36288274685641,
      "gamma": 109.68462745367529,
      "volume": 602.8218571245615
    },
    "properties": {},
    "sites": [
      {
        "species": [{ "element": "U", "occu": 1 }],
        "abc": [0.77277537, -0.0012522, 0.25612569],
        "properties": { "magmom": -0.91 },
        "label": "U",
        "xyz": [-2.7596359449664796, 5.4893083253139086, 2.7354473578490213]
      },
      {
        "species": [{ "element": "U", "occu": 1 }],
        "abc": [0.25844989, 0.23211915, 0.49999129000000003],
        "properties": { "magmom": -0.8150000000000001 },
        "label": "U",
        "xyz": [2.5239346123962947, 2.8045468126838955, -0.04991559104468868]
      },
      {
        "species": [{ "element": "U", "occu": 1 }],
        "abc": [0.49875367000000004, 0.27277035, 0.25612642],
        "properties": { "magmom": -0.912 },
        "label": "U",
        "xyz": [0.16070686424040526, 2.5689773678223915, 2.7355481445151923]
      },
      {
        "species": [{ "element": "U", "occu": 1 }],
        "abc": [0.4769968, 0.97698326, 0.49999485],
        "properties": { "magmom": -1.146 },
        "label": "U",
        "xyz": [5.328710541817726, 1.3700059454002655e-5, 5.063588970068119]
      },
      {
        "species": [{ "element": "U", "occu": 1 }],
        "abc": [0.73218047, 0.75847847, 0.49999582000000004],
        "properties": { "magmom": -0.842 },
        "label": "U",
        "xyz": [2.8046005544963846, 2.5241381563257996, 5.25817510942818]
      },
      {
        "species": [{ "element": "U", "occu": 1 }],
        "abc": [0.9770102700000001, 0.476995499999999, 0.49997776],
        "properties": { "magmom": -1.146 },
        "label": "U",
        "xyz": [-4.240925421683528e-5, 5.328577099308645, 5.063633392935955]
      },
      {
        "species": [{ "element": "U", "occu": 1 }],
        "abc": [0.7425976200000001, 0.51664851, 0.74385787],
        "properties": { "magmom": -0.914 },
        "label": "U",
        "xyz": [2.759805556666435, 5.167707271472407, 2.735595167857846]
      },
      {
        "species": [{ "element": "U", "occu": 1 }],
        "abc": [0.51664159, 0.77277331, 0.77401884],
        "properties": { "magmom": -0.907 },
        "label": "U",
        "xyz": [5.489363310566752, 2.7595831675491724, 2.7357306358853846]
      },
      {
        "species": [{ "element": "U", "occu": 1 }],
        "abc": [0.27280227, 0.0166362, 0.77404227],
        "properties": { "magmom": -0.912 },
        "label": "U",
        "xyz": [2.759428434887515, 5.489555333975607, -2.571990203704767]
      },
      {
        "species": [{ "element": "U", "occu": 1 }],
        "abc": [0.00336836, 0.0033705, -5.4e-7],
        "properties": { "magmom": -0.463 },
        "label": "U",
        "xyz": [9.883001816799127e-6, -1.4232009599399202e-5, 0.03577022822514]
      },
      {
        "species": [{ "element": "U", "occu": 1 }],
        "abc": [0.23214292, 0.73214162, 0.97367803],
        "properties": { "magmom": -0.8310000000000001 },
        "label": "U",
        "xyz": [7.852640829326559, 2.5239964893683124, -0.049572953300415]
      },
      {
        "species": [{ "element": "U", "occu": 1 }],
        "abc": [0.50340094, 0.5033797600000001, -5.03e-6],
        "properties": { "magmom": -0.462 },
        "label": "U",
        "xyz": [6.307276132724355e-5, 9.333710589850639e-5, 5.343644095478294]
      },
      {
        "species": [{ "element": "U", "occu": 1 }],
        "abc": [0.01664128, 0.24258985, 0.7438458],
        "properties": { "magmom": -0.913 },
        "label": "U",
        "xyz": [5.167546855772741, 2.759632097520127, -2.5719657761004058]
      },
      {
        "species": [{ "element": "U", "occu": 1 }],
        "abc": [0.75848291, 0.25848205, 0.02629675],
        "properties": { "magmom": -0.852 },
        "label": "U",
        "xyz": [-2.5240084067374844, 2.8044598285390365, 5.2580121380370475]
      },
      {
        "species": [{ "element": "U", "occu": 1 }],
        "abc": [0.24260565, 0.49873741, 0.22598441],
        "properties": { "magmom": -0.909 },
        "label": "U",
        "xyz": [2.569117818585524, -0.1606580194046212, 2.7354235447918196]
      },
      {
        "species": [{ "element": "U", "occu": 1 }],
        "abc": [-0.00127247, 0.74257585, 0.225946899999999],
        "properties": { "magmom": -0.91 },
        "label": "U",
        "xyz": [5.167791394936169, -2.7597277222761765, 2.7355011451348243]
      },
      {
        "species": [{ "element": "N", "occu": 1 }],
        "abc": [0.77826914, 0.75006094, 0.26750001],
        "properties": { "magmom": 0.074 },
        "label": "N",
        "xyz": [1.2753375136752154, 1.5757137718119893, 6.692064765884572]
      },
      {
        "species": [{ "element": "N", "occu": 1 }],
        "abc": [0.5039185700000001, 0.23221587000000002, 0.50001666],
        "properties": { "magmom": 0.08 },
        "label": "N",
        "xyz": [1.2166166379447352, 4.112184555639093, 1.2532747056902553]
      },
      {
        "species": [{ "element": "N", "occu": 1 }],
        "abc": [0.49248119999999906, 0.51876113, 0.24378867],
        "properties": { "magmom": 0.082 },
        "label": "N",
        "xyz": [1.439238838189288, 1.1590145598786177, 4.073411593797481]
      },
      {
        "species": [{ "element": "N", "occu": 1 }],
        "abc": [0.73223054, 0.0040704800000000005, 0.49998173],
        "properties": { "magmom": 0.08 },
        "label": "N",
        "xyz": [-1.215873397648048, 6.5442989874406745, 1.2542608258669863]
      },
      {
        "species": [{ "element": "N", "occu": 1 }],
        "abc": [0.75717373, 0.53170616, 0.49999545],
        "properties": { "magmom": 0.076 },
        "label": "N",
        "xyz": [1.462986001740084, 3.865704804284724, 4.187162935996963]
      },
      {
        "species": [{ "element": "N", "occu": 1 }],
        "abc": [0.25006148, 0.27830835, 0.26766958],
        "properties": { "magmom": 0.073 },
        "label": "N",
        "xyz": [1.5768692951916259, 1.275780916079984, 1.3837581098026395]
      },
      {
        "species": [{ "element": "N", "occu": 1 }],
        "abc": [0.45809391, 0.72998934, 0.49999461],
        "properties": { "magmom": 0.083 },
        "label": "N",
        "xyz": [4.113237234350452, 1.215427289069197, 3.652267216606704]
      },
      {
        "species": [{ "element": "N", "occu": 1 }],
        "abc": [0.00412652, 0.50415284, 0.27190533],
        "properties": { "magmom": 0.08 },
        "label": "N",
        "xyz": [4.113385017950208, -1.2155953407494615, 1.2547306359508898]
      },
      {
        "species": [{ "element": "N", "occu": 1 }],
        "abc": [0.22998514, 0.95818431, 0.49997044],
        "properties": { "magmom": 0.082 },
        "label": "N",
        "xyz": [6.544593825592628, -1.216183472196669, 3.6529363996645734]
      },
      {
        "species": [{ "element": "N", "occu": 1 }],
        "abc": [0.98258487, 0.25003909, 0.97180359],
        "properties": { "magmom": 0.074 },
        "label": "N",
        "xyz": [1.2749024123072266, 9.081805921661434, 1.3843960815248755]
      },
      {
        "species": [{ "element": "N", "occu": 1 }],
        "abc": [0.53165773, 0.031638730000000004, 0.77449362],
        "properties": { "magmom": 0.076 },
        "label": "N",
        "xyz": [1.4624803280714365, 6.791368767514825, -1.1208939463561198]
      },
      {
        "species": [{ "element": "N", "occu": 1 }],
        "abc": [0.95815706, 0.45814415000000003, 0.7281386400000001],
        "properties": { "magmom": 0.083 },
        "label": "N",
        "xyz": [1.2156876309473024, 6.544336965295843, 3.6525637326561755]
      },
      {
        "species": [{ "element": "N", "occu": 1 }],
        "abc": [0.74868526, 0.774962399999999, 0.7562069],
        "properties": { "magmom": 0.081 },
        "label": "N",
        "xyz": [4.169685869597731, 3.8894869106224124, 4.073444604193092]
      },
      {
        "species": [{ "element": "N", "occu": 1 }],
        "abc": [0.23224102, 0.7322114, 0.728206199999999],
        "properties": { "magmom": 0.08 },
        "label": "N",
        "xyz": [6.54452292563461, 1.2161348279782795, 1.2541426236218682]
      },
      {
        "species": [{ "element": "N", "occu": 1 }],
        "abc": [0.01077028, 0.98254419, 0.7324834100000001],
        "properties": { "magmom": 0.074 },
        "label": "N",
        "xyz": [9.081397734590588, -1.2751484664666033, 1.3847168724795784]
      },
      {
        "species": [{ "element": "N", "occu": 1 }],
        "abc": [0.48241544000000003, 0.51069083, 0.73236407],
        "properties": { "magmom": 0.073 },
        "label": "N",
        "xyz": [4.053183376993626, 3.7517870377826186, 1.3840727981045258]
      },
      {
        "species": [{ "element": "N", "occu": 1 }],
        "abc": [0.77496018, 0.01867161, 0.02626132],
        "properties": { "magmom": 0.082 },
        "label": "N",
        "xyz": [-3.8899110382861695, 4.169936393037059, 4.072783966542576]
      },
      {
        "species": [{ "element": "N", "occu": 1 }],
        "abc": [0.03181931, 0.25714858, 0.49998594],
        "properties": { "magmom": 0.075 },
        "label": "N",
        "xyz": [3.8648749652941503, 1.463509260968447, -1.1198651104685007]
      },
      {
        "species": [{ "element": "N", "occu": 1 }],
        "abc": [0.75004667, 0.48263535, 0.9718199200000001],
        "properties": { "magmom": 0.074 },
        "label": "N",
        "xyz": [3.7535306605305703, 6.603355169397557, 1.3847025707452767]
      },
      {
        "species": [{ "element": "N", "occu": 1 }],
        "abc": [0.01884942, 0.9925938, 0.24391292],
        "properties": { "magmom": 0.081 },
        "label": "N",
        "xyz": [6.488612430729402, -3.8890278257756448, 4.073991534665169]
      },
      {
        "species": [{ "element": "N", "occu": 1 }],
        "abc": [0.51071794, 0.77827272, 0.02821349],
        "properties": { "magmom": 0.073 },
        "label": "N",
        "xyz": [1.5762989487461612, -1.2753584881809414, 6.6917906517895025]
      },
      {
        "species": [{ "element": "N", "occu": 1 }],
        "abc": [0.27496576, 0.24870394, 0.75606858],
        "properties": { "magmom": 0.081 },
        "label": "N",
        "xyz": [3.888785472842193, 4.168704253086512, -1.2333418629480768]
      },
      {
        "species": [{ "element": "N", "occu": 1 }],
        "abc": [0.73001066, 0.22998223, 0.27193116],
        "properties": { "magmom": 0.083 },
        "label": "N",
        "xyz": [-1.2153334723375109, 4.113485215443026, 3.651938161286216]
      },
      {
        "species": [{ "element": "N", "occu": 1 }],
        "abc": [0.27829032, 0.01071627, 0.02823171],
        "properties": { "magmom": 0.074 },
        "label": "N",
        "xyz": [-1.27532243254171, 1.576244489946409, 1.384052741487345]
      },
      {
        "species": [{ "element": "N", "occu": 1 }],
        "abc": [0.99254096, 0.74873268, 0.97377004],
        "properties": { "magmom": 0.081 },
        "label": "N",
        "xyz": [3.8897965198993454, 6.487977897673607, 4.073771866329327]
      },
      {
        "species": [{ "element": "N", "occu": 1 }],
        "abc": [0.24873298, 0.49253721, 0.9737452400000001],
        "properties": { "magmom": 0.082 },
        "label": "N",
        "xyz": [6.487782010659043, 3.8895231369385335, -1.2336536844148283]
      },
      {
        "species": [{ "element": "N", "occu": 1 }],
        "abc": [0.5187118, 0.27498004, 0.02625518],
        "properties": { "magmom": 0.082 },
        "label": "N",
        "xyz": [-1.1587051597832445, 1.4386689017201513, 4.0732289418534045]
      },
      {
        "species": [{ "element": "N", "occu": 1 }],
        "abc": [0.25714158, 0.75713673, 0.225405499999999],
        "properties": { "magmom": 0.076 },
        "label": "N",
        "xyz": [3.8655520828213055, -1.4632029490206757, 4.187179399547432]
      }
    ]
  },
  "task_ids": null,
  "uncorrected_energy_per_atom": null,
  "energy_per_atom": -36.61902944386364,
  "formation_energy_per_atom": -1.73999297125,
  "energy_above_hull": 0.0,
  "is_stable": true,
  "equilibrium_reaction_energy_per_atom": null,
  "decomposes_to": null,
  "xas": null,
  "grain_boundaries": null,
  "band_gap": 0.0,
  "cbm": null,
  "vbm": null,
  "efermi": 9.79678607,
  "is_gap_direct": null,
  "is_metal": null,
  "es_source_calc_id": null,
  "bandstructure": null,
  "dos": null,
  "dos_energy_up": null,
  "dos_energy_down": null,
  "is_magnetic": null,
  "ordering": null,
  "total_magnetization": 11.9999949,
  "total_magnetization_normalized_vol": null,
  "total_magnetization_normalized_formula_units": null,
  "num_magnetic_sites": null,
  "num_unique_magnetic_sites": null,
  "types_of_magnetic_species": null,
  "bulk_modulus": null,
  "shear_modulus": null,
  "universal_anisotropy": null,
  "homogeneous_poisson": null,
  "e_total": null,
  "e_ionic": null,
  "e_electronic": null,
  "n": null,
  "e_ij_max": null,
  "weighted_surface_energy_EV_PER_ANG2": null,
  "weighted_surface_energy": null,
  "weighted_work_function": null,
  "surface_anisotropy": null,
  "shape_factor": null,
  "has_reconstructed": null,
  "possible_species": null,
  "has_props": null,
  "theoretical": null,
  "database_IDs": null,
  "fields_not_requested": [
    "builder_meta",
    "nsites",
    "elements",
    "nelements",
    "composition",
    "composition_reduced",
    "chemsys",
    "symmetry",
    "property_name",
    "deprecated",
    "deprecation_reasons",
    "last_updated",
    "origins",
    "warnings",
    "task_ids",
    "uncorrected_energy_per_atom",
    "equilibrium_reaction_energy_per_atom",
    "decomposes_to",
    "xas",
    "grain_boundaries",
    "cbm",
    "vbm",
    "is_gap_direct",
    "is_metal",
    "es_source_calc_id",
    "bandstructure",
    "dos",
    "dos_energy_up",
    "dos_energy_down",
    "is_magnetic",
    "ordering",
    "total_magnetization_normalized_vol",
    "total_magnetization_normalized_formula_units",
    "num_magnetic_sites",
    "num_unique_magnetic_sites",
    "types_of_magnetic_species",
    "bulk_modulus",
    "shear_modulus",
    "universal_anisotropy",
    "homogeneous_poisson",
    "e_total",
    "e_ionic",
    "e_electronic",
    "n",
    "e_ij_max",
    "weighted_surface_energy_EV_PER_ANG2",
    "weighted_surface_energy",
    "weighted_work_function",
    "surface_anisotropy",
    "shape_factor",
    "has_reconstructed",
    "possible_species",
    "has_props",
    "theoretical",
    "database_IDs"
  ]
}
