{"builder_meta": null, "nsites": null, "elements": null, "nelements": null, "composition": null, "composition_reduced": null, "formula_pretty": "U4O7", "formula_anonymous": "A4B7", "chemsys": null, "volume": 321.9716562766083, "density": 10.9761128527285, "density_atomic": 14.635075285300378, "symmetry": null, "property_name": null, "material_id": "mp-754893", "deprecated": null, "deprecation_reasons": null, "last_updated": null, "origins": null, "warnings": null, "structure": {"@module": "pymatgen.core.structure", "@class": "Structure", "charge": 0, "lattice": {"matrix": [[2.734008, 6.063518, 0.0], [-2.734008, 6.063518, 0.0], [0.0, 4.8474260000000005, 9.710983]], "pbc": [true, true, true], "a": 6.651394611687688, "b": 6.651394611687688, "c": 10.853604454362847, "alpha": 65.97438323327711, "beta": 65.97438323327711, "gamma": 48.54071998041708, "volume": 321.9716562766083}, "properties": {}, "sites": [{"species": [{"element": "U", "occu": 1}], "abc": [0.146954, 0.111854, 0.316287999999999], "properties": {"magmom": 2.32}, "label": "U", "xyz": [0.0959636808, 3.102469641231995, 3.0714673911039907]}, {"species": [{"element": "U", "occu": 1}], "abc": [0.618698, 0.637779, 0.055618], "properties": {"magmom": 2.306}, "label": "U", "xyz": [-0.05216760664800013, 7.888275045354001, 0.540105452494]}, {"species": [{"element": "U", "occu": 1}], "abc": [0.362220999999999, 0.381302, 0.444382], "properties": {"magmom": 2.306}, "label": "U", "xyz": [-0.052167606648002574, 6.662473954645995, 4.315386047506]}, {"species": [{"element": "U", "occu": 1}], "abc": [0.853046, 0.888146, 0.683712], "properties": {"magmom": 2.32}, "label": "U", "xyz": [-0.09596368079999973, 13.871992358768, 6.639515608896001]}, {"species": [{"element": "U", "occu": 1}], "abc": [0.888146, 0.853046, 0.183712], "properties": {"magmom": 2.32}, "label": "U", "xyz": [0.09596368079999973, 11.448279358768, 1.784024108896]}, {"species": [{"element": "U", "occu": 1}], "abc": [0.381302, 0.362220999999999, 0.9443819999999991], "properties": {"magmom": 2.306}, "label": "U", "xyz": [0.052167606648002574, 9.08618695464599, 9.170877547505992]}, {"species": [{"element": "U", "occu": 1}], "abc": [0.637779, 0.618698, 0.555618], "properties": {"magmom": 2.306}, "label": "U", "xyz": [0.05216760664800013, 10.311988045354001, 5.3955969524939995]}, {"species": [{"element": "U", "occu": 1}], "abc": [0.111854, 0.146954, 0.816288], "properties": {"magmom": 2.32}, "label": "U", "xyz": [-0.0959636808, 5.526182641232, 7.926958891104]}, {"species": [{"element": "O", "occu": 1}], "abc": [0.992579, 0.485500999999999, 0.131019], "properties": {"magmom": -0.053}, "label": "O", "xyz": [1.3863553086240026, 9.597469592533994, 1.272323281677]}, {"species": [{"element": "O", "occu": 1}], "abc": [0.503661, 0.997888, 0.123752], "properties": {"magmom": -0.061}, "label": "O", "xyz": [-1.3512205718159997, 9.704548051734, 1.201753568216]}, {"species": [{"element": "O", "occu": 1}], "abc": [0.252805, 0.753338, 0.511177], "properties": {"magmom": -0.06}, "label": "O", "xyz": [-1.368461226264, 8.578658871476, 4.964031156991]}, {"species": [{"element": "O", "occu": 1}], "abc": [0.753338, 0.252805, 0.011177], "properties": {"magmom": -0.06}, "label": "O", "xyz": [1.368461226264, 6.1549458714759995, 0.108539656991]}, {"species": [{"element": "O", "occu": 1}], "abc": [0.25422, 0.7457800000000001, 0.25], "properties": {"magmom": -0.057}, "label": "O", "xyz": [-1.3439289724800003, 7.2753745, 2.42774575]}, {"species": [{"element": "O", "occu": 1}], "abc": [0.747194999999999, 0.246662, 0.48882299999999906], "properties": {"magmom": -0.06}, "label": "O", "xyz": [1.3684612262639972, 8.39580312852399, 4.746951843008991]}, {"species": [{"element": "O", "occu": 1}], "abc": [0.246662, 0.747194999999999, 0.988823], "properties": {"magmom": -0.06}, "label": "O", "xyz": [-1.3684612262639972, 10.819516128523993, 9.602443343009]}, {"species": [{"element": "O", "occu": 1}], "abc": [0.496339, 0.002111999999999, 0.876247999999999], "properties": {"magmom": -0.061}, "label": "O", "xyz": [1.3512205718160026, 7.269913948265989, 8.509229431783991]}, {"species": [{"element": "O", "occu": 1}], "abc": [0.997888, 0.503661, 0.623752], "properties": {"magmom": -0.061}, "label": "O", "xyz": [1.3512205718159997, 12.128261051734, 6.057245068216]}, {"species": [{"element": "O", "occu": 1}], "abc": [0.007421, 0.514498999999999, 0.868981], "properties": {"magmom": -0.053}, "label": "O", "xyz": [-1.3863553086239977, 7.376992407465995, 8.438659718323]}, {"species": [{"element": "O", "occu": 1}], "abc": [0.485500999999999, 0.992579, 0.631019], "properties": {"magmom": -0.053}, "label": "O", "xyz": [-1.3863553086240026, 12.021182592533993, 6.127814781677]}, {"species": [{"element": "O", "occu": 1}], "abc": [0.002111999999999, 0.496339, 0.376247999999999], "properties": {"magmom": -0.061}, "label": "O", "xyz": [-1.3512205718160026, 4.84620094826599, 3.653737931783991]}, {"species": [{"element": "O", "occu": 1}], "abc": [0.514498999999999, 0.007421, 0.368981], "properties": {"magmom": -0.053}, "label": "O", "xyz": [1.3863553086239977, 4.9532794074659945, 3.5831682183230003]}, {"species": [{"element": "O", "occu": 1}], "abc": [0.7457800000000001, 0.25422, 0.75], "properties": {"magmom": -0.057}, "label": "O", "xyz": [1.3439289724800003, 9.699087500000001, 7.283237250000001]}]}, "task_ids": null, "uncorrected_energy_per_atom": null, "energy_per_atom": -10.776363096818182, "formation_energy_per_atom": -3.52169336272727, "energy_above_hull": 0.067308837580645, "is_stable": false, "equilibrium_reaction_energy_per_atom": null, "decomposes_to": null, "xas": null, "grain_boundaries": null, "band_gap": 0.0, "cbm": null, "vbm": null, "efermi": 9.83374058, "is_gap_direct": null, "is_metal": null, "es_source_calc_id": null, "bandstructure": null, "dos": null, "dos_energy_up": null, "dos_energy_down": null, "is_magnetic": null, "ordering": null, "total_magnetization": 19.9671358, "total_magnetization_normalized_vol": null, "total_magnetization_normalized_formula_units": null, "num_magnetic_sites": null, "num_unique_magnetic_sites": null, "types_of_magnetic_species": null, "bulk_modulus": null, "shear_modulus": null, "universal_anisotropy": null, "homogeneous_poisson": null, "e_total": null, "e_ionic": null, "e_electronic": null, "n": null, "e_ij_max": null, "weighted_surface_energy_EV_PER_ANG2": null, "weighted_surface_energy": null, "weighted_work_function": null, "surface_anisotropy": null, "shape_factor": null, "has_reconstructed": null, "possible_species": null, "has_props": null, "theoretical": null, "database_IDs": null, "fields_not_requested": ["builder_meta", "nsites", "elements", "nelements", "composition", "composition_reduced", "chemsys", "symmetry", "property_name", "deprecated", "deprecation_reasons", "last_updated", "origins", "warnings", "task_ids", "uncorrected_energy_per_atom", "equilibrium_reaction_energy_per_atom", "decomposes_to", "xas", "grain_boundaries", "cbm", "vbm", "is_gap_direct", "is_metal", "es_source_calc_id", "bandstructure", "dos", "dos_energy_up", "dos_energy_down", "is_magnetic", "ordering", "total_magnetization_normalized_vol", "total_magnetization_normalized_formula_units", "num_magnetic_sites", "num_unique_magnetic_sites", "types_of_magnetic_species", "bulk_modulus", "shear_modulus", "universal_anisotropy", "homogeneous_poisson", "e_total", "e_ionic", "e_electronic", "n", "e_ij_max", "weighted_surface_energy_EV_PER_ANG2", "weighted_surface_energy", "weighted_work_function", "surface_anisotropy", "shape_factor", "has_reconstructed", "possible_species", "has_props", "theoretical", "database_IDs"]}