{"builder_meta": null, "nsites": null, "elements": null, "nelements": null, "composition": null, "composition_reduced": null, "formula_pretty": "U4Os", "formula_anonymous": "AB4", "chemsys": null, "volume": 239.09491898788093, "density": 15.867418436243128, "density_atomic": 23.909491898788094, "symmetry": null, "property_name": null, "material_id": "mp-1208113", "deprecated": null, "deprecation_reasons": null, "last_updated": null, "origins": null, "warnings": null, "structure": {"@module": "pymatgen.core.structure", "@class": "Structure", "charge": 0, "lattice": {"matrix": [[-4.926216, -4.926216, 0.0], [-4.926216, 0.0, -4.926216], [0.0, -4.926216, -4.926216]], "pbc": [true, true, true], "a": 6.966721478379339, "b": 6.966721478379339, "c": 6.966721478379339, "alpha": 59.99999999999999, "beta": 59.99999999999999, "gamma": 59.99999999999999, "volume": 239.09491898788093}, "properties": {}, "sites": [{"species": [{"element": "U", "occu": 1}], "abc": [0.596584999999999, 0.596584999999999, 0.596584999999999], "properties": {"magmom": 0.133}, "label": "U", "xyz": [-5.87781314471999, -5.87781314471999, -5.87781314471999]}, {"species": [{"element": "U", "occu": 1}], "abc": [0.210246, 0.596584999999999, 0.596584999999999], "properties": {"magmom": 0.133}, "label": "U", "xyz": [-3.9746237814959953, -3.9746237814959953, -5.87781314471999]}, {"species": [{"element": "U", "occu": 1}], "abc": [0.596584999999999, 0.210246, 0.596584999999999], "properties": {"magmom": 0.134}, "label": "U", "xyz": [-3.9746237814959953, -5.87781314471999, -3.9746237814959953]}, {"species": [{"element": "U", "occu": 1}], "abc": [0.539754, 0.153415, 0.153415], "properties": {"magmom": 0.134}, "label": "U", "xyz": [-3.414700218504, -3.414700218504, -1.51151085528]}, {"species": [{"element": "U", "occu": 1}], "abc": [0.153415, 0.153415, 0.153415], "properties": {"magmom": 0.139}, "label": "U", "xyz": [-1.51151085528, -1.51151085528, -1.51151085528]}, {"species": [{"element": "U", "occu": 1}], "abc": [0.596584999999999, 0.596584999999999, 0.210246], "properties": {"magmom": 0.132}, "label": "U", "xyz": [-5.87781314471999, -3.9746237814959953, -3.9746237814959953]}, {"species": [{"element": "U", "occu": 1}], "abc": [0.153415, 0.539754, 0.153415], "properties": {"magmom": 0.132}, "label": "U", "xyz": [-3.414700218504, -1.51151085528, -3.414700218504]}, {"species": [{"element": "U", "occu": 1}], "abc": [0.153415, 0.153415, 0.539754], "properties": {"magmom": 0.133}, "label": "U", "xyz": [-1.51151085528, -3.414700218504, -3.414700218504]}, {"species": [{"element": "Os", "occu": 1}], "abc": [0.0, 0.0, 0.0], "properties": {"magmom": -0.006}, "label": "Os", "xyz": [0.0, 0.0, 0.0]}, {"species": [{"element": "Os", "occu": 1}], "abc": [0.75, 0.75, 0.75], "properties": {"magmom": -0.006}, "label": "Os", "xyz": [-7.389324, -7.389324, -7.389324]}]}, "task_ids": null, "uncorrected_energy_per_atom": null, "energy_per_atom": -10.486373188, "formation_energy_per_atom": 0.792228306000005, "energy_above_hull": 0.8195830485000031, "is_stable": false, "equilibrium_reaction_energy_per_atom": null, "decomposes_to": null, "xas": null, "grain_boundaries": null, "band_gap": 0.0, "cbm": null, "vbm": null, "efermi": 10.68821797, "is_gap_direct": null, "is_metal": null, "es_source_calc_id": null, "bandstructure": null, "dos": null, "dos_energy_up": null, "dos_energy_down": null, "is_magnetic": null, "ordering": null, "total_magnetization": 1.0658794, "total_magnetization_normalized_vol": null, "total_magnetization_normalized_formula_units": null, "num_magnetic_sites": null, "num_unique_magnetic_sites": null, "types_of_magnetic_species": null, "bulk_modulus": null, "shear_modulus": null, "universal_anisotropy": null, "homogeneous_poisson": null, "e_total": null, "e_ionic": null, "e_electronic": null, "n": null, "e_ij_max": null, "weighted_surface_energy_EV_PER_ANG2": null, "weighted_surface_energy": null, "weighted_work_function": null, "surface_anisotropy": null, "shape_factor": null, "has_reconstructed": null, "possible_species": null, "has_props": null, "theoretical": null, "database_IDs": null, "fields_not_requested": ["builder_meta", "nsites", "elements", "nelements", "composition", "composition_reduced", "chemsys", "symmetry", "property_name", "deprecated", "deprecation_reasons", "last_updated", "origins", "warnings", "task_ids", "uncorrected_energy_per_atom", "equilibrium_reaction_energy_per_atom", "decomposes_to", "xas", "grain_boundaries", "cbm", "vbm", "is_gap_direct", "is_metal", "es_source_calc_id", "bandstructure", "dos", "dos_energy_up", "dos_energy_down", "is_magnetic", "ordering", "total_magnetization_normalized_vol", "total_magnetization_normalized_formula_units", "num_magnetic_sites", "num_unique_magnetic_sites", "types_of_magnetic_species", "bulk_modulus", "shear_modulus", "universal_anisotropy", "homogeneous_poisson", "e_total", "e_ionic", "e_electronic", "n", "e_ij_max", "weighted_surface_energy_EV_PER_ANG2", "weighted_surface_energy", "weighted_work_function", "surface_anisotropy", "shape_factor", "has_reconstructed", "possible_species", "has_props", "theoretical", "database_IDs"]}