{
  "builder_meta": null,
  "nsites": null,
  "elements": null,
  "nelements": null,
  "composition": null,
  "composition_reduced": null,
  "formula_pretty": "U5Ge4",
  "formula_anonymous": "A4B5",
  "chemsys": null,
  "volume": 371.0371598248384,
  "density": 13.25348519015251,
  "density_atomic": 20.613175545824355,
  "symmetry": null,
  "property_name": null,
  "material_id": "mp-505302",
  "deprecated": null,
  "deprecation_reasons": null,
  "last_updated": null,
  "origins": null,
  "warnings": null,
  "structure": {
    "@module": "pymatgen.core.structure",
    "@class": "Structure",
    "charge": 0,
    "lattice": {
      "matrix": [
        [4.290447, -7.431272, 0.0],
        [4.290447, 7.431272, 0.0],
        [0.0, 0.0, 5.818643]
      ],
      "pbc": [true, true, true],
      "a": 8.580893834431993,
      "b": 8.580893834431993,
      "c": 5.818643,
      "alpha": 90.0,
      "beta": 90.0,
      "gamma": 119.99999872345569,
      "volume": 371.0371598248384
    },
    "properties": {},
    "sites": [
      {
        "species": [{ "element": "U", "occu": 1 }],
        "abc": [0.333333, 0.666667, 0.0],
        "properties": { "magmom": 0.341 },
        "label": "U",
        "xyz": [4.290447, 2.4770956208480004, 0.0]
      },
      {
        "species": [{ "element": "U", "occu": 1 }],
        "abc": [0.666667, 0.333333, 0.5],
        "properties": { "magmom": 0.34400000000000003 },
        "label": "U",
        "xyz": [4.290447, -2.4770956208480004, 2.9093215]
      },
      {
        "species": [{ "element": "U", "occu": 1 }],
        "abc": [0.666667, 0.333333, 0.0],
        "properties": { "magmom": 0.352 },
        "label": "U",
        "xyz": [4.290447, -2.4770956208480004, 0.0]
      },
      {
        "species": [{ "element": "U", "occu": 1 }],
        "abc": [0.333333, 0.666667, 0.5],
        "properties": { "magmom": 0.34900000000000003 },
        "label": "U",
        "xyz": [4.290447, 2.4770956208480004, 2.9093215]
      },
      {
        "species": [{ "element": "U", "occu": 1 }],
        "abc": [0.29278000000000004, 0.0, 0.25],
        "properties": { "magmom": 1.012 },
        "label": "U",
        "xyz": [1.2561570726600002, -2.17572781616, 1.45466075]
      },
      {
        "species": [{ "element": "U", "occu": 1 }],
        "abc": [0.29278000000000004, 0.29278000000000004, 0.75],
        "properties": { "magmom": 1.008 },
        "label": "U",
        "xyz": [2.5123141453200004, 0.0, 4.363982249999999]
      },
      {
        "species": [{ "element": "U", "occu": 1 }],
        "abc": [0.0, 0.7072200000000001, 0.75],
        "properties": { "magmom": 1.016 },
        "label": "U",
        "xyz": [3.0342899273400006, 5.2555441838400005, 4.363982249999999]
      },
      {
        "species": [{ "element": "U", "occu": 1 }],
        "abc": [0.0, 0.29278000000000004, 0.25],
        "properties": { "magmom": 1.001 },
        "label": "U",
        "xyz": [1.2561570726600002, 2.17572781616, 1.45466075]
      },
      {
        "species": [{ "element": "U", "occu": 1 }],
        "abc": [0.7072200000000001, 0.7072200000000001, 0.25],
        "properties": { "magmom": 1.016 },
        "label": "U",
        "xyz": [6.068579854680001, 0.0, 1.45466075]
      },
      {
        "species": [{ "element": "U", "occu": 1 }],
        "abc": [0.7072200000000001, 0.0, 0.75],
        "properties": { "magmom": 1.01 },
        "label": "U",
        "xyz": [3.0342899273400006, -5.2555441838400005, 4.363982249999999]
      },
      {
        "species": [{ "element": "Ge", "occu": 1 }],
        "abc": [0.630037, 0.0, 0.25],
        "properties": { "magmom": -0.026000000000000002 },
        "label": "Ge",
        "xyz": [2.703140356539, -4.681976317064, 1.45466075]
      },
      {
        "species": [{ "element": "Ge", "occu": 1 }],
        "abc": [0.630037, 0.630037, 0.75],
        "properties": { "magmom": -0.026000000000000002 },
        "label": "Ge",
        "xyz": [5.406280713078, 0.0, 4.363982249999999]
      },
      {
        "species": [{ "element": "Ge", "occu": 1 }],
        "abc": [0.0, 0.369963, 0.75],
        "properties": { "magmom": -0.025 },
        "label": "Ge",
        "xyz": [1.5873066434610001, 2.749295682936, 4.363982249999999]
      },
      {
        "species": [{ "element": "Ge", "occu": 1 }],
        "abc": [0.0, 0.630037, 0.25],
        "properties": { "magmom": -0.026000000000000002 },
        "label": "Ge",
        "xyz": [2.703140356539, 4.681976317064, 1.45466075]
      },
      {
        "species": [{ "element": "Ge", "occu": 1 }],
        "abc": [0.369963, 0.369963, 0.25],
        "properties": { "magmom": -0.026000000000000002 },
        "label": "Ge",
        "xyz": [3.1746132869220003, 0.0, 1.45466075]
      },
      {
        "species": [{ "element": "Ge", "occu": 1 }],
        "abc": [0.369963, 0.0, 0.75],
        "properties": { "magmom": -0.026000000000000002 },
        "label": "Ge",
        "xyz": [1.5873066434610001, -2.749295682936, 4.363982249999999]
      },
      {
        "species": [{ "element": "Ge", "occu": 1 }],
        "abc": [0.0, 0.0, 0.0],
        "properties": { "magmom": -0.023 },
        "label": "Ge",
        "xyz": [0.0, 0.0, 0.0]
      },
      {
        "species": [{ "element": "Ge", "occu": 1 }],
        "abc": [0.0, 0.0, 0.5],
        "properties": { "magmom": -0.023 },
        "label": "Ge",
        "xyz": [0.0, 0.0, 2.9093215]
      }
    ]
  },
  "task_ids": null,
  "uncorrected_energy_per_atom": null,
  "energy_per_atom": -50.82426097813888,
  "formation_energy_per_atom": -0.24669503980554602,
  "energy_above_hull": 0.038993983750003,
  "is_stable": false,
  "equilibrium_reaction_energy_per_atom": null,
  "decomposes_to": null,
  "xas": null,
  "grain_boundaries": null,
  "band_gap": 0.0,
  "cbm": null,
  "vbm": null,
  "efermi": 10.835353510000001,
  "is_gap_direct": null,
  "is_metal": null,
  "es_source_calc_id": null,
  "bandstructure": null,
  "dos": null,
  "dos_energy_up": null,
  "dos_energy_down": null,
  "is_magnetic": null,
  "ordering": null,
  "total_magnetization": 7.8692185,
  "total_magnetization_normalized_vol": null,
  "total_magnetization_normalized_formula_units": null,
  "num_magnetic_sites": null,
  "num_unique_magnetic_sites": null,
  "types_of_magnetic_species": null,
  "bulk_modulus": null,
  "shear_modulus": null,
  "universal_anisotropy": null,
  "homogeneous_poisson": null,
  "e_total": null,
  "e_ionic": null,
  "e_electronic": null,
  "n": null,
  "e_ij_max": null,
  "weighted_surface_energy_EV_PER_ANG2": null,
  "weighted_surface_energy": null,
  "weighted_work_function": null,
  "surface_anisotropy": null,
  "shape_factor": null,
  "has_reconstructed": null,
  "possible_species": null,
  "has_props": null,
  "theoretical": null,
  "database_IDs": null,
  "fields_not_requested": [
    "builder_meta",
    "nsites",
    "elements",
    "nelements",
    "composition",
    "composition_reduced",
    "chemsys",
    "symmetry",
    "property_name",
    "deprecated",
    "deprecation_reasons",
    "last_updated",
    "origins",
    "warnings",
    "task_ids",
    "uncorrected_energy_per_atom",
    "equilibrium_reaction_energy_per_atom",
    "decomposes_to",
    "xas",
    "grain_boundaries",
    "cbm",
    "vbm",
    "is_gap_direct",
    "is_metal",
    "es_source_calc_id",
    "bandstructure",
    "dos",
    "dos_energy_up",
    "dos_energy_down",
    "is_magnetic",
    "ordering",
    "total_magnetization_normalized_vol",
    "total_magnetization_normalized_formula_units",
    "num_magnetic_sites",
    "num_unique_magnetic_sites",
    "types_of_magnetic_species",
    "bulk_modulus",
    "shear_modulus",
    "universal_anisotropy",
    "homogeneous_poisson",
    "e_total",
    "e_ionic",
    "e_electronic",
    "n",
    "e_ij_max",
    "weighted_surface_energy_EV_PER_ANG2",
    "weighted_surface_energy",
    "weighted_work_function",
    "surface_anisotropy",
    "shape_factor",
    "has_reconstructed",
    "possible_species",
    "has_props",
    "theoretical",
    "database_IDs"
  ]
}
