{
  "builder_meta": null,
  "nsites": null,
  "elements": null,
  "nelements": null,
  "composition": null,
  "composition_reduced": null,
  "formula_pretty": "U5Ge3",
  "formula_anonymous": "A3B5",
  "chemsys": null,
  "volume": 346.4234414697694,
  "density": 13.4987758544832,
  "density_atomic": 21.651465091860587,
  "symmetry": null,
  "property_name": null,
  "material_id": "mp-622345",
  "deprecated": null,
  "deprecation_reasons": null,
  "last_updated": null,
  "origins": null,
  "warnings": null,
  "structure": {
    "@module": "pymatgen.core.structure",
    "@class": "Structure",
    "charge": 0,
    "lattice": {
      "matrix": [
        [4.277615, -7.409046, 0.0],
        [4.277615, 7.409046, 0.0],
        [0.0, 0.0, 5.465291]
      ],
      "pbc": [true, true, true],
      "a": 8.555229553807484,
      "b": 8.555229553807484,
      "c": 5.465291,
      "alpha": 90.0,
      "beta": 90.0,
      "gamma": 119.99999654949535,
      "volume": 346.4234414697694
    },
    "properties": {},
    "sites": [
      {
        "species": [{ "element": "U", "occu": 1 }],
        "abc": [0.0, 0.233768999999999, 0.25],
        "properties": { "magmom": 0.097 },
        "label": "U",
        "xyz": [0.9999737809349958, 1.7320052743739927, 1.36632275]
      },
      {
        "species": [{ "element": "U", "occu": 1 }],
        "abc": [0.233768999999999, 0.0, 0.25],
        "properties": { "magmom": 0.1 },
        "label": "U",
        "xyz": [0.9999737809349958, -1.7320052743739927, 1.36632275]
      },
      {
        "species": [{ "element": "U", "occu": 1 }],
        "abc": [0.333333, 0.666667, 0.0],
        "properties": { "magmom": 0.063 },
        "label": "U",
        "xyz": [4.277615, 2.4696869393639997, 0.0]
      },
      {
        "species": [{ "element": "U", "occu": 1 }],
        "abc": [0.766231, 0.766231, 0.25],
        "properties": { "magmom": 0.099 },
        "label": "U",
        "xyz": [6.55528243813, 0.0, 1.36632275]
      },
      {
        "species": [{ "element": "U", "occu": 1 }],
        "abc": [0.233768999999999, 0.233768999999999, 0.75],
        "properties": { "magmom": 0.099 },
        "label": "U",
        "xyz": [1.9999475618699916, 0.0, 4.0989682499999995]
      },
      {
        "species": [{ "element": "U", "occu": 1 }],
        "abc": [0.666667, 0.333333, 0.0],
        "properties": { "magmom": 0.063 },
        "label": "U",
        "xyz": [4.277615, -2.4696869393639997, 0.0]
      },
      {
        "species": [{ "element": "U", "occu": 1 }],
        "abc": [0.766231, 0.0, 0.75],
        "properties": { "magmom": 0.1 },
        "label": "U",
        "xyz": [3.277641219065, -5.677040725626, 4.0989682499999995]
      },
      {
        "species": [{ "element": "U", "occu": 1 }],
        "abc": [0.0, 0.766231, 0.75],
        "properties": { "magmom": 0.097 },
        "label": "U",
        "xyz": [3.277641219065, 5.677040725626, 4.0989682499999995]
      },
      {
        "species": [{ "element": "U", "occu": 1 }],
        "abc": [0.333333, 0.666667, 0.5],
        "properties": { "magmom": 0.063 },
        "label": "U",
        "xyz": [4.277615, 2.4696869393639997, 2.7326455]
      },
      {
        "species": [{ "element": "U", "occu": 1 }],
        "abc": [0.666667, 0.333333, 0.5],
        "properties": { "magmom": 0.063 },
        "label": "U",
        "xyz": [4.277615, -2.4696869393639997, 2.7326455]
      },
      {
        "species": [{ "element": "Ge", "occu": 1 }],
        "abc": [0.392843999999999, 0.0, 0.75],
        "properties": { "magmom": -0.003 },
        "label": "Ge",
        "xyz": [1.6804353870599957, -2.9105992668239926, 4.0989682499999995]
      },
      {
        "species": [{ "element": "Ge", "occu": 1 }],
        "abc": [0.392843999999999, 0.392843999999999, 0.25],
        "properties": { "magmom": -0.003 },
        "label": "Ge",
        "xyz": [3.3608707741199915, 0.0, 1.36632275]
      },
      {
        "species": [{ "element": "Ge", "occu": 1 }],
        "abc": [0.0, 0.607155999999999, 0.25],
        "properties": { "magmom": -0.003 },
        "label": "Ge",
        "xyz": [2.5971796129399958, 4.498446733175993, 1.36632275]
      },
      {
        "species": [{ "element": "Ge", "occu": 1 }],
        "abc": [0.607155999999999, 0.0, 0.25],
        "properties": { "magmom": -0.003 },
        "label": "Ge",
        "xyz": [2.5971796129399958, -4.498446733175993, 1.36632275]
      },
      {
        "species": [{ "element": "Ge", "occu": 1 }],
        "abc": [0.607155999999999, 0.607155999999999, 0.75],
        "properties": { "magmom": -0.003 },
        "label": "Ge",
        "xyz": [5.1943592258799915, 0.0, 4.0989682499999995]
      },
      {
        "species": [{ "element": "Ge", "occu": 1 }],
        "abc": [0.0, 0.392843999999999, 0.75],
        "properties": { "magmom": -0.003 },
        "label": "Ge",
        "xyz": [1.6804353870599957, 2.9105992668239926, 4.0989682499999995]
      }
    ]
  },
  "task_ids": null,
  "uncorrected_energy_per_atom": null,
  "energy_per_atom": -55.189342077375,
  "formation_energy_per_atom": -0.023577594249999,
  "energy_above_hull": 0.22756171062499603,
  "is_stable": false,
  "equilibrium_reaction_energy_per_atom": null,
  "decomposes_to": null,
  "xas": null,
  "grain_boundaries": null,
  "band_gap": 0.0,
  "cbm": null,
  "vbm": null,
  "efermi": 10.80539955,
  "is_gap_direct": null,
  "is_metal": null,
  "es_source_calc_id": null,
  "bandstructure": null,
  "dos": null,
  "dos_energy_up": null,
  "dos_energy_down": null,
  "is_magnetic": null,
  "ordering": null,
  "total_magnetization": 0.746699799999999,
  "total_magnetization_normalized_vol": null,
  "total_magnetization_normalized_formula_units": null,
  "num_magnetic_sites": null,
  "num_unique_magnetic_sites": null,
  "types_of_magnetic_species": null,
  "bulk_modulus": null,
  "shear_modulus": null,
  "universal_anisotropy": null,
  "homogeneous_poisson": null,
  "e_total": null,
  "e_ionic": null,
  "e_electronic": null,
  "n": null,
  "e_ij_max": null,
  "weighted_surface_energy_EV_PER_ANG2": null,
  "weighted_surface_energy": null,
  "weighted_work_function": null,
  "surface_anisotropy": null,
  "shape_factor": null,
  "has_reconstructed": null,
  "possible_species": null,
  "has_props": null,
  "theoretical": null,
  "database_IDs": null,
  "fields_not_requested": [
    "builder_meta",
    "nsites",
    "elements",
    "nelements",
    "composition",
    "composition_reduced",
    "chemsys",
    "symmetry",
    "property_name",
    "deprecated",
    "deprecation_reasons",
    "last_updated",
    "origins",
    "warnings",
    "task_ids",
    "uncorrected_energy_per_atom",
    "equilibrium_reaction_energy_per_atom",
    "decomposes_to",
    "xas",
    "grain_boundaries",
    "cbm",
    "vbm",
    "is_gap_direct",
    "is_metal",
    "es_source_calc_id",
    "bandstructure",
    "dos",
    "dos_energy_up",
    "dos_energy_down",
    "is_magnetic",
    "ordering",
    "total_magnetization_normalized_vol",
    "total_magnetization_normalized_formula_units",
    "num_magnetic_sites",
    "num_unique_magnetic_sites",
    "types_of_magnetic_species",
    "bulk_modulus",
    "shear_modulus",
    "universal_anisotropy",
    "homogeneous_poisson",
    "e_total",
    "e_ionic",
    "e_electronic",
    "n",
    "e_ij_max",
    "weighted_surface_energy_EV_PER_ANG2",
    "weighted_surface_energy",
    "weighted_work_function",
    "surface_anisotropy",
    "shape_factor",
    "has_reconstructed",
    "possible_species",
    "has_props",
    "theoretical",
    "database_IDs"
  ]
}
