{"builder_meta": null, "nsites": null, "elements": null, "nelements": null, "composition": null, "composition_reduced": null, "formula_pretty": "U5Sb4", "formula_anonymous": "A4B5", "chemsys": null, "volume": 461.1266332772007, "density": 12.079243601176914, "density_atomic": 25.618146293177816, "symmetry": null, "property_name": null, "material_id": "mp-1207950", "deprecated": null, "deprecation_reasons": null, "last_updated": null, "origins": null, "warnings": null, "structure": {"@module": "pymatgen.core.structure", "@class": "Structure", "charge": 0, "lattice": {"matrix": [[4.654774, -8.062306, 0.0], [4.654774, 8.062306, 0.0], [0.0, 0.0, 6.143733]], "pbc": [true, true, true], "a": 9.309548809083713, "b": 9.309548809083713, "c": 6.143733, "alpha": 90.0, "beta": 90.0, "gamma": 120.00000574985404, "volume": 461.1266332772007}, "properties": {}, "sites": [{"species": [{"element": "U", "occu": 1}], "abc": [0.333333, 0.666667, 0.0], "properties": {"magmom": 2.394}, "label": "U", "xyz": [4.654774, 2.6874407082040004, 0.0]}, {"species": [{"element": "U", "occu": 1}], "abc": [0.666667, 0.333333, 0.0], "properties": {"magmom": 2.394}, "label": "U", "xyz": [4.654774, -2.6874407082040004, 0.0]}, {"species": [{"element": "U", "occu": 1}], "abc": [0.666667, 0.333333, 0.5], "properties": {"magmom": 2.398}, "label": "U", "xyz": [4.654774, -2.6874407082040004, 3.0718665]}, {"species": [{"element": "U", "occu": 1}], "abc": [0.333333, 0.666667, 0.5], "properties": {"magmom": 2.398}, "label": "U", "xyz": [4.654774, 2.6874407082040004, 3.0718665]}, {"species": [{"element": "U", "occu": 1}], "abc": [0.288411, 0.0, 0.25], "properties": {"magmom": 0.081}, "label": "U", "xyz": [1.3424880241139998, -2.325257735766, 1.53593325]}, {"species": [{"element": "U", "occu": 1}], "abc": [0.711588999999999, 0.0, 0.75], "properties": {"magmom": 0.081}, "label": "U", "xyz": [3.3122859758859953, -5.737048264233992, 4.60779975]}, {"species": [{"element": "U", "occu": 1}], "abc": [0.0, 0.288411, 0.25], "properties": {"magmom": 0.138}, "label": "U", "xyz": [1.3424880241139998, 2.325257735766, 1.53593325]}, {"species": [{"element": "U", "occu": 1}], "abc": [0.0, 0.711588999999999, 0.75], "properties": {"magmom": 0.138}, "label": "U", "xyz": [3.3122859758859953, 5.737048264233992, 4.60779975]}, {"species": [{"element": "U", "occu": 1}], "abc": [0.711588999999999, 0.711588999999999, 0.25], "properties": {"magmom": 0.081}, "label": "U", "xyz": [6.6245719517719905, 0.0, 1.53593325]}, {"species": [{"element": "U", "occu": 1}], "abc": [0.288411, 0.288411, 0.75], "properties": {"magmom": 0.081}, "label": "U", "xyz": [2.6849760482279996, 0.0, 4.60779975]}, {"species": [{"element": "Sb", "occu": 1}], "abc": [0.0, 0.0, 0.0], "properties": {"magmom": -0.003}, "label": "Sb", "xyz": [0.0, 0.0, 0.0]}, {"species": [{"element": "Sb", "occu": 1}], "abc": [0.0, 0.0, 0.5], "properties": {"magmom": -0.003}, "label": "Sb", "xyz": [0.0, 0.0, 3.0718665]}, {"species": [{"element": "Sb", "occu": 1}], "abc": [0.622583, 0.0, 0.25], "properties": {"magmom": -0.023}, "label": "Sb", "xyz": [2.8979831612419997, -5.019454656398, 1.53593325]}, {"species": [{"element": "Sb", "occu": 1}], "abc": [0.377417, 0.0, 0.75], "properties": {"magmom": -0.023}, "label": "Sb", "xyz": [1.756790838758, -3.042851343602, 4.60779975]}, {"species": [{"element": "Sb", "occu": 1}], "abc": [0.0, 0.622583, 0.25], "properties": {"magmom": -0.023}, "label": "Sb", "xyz": [2.8979831612419997, 5.019454656398, 1.53593325]}, {"species": [{"element": "Sb", "occu": 1}], "abc": [0.0, 0.377417, 0.75], "properties": {"magmom": -0.023}, "label": "Sb", "xyz": [1.756790838758, 3.042851343602, 4.60779975]}, {"species": [{"element": "Sb", "occu": 1}], "abc": [0.377417, 0.377417, 0.25], "properties": {"magmom": -0.023}, "label": "Sb", "xyz": [3.513581677516, 0.0, 1.53593325]}, {"species": [{"element": "Sb", "occu": 1}], "abc": [0.622583, 0.622583, 0.75], "properties": {"magmom": -0.023}, "label": "Sb", "xyz": [5.7959663224839995, 0.0, 4.60779975]}]}, "task_ids": null, "uncorrected_energy_per_atom": null, "energy_per_atom": -56.23680605555555, "formation_energy_per_atom": -0.39953427277777104, "energy_above_hull": 0.112748733888892, "is_stable": false, "equilibrium_reaction_energy_per_atom": null, "decomposes_to": null, "xas": null, "grain_boundaries": null, "band_gap": 0.0, "cbm": null, "vbm": null, "efermi": 10.60852836, "is_gap_direct": null, "is_metal": null, "es_source_calc_id": null, "bandstructure": null, "dos": null, "dos_energy_up": null, "dos_energy_down": null, "is_magnetic": null, "ordering": null, "total_magnetization": 10.4846823, "total_magnetization_normalized_vol": null, "total_magnetization_normalized_formula_units": null, "num_magnetic_sites": null, "num_unique_magnetic_sites": null, "types_of_magnetic_species": null, "bulk_modulus": null, "shear_modulus": null, "universal_anisotropy": null, "homogeneous_poisson": null, "e_total": null, "e_ionic": null, "e_electronic": null, "n": null, "e_ij_max": null, "weighted_surface_energy_EV_PER_ANG2": null, "weighted_surface_energy": null, "weighted_work_function": null, "surface_anisotropy": null, "shape_factor": null, "has_reconstructed": null, "possible_species": null, "has_props": null, "theoretical": null, "database_IDs": null, "fields_not_requested": ["builder_meta", "nsites", "elements", "nelements", "composition", "composition_reduced", "chemsys", "symmetry", "property_name", "deprecated", "deprecation_reasons", "last_updated", "origins", "warnings", "task_ids", "uncorrected_energy_per_atom", "equilibrium_reaction_energy_per_atom", "decomposes_to", "xas", "grain_boundaries", "cbm", "vbm", "is_gap_direct", "is_metal", "es_source_calc_id", "bandstructure", "dos", "dos_energy_up", "dos_energy_down", "is_magnetic", "ordering", "total_magnetization_normalized_vol", "total_magnetization_normalized_formula_units", "num_magnetic_sites", "num_unique_magnetic_sites", "types_of_magnetic_species", "bulk_modulus", "shear_modulus", "universal_anisotropy", "homogeneous_poisson", "e_total", "e_ionic", "e_electronic", "n", "e_ij_max", "weighted_surface_energy_EV_PER_ANG2", "weighted_surface_energy", "weighted_work_function", "surface_anisotropy", "shape_factor", "has_reconstructed", "possible_species", "has_props", "theoretical", "database_IDs"]}