{"builder_meta": null, "nsites": null, "elements": null, "nelements": null, "composition": null, "composition_reduced": null, "formula_pretty": "U5Sn4", "formula_anonymous": "A4B5", "chemsys": null, "volume": 469.0460937173891, "density": 11.788913403578022, "density_atomic": 26.058116317632727, "symmetry": null, "property_name": null, "material_id": "mp-1208157", "deprecated": null, "deprecation_reasons": null, "last_updated": null, "origins": null, "warnings": null, "structure": {"@module": "pymatgen.core.structure", "@class": "Structure", "charge": 0, "lattice": {"matrix": [[4.677064, -8.100912, 0.0], [4.677064, 8.100912, 0.0], [0.0, 0.0, 6.189824]], "pbc": [true, true, true], "a": 9.354127585822207, "b": 9.354127585822207, "c": 6.189824, "alpha": 90.0, "beta": 90.0, "gamma": 119.99999707062128, "volume": 469.0460937173891}, "properties": {}, "sites": [{"species": [{"element": "U", "occu": 1}], "abc": [0.333333, 0.666667, 0.0], "properties": {"magmom": 2.932}, "label": "U", "xyz": [4.677064, 2.7003094006079995, 0.0]}, {"species": [{"element": "U", "occu": 1}], "abc": [0.666667, 0.333333, 0.0], "properties": {"magmom": 2.9290000000000003}, "label": "U", "xyz": [4.677064, -2.7003094006079995, 0.0]}, {"species": [{"element": "U", "occu": 1}], "abc": [0.666667, 0.333333, 0.5], "properties": {"magmom": 2.951}, "label": "U", "xyz": [4.677064, -2.7003094006079995, 3.094912]}, {"species": [{"element": "U", "occu": 1}], "abc": [0.333333, 0.666667, 0.5], "properties": {"magmom": 2.946}, "label": "U", "xyz": [4.677064, 2.7003094006079995, 3.094912]}, {"species": [{"element": "U", "occu": 1}], "abc": [0.289164, 0.0, 0.25], "properties": {"magmom": 2.332}, "label": "U", "xyz": [1.3524385344959997, -2.342492117568, 1.547456]}, {"species": [{"element": "U", "occu": 1}], "abc": [0.710835999999999, 0.0, 0.75], "properties": {"magmom": 2.325}, "label": "U", "xyz": [3.324625465503995, -5.758419882431991, 4.642367999999999]}, {"species": [{"element": "U", "occu": 1}], "abc": [0.0, 0.289164, 0.25], "properties": {"magmom": 2.4}, "label": "U", "xyz": [1.3524385344959997, 2.342492117568, 1.547456]}, {"species": [{"element": "U", "occu": 1}], "abc": [0.0, 0.710835999999999, 0.75], "properties": {"magmom": 2.385}, "label": "U", "xyz": [3.324625465503995, 5.758419882431991, 4.642367999999999]}, {"species": [{"element": "U", "occu": 1}], "abc": [0.710835999999999, 0.710835999999999, 0.25], "properties": {"magmom": 2.33}, "label": "U", "xyz": [6.64925093100799, 0.0, 1.547456]}, {"species": [{"element": "U", "occu": 1}], "abc": [0.289164, 0.289164, 0.75], "properties": {"magmom": 2.321}, "label": "U", "xyz": [2.7048770689919994, 0.0, 4.642367999999999]}, {"species": [{"element": "Sn", "occu": 1}], "abc": [0.0, 0.0, 0.0], "properties": {"magmom": -0.034}, "label": "Sn", "xyz": [0.0, 0.0, 0.0]}, {"species": [{"element": "Sn", "occu": 1}], "abc": [0.0, 0.0, 0.5], "properties": {"magmom": -0.047}, "label": "Sn", "xyz": [0.0, 0.0, 3.094912]}, {"species": [{"element": "Sn", "occu": 1}], "abc": [0.626228999999999, 0.0, 0.25], "properties": {"magmom": -0.079}, "label": "Sn", "xyz": [2.928913111655995, -5.073026020847991, 1.547456]}, {"species": [{"element": "Sn", "occu": 1}], "abc": [0.373770999999999, 0.0, 0.75], "properties": {"magmom": -0.079}, "label": "Sn", "xyz": [1.7481508883439953, -3.027885979151992, 4.642367999999999]}, {"species": [{"element": "Sn", "occu": 1}], "abc": [0.0, 0.626228999999999, 0.25], "properties": {"magmom": -0.075}, "label": "Sn", "xyz": [2.928913111655995, 5.073026020847991, 1.547456]}, {"species": [{"element": "Sn", "occu": 1}], "abc": [0.0, 0.373770999999999, 0.75], "properties": {"magmom": -0.075}, "label": "Sn", "xyz": [1.7481508883439953, 3.027885979151992, 4.642367999999999]}, {"species": [{"element": "Sn", "occu": 1}], "abc": [0.373770999999999, 0.373770999999999, 0.25], "properties": {"magmom": -0.079}, "label": "Sn", "xyz": [3.4963017766879907, 0.0, 1.547456]}, {"species": [{"element": "Sn", "occu": 1}], "abc": [0.626228999999999, 0.626228999999999, 0.75], "properties": {"magmom": -0.079}, "label": "Sn", "xyz": [5.85782622331199, 0.0, 4.642367999999999]}]}, "task_ids": null, "uncorrected_energy_per_atom": null, "energy_per_atom": -7.949850356666666, "formation_energy_per_atom": 0.10518714000000401, "energy_above_hull": 0.185536029206352, "is_stable": false, "equilibrium_reaction_energy_per_atom": null, "decomposes_to": null, "xas": null, "grain_boundaries": null, "band_gap": 0.0, "cbm": null, "vbm": null, "efermi": 10.03055862, "is_gap_direct": null, "is_metal": null, "es_source_calc_id": null, "bandstructure": null, "dos": null, "dos_energy_up": null, "dos_energy_down": null, "is_magnetic": null, "ordering": null, "total_magnetization": 29.6384129, "total_magnetization_normalized_vol": null, "total_magnetization_normalized_formula_units": null, "num_magnetic_sites": null, "num_unique_magnetic_sites": null, "types_of_magnetic_species": null, "bulk_modulus": null, "shear_modulus": null, "universal_anisotropy": null, "homogeneous_poisson": null, "e_total": null, "e_ionic": null, "e_electronic": null, "n": null, "e_ij_max": null, "weighted_surface_energy_EV_PER_ANG2": null, "weighted_surface_energy": null, "weighted_work_function": null, "surface_anisotropy": null, "shape_factor": null, "has_reconstructed": null, "possible_species": null, "has_props": null, "theoretical": null, "database_IDs": null, "fields_not_requested": ["builder_meta", "nsites", "elements", "nelements", "composition", "composition_reduced", "chemsys", "symmetry", "property_name", "deprecated", "deprecation_reasons", "last_updated", "origins", "warnings", "task_ids", "uncorrected_energy_per_atom", "equilibrium_reaction_energy_per_atom", "decomposes_to", "xas", "grain_boundaries", "cbm", "vbm", "is_gap_direct", "is_metal", "es_source_calc_id", "bandstructure", "dos", "dos_energy_up", "dos_energy_down", "is_magnetic", "ordering", "total_magnetization_normalized_vol", "total_magnetization_normalized_formula_units", "num_magnetic_sites", "num_unique_magnetic_sites", "types_of_magnetic_species", "bulk_modulus", "shear_modulus", "universal_anisotropy", "homogeneous_poisson", "e_total", "e_ionic", "e_electronic", "n", "e_ij_max", "weighted_surface_energy_EV_PER_ANG2", "weighted_surface_energy", "weighted_work_function", "surface_anisotropy", "shape_factor", "has_reconstructed", "possible_species", "has_props", "theoretical", "database_IDs"]}