{
  "builder_meta": null,
  "nsites": null,
  "elements": null,
  "nelements": null,
  "composition": null,
  "composition_reduced": null,
  "formula_pretty": "U6Co",
  "formula_anonymous": "AB6",
  "chemsys": null,
  "volume": 269.13143073714446,
  "density": 18.350875555967026,
  "density_atomic": 19.223673624081748,
  "symmetry": null,
  "property_name": null,
  "material_id": "mp-582635",
  "deprecated": null,
  "deprecation_reasons": null,
  "last_updated": null,
  "origins": null,
  "warnings": null,
  "structure": {
    "@module": "pymatgen.core.structure",
    "@class": "Structure",
    "charge": 0,
    "lattice": {
      "matrix": [
        [-5.106888, 5.106888, 2.579834],
        [5.106888, -5.106888, 2.579834],
        [5.106888, 5.106888, -2.579834]
      ],
      "pbc": [true, true, true],
      "a": 7.669169026475032,
      "b": 7.669169026475032,
      "c": 7.669169026475032,
      "alpha": 96.49741735985748,
      "beta": 96.49741735985748,
      "gamma": 140.6857939802853,
      "volume": 269.13143073714446
    },
    "properties": {},
    "sites": [
      {
        "species": [{ "element": "U", "occu": 1 }],
        "abc": [0.895208999999999, 0.21676499999999901, 0.111972999999999],
        "properties": { "magmom": -0.005 },
        "label": "U",
        "xyz": [-2.8929039522480053, 4.036571092295995, 2.5798365798339975]
      },
      {
        "species": [{ "element": "U", "occu": 1 }],
        "abc": [0.405962999999999, 0.905963, 0.311927],
        "properties": { "magmom": -0.004 },
        "label": "U",
        "xyz": [4.146420253176005, -0.9604677468240048, 2.5798314201659975]
      },
      {
        "species": [{ "element": "U", "occu": 1 }],
        "abc": [0.094037, 0.405962999999999, 0.5],
        "properties": { "magmom": -0.004 },
        "label": "U",
        "xyz": [4.146415146287994, 0.9604728537120049, -2.4424906541753444e-15]
      },
      {
        "species": [{ "element": "U", "occu": 1 }],
        "abc": [0.104791, 0.783235, 0.888027],
        "properties": { "magmom": -0.005 },
        "label": "U",
        "xyz": [7.999791952247999, 1.070316907704, -2.5798340002047837e-6]
      },
      {
        "species": [{ "element": "U", "occu": 1 }],
        "abc": [0.594036999999999, 0.094037, 0.688072999999999],
        "properties": { "magmom": -0.004 },
        "label": "U",
        "xyz": [0.9604677468239999, 6.06735574682399, 2.579833999982739e-6]
      },
      {
        "species": [{ "element": "U", "occu": 1 }],
        "abc": [0.21676499999999901, 0.104791, 0.321556],
        "properties": { "magmom": -0.004 },
        "label": "U",
        "xyz": [1.0703118008160049, 2.213989154639995, -2.55351295663786e-15]
      },
      {
        "species": [{ "element": "U", "occu": 1 }],
        "abc": [0.783235, 0.895208999999999, 0.678443999999999],
        "properties": { "magmom": -0.004 },
        "label": "U",
        "xyz": [4.03657619918399, 2.8928988453599995, 2.579834]
      },
      {
        "species": [{ "element": "U", "occu": 1 }],
        "abc": [0.604791, 0.716765, 0.321556],
        "properties": { "magmom": -0.004 },
        "label": "U",
        "xyz": [2.21398915464, 1.0703118008159995, 2.579834]
      },
      {
        "species": [{ "element": "U", "occu": 1 }],
        "abc": [0.716765, 0.395209, 0.111972999999999],
        "properties": { "magmom": -0.004 },
        "label": "U",
        "xyz": [-1.0703169077040053, 2.213984047751995, 2.5798365798340024]
      },
      {
        "species": [{ "element": "U", "occu": 1 }],
        "abc": [0.395209, 0.283235, 0.678443999999999],
        "properties": { "magmom": -0.004 },
        "label": "U",
        "xyz": [2.892898845359995, 4.036576199183995, 2.6645352591003757e-15]
      },
      {
        "species": [{ "element": "U", "occu": 1 }],
        "abc": [0.905963, 0.594036999999999, 0.5],
        "properties": { "magmom": -0.004 },
        "label": "U",
        "xyz": [0.9604728537119951, 4.146415146288005, 2.5798339999999973]
      },
      {
        "species": [{ "element": "U", "occu": 1 }],
        "abc": [0.283235, 0.604791, 0.888027],
        "properties": { "magmom": -0.004 },
        "label": "U",
        "xyz": [6.177204907703999, 2.892903952248, -2.5798339997606945e-6]
      },
      {
        "species": [{ "element": "Co", "occu": 1 }],
        "abc": [0.25, 0.25, 0.0],
        "properties": { "magmom": -0.001 },
        "label": "Co",
        "xyz": [0.0, 0.0, 1.289917]
      },
      {
        "species": [{ "element": "Co", "occu": 1 }],
        "abc": [0.75, 0.75, 0.0],
        "properties": { "magmom": -0.001 },
        "label": "Co",
        "xyz": [0.0, 0.0, 3.869751]
      }
    ]
  },
  "task_ids": null,
  "uncorrected_energy_per_atom": null,
  "energy_per_atom": -70.41541891464286,
  "formation_energy_per_atom": -0.0030687889285770003,
  "energy_above_hull": 0.04077744607143,
  "is_stable": false,
  "equilibrium_reaction_energy_per_atom": null,
  "decomposes_to": null,
  "xas": null,
  "grain_boundaries": null,
  "band_gap": 0.0,
  "cbm": null,
  "vbm": null,
  "efermi": 13.84877402,
  "is_gap_direct": null,
  "is_metal": null,
  "es_source_calc_id": null,
  "bandstructure": null,
  "dos": null,
  "dos_energy_up": null,
  "dos_energy_down": null,
  "is_magnetic": null,
  "ordering": null,
  "total_magnetization": 0.054816,
  "total_magnetization_normalized_vol": null,
  "total_magnetization_normalized_formula_units": null,
  "num_magnetic_sites": null,
  "num_unique_magnetic_sites": null,
  "types_of_magnetic_species": null,
  "bulk_modulus": null,
  "shear_modulus": null,
  "universal_anisotropy": null,
  "homogeneous_poisson": null,
  "e_total": null,
  "e_ionic": null,
  "e_electronic": null,
  "n": null,
  "e_ij_max": null,
  "weighted_surface_energy_EV_PER_ANG2": null,
  "weighted_surface_energy": null,
  "weighted_work_function": null,
  "surface_anisotropy": null,
  "shape_factor": null,
  "has_reconstructed": null,
  "possible_species": null,
  "has_props": null,
  "theoretical": null,
  "database_IDs": null,
  "fields_not_requested": [
    "builder_meta",
    "nsites",
    "elements",
    "nelements",
    "composition",
    "composition_reduced",
    "chemsys",
    "symmetry",
    "property_name",
    "deprecated",
    "deprecation_reasons",
    "last_updated",
    "origins",
    "warnings",
    "task_ids",
    "uncorrected_energy_per_atom",
    "equilibrium_reaction_energy_per_atom",
    "decomposes_to",
    "xas",
    "grain_boundaries",
    "cbm",
    "vbm",
    "is_gap_direct",
    "is_metal",
    "es_source_calc_id",
    "bandstructure",
    "dos",
    "dos_energy_up",
    "dos_energy_down",
    "is_magnetic",
    "ordering",
    "total_magnetization_normalized_vol",
    "total_magnetization_normalized_formula_units",
    "num_magnetic_sites",
    "num_unique_magnetic_sites",
    "types_of_magnetic_species",
    "bulk_modulus",
    "shear_modulus",
    "universal_anisotropy",
    "homogeneous_poisson",
    "e_total",
    "e_ionic",
    "e_electronic",
    "n",
    "e_ij_max",
    "weighted_surface_energy_EV_PER_ANG2",
    "weighted_surface_energy",
    "weighted_work_function",
    "surface_anisotropy",
    "shape_factor",
    "has_reconstructed",
    "possible_species",
    "has_props",
    "theoretical",
    "database_IDs"
  ]
}
