{
  "builder_meta": null,
  "nsites": null,
  "elements": null,
  "nelements": null,
  "composition": null,
  "composition_reduced": null,
  "formula_pretty": "U6Fe",
  "formula_anonymous": "AB6",
  "chemsys": null,
  "volume": 270.1423810919332,
  "density": 18.244235639182758,
  "density_atomic": 19.295884363709515,
  "symmetry": null,
  "property_name": null,
  "material_id": "mp-21108",
  "deprecated": null,
  "deprecation_reasons": null,
  "last_updated": null,
  "origins": null,
  "warnings": null,
  "structure": {
    "@module": "pymatgen.core.structure",
    "@class": "Structure",
    "charge": 0,
    "lattice": {
      "matrix": [
        [-5.070697, 5.070697, 2.626621],
        [5.070697, -5.070697, 2.626621],
        [5.070697, 5.070697, -2.626621]
      ],
      "pbc": [true, true, true],
      "a": 7.636954498310109,
      "b": 7.636954498310109,
      "c": 7.636954498310109,
      "alpha": 96.79352425287057,
      "beta": 96.79352425287057,
      "gamma": 139.7663236979645,
      "volume": 270.1423810919332
    },
    "properties": {},
    "sites": [
      {
        "species": [{ "element": "U", "occu": 1 }],
        "abc": [0.09390899999999901, 0.593909, 0.687819],
        "properties": { "magmom": 0.05 },
        "label": "U",
        "xyz": [6.023070239843005, 0.9523732398429949, -2.626621002699281e-6]
      },
      {
        "species": [{ "element": "U", "occu": 1 }],
        "abc": [0.593909, 0.906091, 0.5],
        "properties": { "magmom": 0.025 },
        "label": "U",
        "xyz": [4.118328830854, 0.9523681691460002, 2.626621]
      },
      {
        "species": [{ "element": "U", "occu": 1 }],
        "abc": [0.406091, 0.09390899999999901, 0.5],
        "properties": { "magmom": 0.025 },
        "label": "U",
        "xyz": [0.9523681691459951, 4.118328830854005, -2.6645352591003757e-15]
      },
      {
        "species": [{ "element": "U", "occu": 1 }],
        "abc": [0.906091, 0.406091, 0.312181],
        "properties": { "magmom": 0.05 },
        "label": "U",
        "xyz": [-0.952373239843, 4.118323760157, 2.626623626621]
      },
      {
        "species": [{ "element": "U", "occu": 1 }],
        "abc": [0.899278999999999, 0.782432999999999, 0.681711],
        "properties": { "magmom": 0.021 },
        "label": "U",
        "xyz": [2.864259260905, 4.0492405842290005, 2.6266236266209955]
      },
      {
        "species": [{ "element": "U", "occu": 1 }],
        "abc": [0.782432999999999, 0.100720999999999, 0.883154],
        "properties": { "magmom": 0.014 },
        "label": "U",
        "xyz": [1.021451345074, 7.9349613316020005, -5.329070518200751e-15]
      },
      {
        "species": [{ "element": "U", "occu": 1 }],
        "abc": [0.217566999999999, 0.899278999999999, 0.116845999999999],
        "properties": { "magmom": 0.014 },
        "label": "U",
        "xyz": [4.049245654925995, -2.8642643316020058, 2.6266209999999974]
      },
      {
        "species": [{ "element": "U", "occu": 1 }],
        "abc": [0.100720999999999, 0.217566999999999, 0.318289],
        "properties": { "magmom": 0.021 },
        "label": "U",
        "xyz": [2.206437739095, 1.021456415771, -2.6266210051417715e-6]
      },
      {
        "species": [{ "element": "U", "occu": 1 }],
        "abc": [0.717567, 0.600721, 0.318289],
        "properties": { "magmom": 0.019 },
        "label": "U",
        "xyz": [1.021456415771, 2.206437739095, 2.6266183733790003]
      },
      {
        "species": [{ "element": "U", "occu": 1 }],
        "abc": [0.282433, 0.399279, 0.681711],
        "properties": { "magmom": 0.018000000000000002 },
        "label": "U",
        "xyz": [4.049240584229, 2.8642592609050004, 2.6266210002567902e-6]
      },
      {
        "species": [{ "element": "U", "occu": 1 }],
        "abc": [0.399279, 0.717567, 0.116845999999999],
        "properties": { "magmom": 0.017 },
        "label": "U",
        "xyz": [2.206432668397995, -1.021451345074005, 2.6266210000000028]
      },
      {
        "species": [{ "element": "U", "occu": 1 }],
        "abc": [0.600721, 0.282433, 0.883154],
        "properties": { "magmom": 0.017 },
        "label": "U",
        "xyz": [2.8642643316020004, 6.092148345074, 0.0]
      },
      {
        "species": [{ "element": "Fe", "occu": 1 }],
        "abc": [0.75, 0.75, 0.0],
        "properties": { "magmom": 0.009000000000000001 },
        "label": "Fe",
        "xyz": [0.0, 0.0, 3.9399315]
      },
      {
        "species": [{ "element": "Fe", "occu": 1 }],
        "abc": [0.25, 0.25, 0.0],
        "properties": { "magmom": 0.009000000000000001 },
        "label": "Fe",
        "xyz": [0.0, 0.0, 1.3133105]
      }
    ]
  },
  "task_ids": null,
  "uncorrected_energy_per_atom": null,
  "energy_per_atom": -10.893848402857143,
  "formation_energy_per_atom": -0.005493935714280001,
  "energy_above_hull": 0.016314791071433,
  "is_stable": false,
  "equilibrium_reaction_energy_per_atom": null,
  "decomposes_to": null,
  "xas": null,
  "grain_boundaries": null,
  "band_gap": 0.0,
  "cbm": null,
  "vbm": null,
  "efermi": 13.79269923,
  "is_gap_direct": null,
  "is_metal": null,
  "es_source_calc_id": null,
  "bandstructure": null,
  "dos": null,
  "dos_energy_up": null,
  "dos_energy_down": null,
  "is_magnetic": null,
  "ordering": null,
  "total_magnetization": 0.3326091,
  "total_magnetization_normalized_vol": null,
  "total_magnetization_normalized_formula_units": null,
  "num_magnetic_sites": null,
  "num_unique_magnetic_sites": null,
  "types_of_magnetic_species": null,
  "bulk_modulus": null,
  "shear_modulus": null,
  "universal_anisotropy": null,
  "homogeneous_poisson": null,
  "e_total": null,
  "e_ionic": null,
  "e_electronic": null,
  "n": null,
  "e_ij_max": null,
  "weighted_surface_energy_EV_PER_ANG2": null,
  "weighted_surface_energy": null,
  "weighted_work_function": null,
  "surface_anisotropy": null,
  "shape_factor": null,
  "has_reconstructed": null,
  "possible_species": null,
  "has_props": null,
  "theoretical": null,
  "database_IDs": null,
  "fields_not_requested": [
    "builder_meta",
    "nsites",
    "elements",
    "nelements",
    "composition",
    "composition_reduced",
    "chemsys",
    "symmetry",
    "property_name",
    "deprecated",
    "deprecation_reasons",
    "last_updated",
    "origins",
    "warnings",
    "task_ids",
    "uncorrected_energy_per_atom",
    "equilibrium_reaction_energy_per_atom",
    "decomposes_to",
    "xas",
    "grain_boundaries",
    "cbm",
    "vbm",
    "is_gap_direct",
    "is_metal",
    "es_source_calc_id",
    "bandstructure",
    "dos",
    "dos_energy_up",
    "dos_energy_down",
    "is_magnetic",
    "ordering",
    "total_magnetization_normalized_vol",
    "total_magnetization_normalized_formula_units",
    "num_magnetic_sites",
    "num_unique_magnetic_sites",
    "types_of_magnetic_species",
    "bulk_modulus",
    "shear_modulus",
    "universal_anisotropy",
    "homogeneous_poisson",
    "e_total",
    "e_ionic",
    "e_electronic",
    "n",
    "e_ij_max",
    "weighted_surface_energy_EV_PER_ANG2",
    "weighted_surface_energy",
    "weighted_work_function",
    "surface_anisotropy",
    "shape_factor",
    "has_reconstructed",
    "possible_species",
    "has_props",
    "theoretical",
    "database_IDs"
  ]
}
