{"builder_meta": null, "nsites": null, "elements": null, "nelements": null, "composition": null, "composition_reduced": null, "formula_pretty": "U6Mn", "formula_anonymous": "AB6", "chemsys": null, "volume": 271.8986294880099, "density": 18.115314511248936, "density_atomic": 19.42133067771499, "symmetry": null, "property_name": null, "material_id": "mp-568195", "deprecated": null, "deprecation_reasons": null, "last_updated": null, "origins": null, "warnings": null, "structure": {"@module": "pymatgen.core.structure", "@class": "Structure", "charge": 0, "lattice": {"matrix": [[-5.06424, 5.06424, 2.650443], [5.06424, -5.06424, 2.650443], [5.06424, 5.06424, -2.650443]], "pbc": [true, true, true], "a": 7.636615850718759, "b": 7.636615850718759, "c": 7.636615850718759, "alpha": 96.91852618745185, "beta": 96.91852618745185, "gamma": 139.3835410454577, "volume": 271.8986294880099}, "properties": {}, "sites": [{"species": [{"element": "U", "occu": 1}], "abc": [0.906876999999999, 0.406877, 0.313753], "properties": {"magmom": -0.002}, "label": "U", "xyz": [-0.943199507279995, 4.121040492719995, 2.6504456504429976]}, {"species": [{"element": "U", "occu": 1}], "abc": [0.093123, 0.593123, 0.686246999999999], "properties": {"magmom": -0.002}, "label": "U", "xyz": [6.007439507279995, 0.9431995072799957, -2.6504429977425303e-06]}, {"species": [{"element": "U", "occu": 1}], "abc": [0.593123, 0.906876999999999, 0.5], "properties": {"magmom": -0.002}, "label": "U", "xyz": [4.121045556959995, 0.9431944430400048, 2.6504429999999974]}, {"species": [{"element": "U", "occu": 1}], "abc": [0.406877, 0.093123, 0.5], "properties": {"magmom": -0.001}, "label": "U", "xyz": [0.9431944430400001, 4.1210455569599995, 0.0]}, {"species": [{"element": "U", "occu": 1}], "abc": [0.097853, 0.218727999999999, 0.316581], "properties": {"magmom": 0.005}, "label": "U", "xyz": [2.2153821734399948, 0.9911021534400051, -2.55351295663786e-15]}, {"species": [{"element": "U", "occu": 1}], "abc": [0.902146999999999, 0.781272, 0.683419], "properties": {"magmom": 0.005}, "label": "U", "xyz": [2.848857826560005, 4.073137846559995, 2.650442999999997]}, {"species": [{"element": "U", "occu": 1}], "abc": [0.402147, 0.718727999999999, 0.120874], "properties": {"magmom": 0.004}, "label": "U", "xyz": [2.215377109199995, -0.9911072176799952, 2.6504456504429976]}, {"species": [{"element": "U", "occu": 1}], "abc": [0.597853, 0.281271999999999, 0.879126], "properties": {"magmom": 0.003}, "label": "U", "xyz": [2.8488628907999947, 6.055347217680005, -2.6504430028495563e-06]}, {"species": [{"element": "U", "occu": 1}], "abc": [0.218727999999999, 0.902146999999999, 0.120874], "properties": {"magmom": 0.004}, "label": "U", "xyz": [4.07313278232, -2.8488628908, 2.650445650442995]}, {"species": [{"element": "U", "occu": 1}], "abc": [0.781272, 0.097853, 0.879126], "properties": {"magmom": 0.004}, "label": "U", "xyz": [0.9911072176799998, 7.913102890799999, -2.650443000185021e-06]}, {"species": [{"element": "U", "occu": 1}], "abc": [0.718727999999999, 0.597853, 0.316581], "properties": {"magmom": 0.005}, "label": "U", "xyz": [0.9911021534400049, 2.215382173439995, 2.6504429999999974]}, {"species": [{"element": "U", "occu": 1}], "abc": [0.281271999999999, 0.402147, 0.683419], "properties": {"magmom": 0.005}, "label": "U", "xyz": [4.073137846560005, 2.848857826559995, -2.6645352591003757e-15]}, {"species": [{"element": "Mn", "occu": 1}], "abc": [0.75, 0.75, 0.0], "properties": {"magmom": -0.011}, "label": "Mn", "xyz": [0.0, 0.0, 3.9756645]}, {"species": [{"element": "Mn", "occu": 1}], "abc": [0.25, 0.25, 0.0], "properties": {"magmom": -0.011}, "label": "Mn", "xyz": [0.0, 0.0, 1.3252215]}]}, "task_ids": null, "uncorrected_energy_per_atom": null, "energy_per_atom": -10.960548962857143, "formation_energy_per_atom": 0.026661801724143, "energy_above_hull": 0.036532812142862005, "is_stable": false, "equilibrium_reaction_energy_per_atom": null, "decomposes_to": null, "xas": null, "grain_boundaries": null, "band_gap": 0.0, "cbm": null, "vbm": null, "efermi": 13.75658981, "is_gap_direct": null, "is_metal": null, "es_source_calc_id": null, "bandstructure": null, "dos": null, "dos_energy_up": null, "dos_energy_down": null, "is_magnetic": null, "ordering": null, "total_magnetization": 0.008854299999999002, "total_magnetization_normalized_vol": null, "total_magnetization_normalized_formula_units": null, "num_magnetic_sites": null, "num_unique_magnetic_sites": null, "types_of_magnetic_species": null, "bulk_modulus": null, "shear_modulus": null, "universal_anisotropy": null, "homogeneous_poisson": null, "e_total": null, "e_ionic": null, "e_electronic": null, "n": null, "e_ij_max": null, "weighted_surface_energy_EV_PER_ANG2": null, "weighted_surface_energy": null, "weighted_work_function": null, "surface_anisotropy": null, "shape_factor": null, "has_reconstructed": null, "possible_species": null, "has_props": null, "theoretical": null, "database_IDs": null, "fields_not_requested": ["builder_meta", "nsites", "elements", "nelements", "composition", "composition_reduced", "chemsys", "symmetry", "property_name", "deprecated", "deprecation_reasons", "last_updated", "origins", "warnings", "task_ids", "uncorrected_energy_per_atom", "equilibrium_reaction_energy_per_atom", "decomposes_to", "xas", "grain_boundaries", "cbm", "vbm", "is_gap_direct", "is_metal", "es_source_calc_id", "bandstructure", "dos", "dos_energy_up", "dos_energy_down", "is_magnetic", "ordering", "total_magnetization_normalized_vol", "total_magnetization_normalized_formula_units", "num_magnetic_sites", "num_unique_magnetic_sites", "types_of_magnetic_species", "bulk_modulus", "shear_modulus", "universal_anisotropy", "homogeneous_poisson", "e_total", "e_ionic", "e_electronic", "n", "e_ij_max", "weighted_surface_energy_EV_PER_ANG2", "weighted_surface_energy", "weighted_work_function", "surface_anisotropy", "shape_factor", "has_reconstructed", "possible_species", "has_props", "theoretical", "database_IDs"]}