{"builder_meta": null, "nsites": null, "elements": null, "nelements": null, "composition": null, "composition_reduced": null, "formula_pretty": "U6Ni", "formula_anonymous": "AB6", "chemsys": null, "volume": 270.85869879789317, "density": 18.230911680670584, "density_atomic": 19.347049914135226, "symmetry": null, "property_name": null, "material_id": "mp-636821", "deprecated": null, "deprecation_reasons": null, "last_updated": null, "origins": null, "warnings": null, "structure": {"@module": "pymatgen.core.structure", "@class": "Structure", "charge": 0, "lattice": {"matrix": [[-5.147562, 5.147562, 2.555522], [5.147562, -5.147562, 2.555522], [5.147562, 5.147562, -2.555522]], "pbc": [true, true, true], "a": 7.715275871942104, "b": 7.715275871942104, "c": 7.715275871942104, "alpha": 96.29874589453289, "beta": 96.29874589453289, "gamma": 141.31324196821848, "volume": 270.85869879789317}, "properties": {}, "sites": [{"species": [{"element": "U", "occu": 1}], "abc": [0.105200999999999, 0.782242, 0.887443], "properties": {"magmom": 0.0}, "label": "U", "xyz": [8.053278388008005, 1.0830573399239949, -2.6645352591003757e-15]}, {"species": [{"element": "U", "occu": 1}], "abc": [0.593766999999999, 0.093766999999999, 0.687533], "properties": {"magmom": -0.001}, "label": "U", "xyz": [0.9653377445459999, 6.112899744546, 2.5555219951289843e-06]}, {"species": [{"element": "U", "occu": 1}], "abc": [0.906233, 0.593766999999999, 0.5], "properties": {"magmom": -0.001}, "label": "U", "xyz": [0.9653428921079947, 4.182219107892005, 2.555521999999997]}, {"species": [{"element": "U", "occu": 1}], "abc": [0.894799, 0.217757999999999, 0.112556999999999], "properties": {"magmom": 0.0}, "label": "U", "xyz": [-2.90571638800801, 4.0645046600759995, 2.555522]}, {"species": [{"element": "U", "occu": 1}], "abc": [0.406232999999999, 0.906233, 0.312467], "properties": {"magmom": -0.001}, "label": "U", "xyz": [4.182224255454005, -0.9653377445460054, 2.555519444477997]}, {"species": [{"element": "U", "occu": 1}], "abc": [0.782242, 0.894799, 0.677041], "properties": {"magmom": 0.0}, "label": "U", "xyz": [4.0645046600759995, 2.905716388008, 2.555522]}, {"species": [{"element": "U", "occu": 1}], "abc": [0.217757999999999, 0.105200999999999, 0.322959], "properties": {"magmom": 0.0}, "label": "U", "xyz": [1.0830573399239998, 2.241845611992, -5.10702591327572e-15]}, {"species": [{"element": "U", "occu": 1}], "abc": [0.394798999999999, 0.282242, 0.677041], "properties": {"magmom": 0.0}, "label": "U", "xyz": [2.905716388008005, 4.064504660075995, -2.6645352591003757e-15]}, {"species": [{"element": "U", "occu": 1}], "abc": [0.282242, 0.605201, 0.887443], "properties": {"magmom": 0.0}, "label": "U", "xyz": [6.230619339924, 2.905716388008, 0.0]}, {"species": [{"element": "U", "occu": 1}], "abc": [0.605201, 0.717758, 0.322959], "properties": {"magmom": 0.0}, "label": "U", "xyz": [2.241845611992, 1.083057339924, 2.555522]}, {"species": [{"element": "U", "occu": 1}], "abc": [0.093766999999999, 0.406232999999999, 0.5], "properties": {"magmom": -0.001}, "label": "U", "xyz": [4.182219107891999, 0.9653428921080001, -5.10702591327572e-15]}, {"species": [{"element": "U", "occu": 1}], "abc": [0.717758, 0.394798999999999, 0.112556999999999], "properties": {"magmom": 0.0}, "label": "U", "xyz": [-1.08305733992401, 2.241845611992, 2.555522]}, {"species": [{"element": "Ni", "occu": 1}], "abc": [0.25, 0.25, 0.0], "properties": {"magmom": -0.0}, "label": "Ni", "xyz": [0.0, 0.0, 1.277761]}, {"species": [{"element": "Ni", "occu": 1}], "abc": [0.75, 0.75, 0.0], "properties": {"magmom": -0.0}, "label": "Ni", "xyz": [0.0, 0.0, 3.8332829999999998]}]}, "task_ids": null, "uncorrected_energy_per_atom": null, "energy_per_atom": -10.52302812642857, "formation_energy_per_atom": -0.018942877857136, "energy_above_hull": 0.041547670178577, "is_stable": false, "equilibrium_reaction_energy_per_atom": null, "decomposes_to": null, "xas": null, "grain_boundaries": null, "band_gap": 0.0, "cbm": null, "vbm": null, "efermi": 14.01070125, "is_gap_direct": null, "is_metal": null, "es_source_calc_id": null, "bandstructure": null, "dos": null, "dos_energy_up": null, "dos_energy_down": null, "is_magnetic": null, "ordering": null, "total_magnetization": 0.0021265, "total_magnetization_normalized_vol": null, "total_magnetization_normalized_formula_units": null, "num_magnetic_sites": null, "num_unique_magnetic_sites": null, "types_of_magnetic_species": null, "bulk_modulus": null, "shear_modulus": null, "universal_anisotropy": null, "homogeneous_poisson": null, "e_total": null, "e_ionic": null, "e_electronic": null, "n": null, "e_ij_max": null, "weighted_surface_energy_EV_PER_ANG2": null, "weighted_surface_energy": null, "weighted_work_function": null, "surface_anisotropy": null, "shape_factor": null, "has_reconstructed": null, "possible_species": null, "has_props": null, "theoretical": null, "database_IDs": null, "fields_not_requested": ["builder_meta", "nsites", "elements", "nelements", "composition", "composition_reduced", "chemsys", "symmetry", "property_name", "deprecated", "deprecation_reasons", "last_updated", "origins", "warnings", "task_ids", "uncorrected_energy_per_atom", "equilibrium_reaction_energy_per_atom", "decomposes_to", "xas", "grain_boundaries", "cbm", "vbm", "is_gap_direct", "is_metal", "es_source_calc_id", "bandstructure", "dos", "dos_energy_up", "dos_energy_down", "is_magnetic", "ordering", "total_magnetization_normalized_vol", "total_magnetization_normalized_formula_units", "num_magnetic_sites", "num_unique_magnetic_sites", "types_of_magnetic_species", "bulk_modulus", "shear_modulus", "universal_anisotropy", "homogeneous_poisson", "e_total", "e_ionic", "e_electronic", "n", "e_ij_max", "weighted_surface_energy_EV_PER_ANG2", "weighted_surface_energy", "weighted_work_function", "surface_anisotropy", "shape_factor", "has_reconstructed", "possible_species", "has_props", "theoretical", "database_IDs"]}