{
  "builder_meta": null,
  "nsites": null,
  "elements": null,
  "nelements": null,
  "composition": null,
  "composition_reduced": null,
  "formula_pretty": "U8Pb3",
  "formula_anonymous": "A3B8",
  "chemsys": null,
  "volume": 543.4591272294207,
  "density": 15.43535219460833,
  "density_atomic": 24.702687601337303,
  "symmetry": null,
  "property_name": null,
  "material_id": "mp-1217632",
  "deprecated": null,
  "deprecation_reasons": null,
  "last_updated": null,
  "origins": null,
  "warnings": null,
  "structure": {
    "@module": "pymatgen.core.structure",
    "@class": "Structure",
    "charge": 0,
    "lattice": {
      "matrix": [
        [0.0, 0.0, 6.162026],
        [9.147494, 0.0, 0.0],
        [0.0, 9.641425, 0.0]
      ],
      "pbc": [true, true, true],
      "a": 6.162026,
      "b": 9.147494,
      "c": 9.641425,
      "alpha": 90.0,
      "beta": 90.0,
      "gamma": 90.0,
      "volume": 543.4591272294207
    },
    "properties": {},
    "sites": [
      {
        "species": [{ "element": "U", "occu": 1 }],
        "abc": [0.75, 0.56047, 0.425345],
        "properties": { "magmom": -0.02 },
        "label": "U",
        "xyz": [5.12689596218, 4.100931916625, 4.6215195]
      },
      {
        "species": [{ "element": "U", "occu": 1 }],
        "abc": [0.75, 0.078142999999999, 0.097393],
        "properties": { "magmom": -0.003 },
        "label": "U",
        "xyz": [0.7148126236419909, 0.939007305025, 4.6215195]
      },
      {
        "species": [{ "element": "U", "occu": 1 }],
        "abc": [0.25, 0.421857, 0.597393],
        "properties": { "magmom": -0.003 },
        "label": "U",
        "xyz": [3.858934376358, 5.759719805024999, 1.5405065]
      },
      {
        "species": [{ "element": "U", "occu": 1 }],
        "abc": [0.25, 0.9395300000000001, 0.925345],
        "properties": { "magmom": -0.02 },
        "label": "U",
        "xyz": [8.59434503782, 8.921644416625, 1.5405065]
      },
      {
        "species": [{ "element": "U", "occu": 1 }],
        "abc": [0.9849739999999991, 0.734247, 0.150448],
        "properties": { "magmom": -0.077 },
        "label": "U",
        "xyz": [6.716520027017999, 1.4505331084, 6.0694353973239945]
      },
      {
        "species": [{ "element": "U", "occu": 1 }],
        "abc": [0.498181999999999, 0.332494, 0.403933999999999],
        "properties": { "magmom": 0.01 },
        "label": "U",
        "xyz": [3.041486870036, 3.8944993659499905, 3.069810436731994]
      },
      {
        "species": [{ "element": "U", "occu": 1 }],
        "abc": [0.501818, 0.167506, 0.903933999999999],
        "properties": { "magmom": 0.01 },
        "label": "U",
        "xyz": [1.532260129964, 8.71521186594999, 3.0922155632679997]
      },
      {
        "species": [{ "element": "U", "occu": 1 }],
        "abc": [0.015026, 0.765753, 0.650447999999999],
        "properties": { "magmom": -0.077 },
        "label": "U",
        "xyz": [7.004720972982001, 6.27124560839999, 0.092590602676]
      },
      {
        "species": [{ "element": "U", "occu": 1 }],
        "abc": [0.9981819999999991, 0.167506, 0.903933999999999],
        "properties": { "magmom": 0.01 },
        "label": "U",
        "xyz": [1.532260129964, 8.71521186594999, 6.1508234367319945]
      },
      {
        "species": [{ "element": "U", "occu": 1 }],
        "abc": [0.484973999999999, 0.765753, 0.650447999999999],
        "properties": { "magmom": -0.077 },
        "label": "U",
        "xyz": [7.004720972982001, 6.27124560839999, 2.988422397323994]
      },
      {
        "species": [{ "element": "U", "occu": 1 }],
        "abc": [0.515026, 0.734247, 0.150448],
        "properties": { "magmom": -0.077 },
        "label": "U",
        "xyz": [6.716520027017999, 1.4505331084, 3.1736036026759997]
      },
      {
        "species": [{ "element": "U", "occu": 1 }],
        "abc": [0.001818, 0.332494, 0.403933999999999],
        "properties": { "magmom": 0.01 },
        "label": "U",
        "xyz": [3.041486870036, 3.8944993659499905, 0.011202563268]
      },
      {
        "species": [{ "element": "U", "occu": 1 }],
        "abc": [0.25, 0.654176, 0.350763],
        "properties": { "magmom": 0.27 },
        "label": "U",
        "xyz": [5.984071034944, 3.381855157275, 1.5405065]
      },
      {
        "species": [{ "element": "U", "occu": 1 }],
        "abc": [0.25, 0.301913999999999, 0.082138],
        "properties": { "magmom": 0.013000000000000001 },
        "label": "U",
        "xyz": [2.7617565035159912, 0.79192736665, 1.5405065]
      },
      {
        "species": [{ "element": "U", "occu": 1 }],
        "abc": [0.75, 0.198085999999999, 0.582137999999999],
        "properties": { "magmom": 0.013000000000000001 },
        "label": "U",
        "xyz": [1.811990496483991, 5.612639866649991, 4.6215195]
      },
      {
        "species": [{ "element": "U", "occu": 1 }],
        "abc": [0.75, 0.845823999999999, 0.850762999999999],
        "properties": { "magmom": 0.27 },
        "label": "U",
        "xyz": [7.737169965055991, 8.20256765727499, 4.6215195]
      },
      {
        "species": [{ "element": "Pb", "occu": 1 }],
        "abc": [0.25, 0.017537999999999002, 0.265252999999999],
        "properties": { "magmom": -0.0 },
        "label": "Pb",
        "xyz": [0.16042874977199087, 2.5574169055249905, 1.5405065]
      },
      {
        "species": [{ "element": "Pb", "occu": 1 }],
        "abc": [0.75, 0.482462, 0.765253],
        "properties": { "magmom": -0.0 },
        "label": "Pb",
        "xyz": [4.413318250228, 7.378129405525, 4.6215195]
      },
      {
        "species": [{ "element": "Pb", "occu": 1 }],
        "abc": [0.75, 0.422805999999999, 0.109670999999999],
        "properties": { "magmom": -0.0 },
        "label": "Pb",
        "xyz": [3.867615348163991, 1.0573847211749905, 4.6215195]
      },
      {
        "species": [{ "element": "Pb", "occu": 1 }],
        "abc": [0.75, 0.919522, 0.393671999999999],
        "properties": { "magmom": -0.0 },
        "label": "Pb",
        "xyz": [8.411321977867999, 3.7955590625999904, 4.6215195]
      },
      {
        "species": [{ "element": "Pb", "occu": 1 }],
        "abc": [0.25, 0.580477999999999, 0.893671999999999],
        "properties": { "magmom": -0.0 },
        "label": "Pb",
        "xyz": [5.309919022131991, 8.61627156259999, 1.5405065]
      },
      {
        "species": [{ "element": "Pb", "occu": 1 }],
        "abc": [0.25, 0.077194, 0.609671],
        "properties": { "magmom": -0.0 },
        "label": "Pb",
        "xyz": [0.706131651836, 5.8780972211749996, 1.5405065]
      }
    ]
  },
  "task_ids": null,
  "uncorrected_energy_per_atom": null,
  "energy_per_atom": -73.14927085954545,
  "formation_energy_per_atom": 0.340883261363635,
  "energy_above_hull": 0.34088326136364305,
  "is_stable": false,
  "equilibrium_reaction_energy_per_atom": null,
  "decomposes_to": null,
  "xas": null,
  "grain_boundaries": null,
  "band_gap": 0.0,
  "cbm": null,
  "vbm": null,
  "efermi": 11.19752304,
  "is_gap_direct": null,
  "is_metal": null,
  "es_source_calc_id": null,
  "bandstructure": null,
  "dos": null,
  "dos_energy_up": null,
  "dos_energy_down": null,
  "is_magnetic": null,
  "ordering": null,
  "total_magnetization": 0.25008589999999903,
  "total_magnetization_normalized_vol": null,
  "total_magnetization_normalized_formula_units": null,
  "num_magnetic_sites": null,
  "num_unique_magnetic_sites": null,
  "types_of_magnetic_species": null,
  "bulk_modulus": null,
  "shear_modulus": null,
  "universal_anisotropy": null,
  "homogeneous_poisson": null,
  "e_total": null,
  "e_ionic": null,
  "e_electronic": null,
  "n": null,
  "e_ij_max": null,
  "weighted_surface_energy_EV_PER_ANG2": null,
  "weighted_surface_energy": null,
  "weighted_work_function": null,
  "surface_anisotropy": null,
  "shape_factor": null,
  "has_reconstructed": null,
  "possible_species": null,
  "has_props": null,
  "theoretical": null,
  "database_IDs": null,
  "fields_not_requested": [
    "builder_meta",
    "nsites",
    "elements",
    "nelements",
    "composition",
    "composition_reduced",
    "chemsys",
    "symmetry",
    "property_name",
    "deprecated",
    "deprecation_reasons",
    "last_updated",
    "origins",
    "warnings",
    "task_ids",
    "uncorrected_energy_per_atom",
    "equilibrium_reaction_energy_per_atom",
    "decomposes_to",
    "xas",
    "grain_boundaries",
    "cbm",
    "vbm",
    "is_gap_direct",
    "is_metal",
    "es_source_calc_id",
    "bandstructure",
    "dos",
    "dos_energy_up",
    "dos_energy_down",
    "is_magnetic",
    "ordering",
    "total_magnetization_normalized_vol",
    "total_magnetization_normalized_formula_units",
    "num_magnetic_sites",
    "num_unique_magnetic_sites",
    "types_of_magnetic_species",
    "bulk_modulus",
    "shear_modulus",
    "universal_anisotropy",
    "homogeneous_poisson",
    "e_total",
    "e_ionic",
    "e_electronic",
    "n",
    "e_ij_max",
    "weighted_surface_energy_EV_PER_ANG2",
    "weighted_surface_energy",
    "weighted_work_function",
    "surface_anisotropy",
    "shape_factor",
    "has_reconstructed",
    "possible_species",
    "has_props",
    "theoretical",
    "database_IDs"
  ]
}
