{
  "builder_meta": null,
  "nsites": null,
  "elements": null,
  "nelements": null,
  "composition": null,
  "composition_reduced": null,
  "formula_pretty": "UAl2",
  "formula_anonymous": "AB2",
  "chemsys": null,
  "volume": 457.4379548283929,
  "density": 8.479647948087964,
  "density_atomic": 19.05991478451637,
  "symmetry": null,
  "property_name": null,
  "material_id": "mp-569744",
  "deprecated": null,
  "deprecation_reasons": null,
  "last_updated": null,
  "origins": null,
  "warnings": null,
  "structure": {
    "@module": "pymatgen.core.structure",
    "@class": "Structure",
    "charge": 0,
    "lattice": {
      "matrix": [
        [5.58224867, -1e-8, -0.0],
        [-2.79112536, 4.83437008, -0.0],
        [0.0, -0.0, 16.95052385]
      ],
      "pbc": [true, true, true],
      "a": 5.58224867,
      "b": 5.582249980575425,
      "c": 16.95052385,
      "alpha": 90.0,
      "beta": 90.0,
      "gamma": 120.00000448437936,
      "volume": 457.4379548283929
    },
    "properties": {},
    "sites": [
      {
        "species": [{ "element": "U", "occu": 1 }],
        "abc": [0.333333, 0.666667, 0.82443018],
        "properties": { "magmom": -0.757 },
        "label": "U",
        "xyz": [-3.4744580099665967e-6, 3.22291499479003, 13.974523428749793]
      },
      {
        "species": [{ "element": "U", "occu": 1 }],
        "abc": [0.0, 0.0, 0.08321767000000001],
        "properties": { "magmom": -2.368 },
        "label": "U",
        "xyz": [0.0, 0.0, 1.4105831000764295]
      },
      {
        "species": [{ "element": "U", "occu": 1 }],
        "abc": [0.0, 0.0, 0.91678233],
        "properties": { "magmom": -2.368 },
        "label": "U",
        "xyz": [0.0, 0.0, 15.53994074992357]
      },
      {
        "species": [{ "element": "U", "occu": 1 }],
        "abc": [0.666667, 0.333333, 0.17556982000000002],
        "properties": { "magmom": -0.757 },
        "label": "U",
        "xyz": [2.79112678445801, 1.61145507520997, 2.976000421250207]
      },
      {
        "species": [{ "element": "U", "occu": 1 }],
        "abc": [0.0, 0.0, 0.58321767],
        "properties": { "magmom": -2.368 },
        "label": "U",
        "xyz": [0.0, 0.0, 9.88584502507643]
      },
      {
        "species": [{ "element": "U", "occu": 1 }],
        "abc": [0.666667, 0.333333, 0.32443018],
        "properties": { "magmom": -0.757 },
        "label": "U",
        "xyz": [2.79112678445801, 1.61145507520997, 5.499261503749793]
      },
      {
        "species": [{ "element": "U", "occu": 1 }],
        "abc": [0.0, 0.0, 0.41678233000000003],
        "properties": { "magmom": -2.368 },
        "label": "U",
        "xyz": [0.0, 0.0, 7.064678824923571]
      },
      {
        "species": [{ "element": "U", "occu": 1 }],
        "abc": [0.333333, 0.666667, 0.67556982],
        "properties": { "magmom": -0.757 },
        "label": "U",
        "xyz": [-3.4744580099665967e-6, 3.22291499479003, 11.451262346250207]
      },
      {
        "species": [{ "element": "Al", "occu": 1 }],
        "abc": [0.841808799999999, 0.1581912, 0.75],
        "properties": { "magmom": 0.013000000000000001 },
        "label": "Al",
        "xyz": [4.257654584145459, 0.7647547957812081, 12.7128928875]
      },
      {
        "species": [{ "element": "Al", "occu": 1 }],
        "abc": [0.5, 0.0, 0.5],
        "properties": { "magmom": 0.015 },
        "label": "Al",
        "xyz": [2.791124335, -5e-9, 8.475261925]
      },
      {
        "species": [{ "element": "Al", "occu": 1 }],
        "abc": [0.3163834, 0.1581912, 0.75],
        "properties": { "magmom": 0.013000000000000001 },
        "label": "Al",
        "xyz": [1.324599343811246, 0.7647548010354621, 12.7128928875]
      },
      {
        "species": [{ "element": "Al", "occu": 1 }],
        "abc": [0.5, 0.5, 0.5],
        "properties": { "magmom": 0.015 },
        "label": "Al",
        "xyz": [1.395561655, 2.417185035, 8.475261925]
      },
      {
        "species": [{ "element": "Al", "occu": 1 }],
        "abc": [0.1581912, 0.841808799999999, 0.25],
        "properties": { "magmom": 0.013000000000000001 },
        "label": "Al",
        "xyz": [-1.4665312741454612, 4.069615274218787, 4.2376309625]
      },
      {
        "species": [{ "element": "Al", "occu": 1 }],
        "abc": [0.841808799999999, 0.6836166, 0.75],
        "properties": { "magmom": 0.013000000000000001 },
        "label": "Al",
        "xyz": [2.791126425417315, 3.3048556288132405, 12.7128928875]
      },
      {
        "species": [{ "element": "Al", "occu": 1 }],
        "abc": [0.666667, 0.333333, 0.62785201],
        "properties": { "magmom": 0.028 },
        "label": "Al",
        "xyz": [2.79112678445801, 1.61145507520997, 10.64242046977544]
      },
      {
        "species": [{ "element": "Al", "occu": 1 }],
        "abc": [0.5, 0.5, -0.0],
        "properties": { "magmom": 0.015 },
        "label": "Al",
        "xyz": [1.395561655, 2.417185035, 0.0]
      },
      {
        "species": [{ "element": "Al", "occu": 1 }],
        "abc": [0.0, 0.5, 0.5],
        "properties": { "magmom": 0.015 },
        "label": "Al",
        "xyz": [-1.39556268, 2.41718504, 8.475261925]
      },
      {
        "species": [{ "element": "Al", "occu": 1 }],
        "abc": [0.1581912, 0.3163834, 0.25],
        "properties": { "magmom": 0.013000000000000001 },
        "label": "Al",
        "xyz": [-3.115417319898839e-6, 1.52951444118676, 4.2376309625]
      },
      {
        "species": [{ "element": "Al", "occu": 1 }],
        "abc": [0.333333, 0.666667, 0.37214699],
        "properties": { "magmom": 0.028 },
        "label": "Al",
        "xyz": [-3.4744580099665967e-6, 3.22291499479003, 6.308086429700712]
      },
      {
        "species": [{ "element": "Al", "occu": 1 }],
        "abc": [0.6836166, 0.841808799999999, 0.25],
        "properties": { "magmom": 0.013000000000000001 },
        "label": "Al",
        "xyz": [1.466523966188757, 4.069615268964533, 4.2376309625]
      },
      {
        "species": [{ "element": "Al", "occu": 1 }],
        "abc": [0.666667, 0.333333, 0.87214799],
        "properties": { "magmom": 0.028 },
        "label": "Al",
        "xyz": [2.79112678445801, 1.61145507520997, 14.78336530522456]
      },
      {
        "species": [{ "element": "Al", "occu": 1 }],
        "abc": [0.5, 0.0, -0.0],
        "properties": { "magmom": 0.015 },
        "label": "Al",
        "xyz": [2.791124335, -5e-9, 0.0]
      },
      {
        "species": [{ "element": "Al", "occu": 1 }],
        "abc": [0.333333, 0.666667, 0.12785301],
        "properties": { "magmom": 0.028 },
        "label": "Al",
        "xyz": [-3.4744580099665967e-6, 3.22291499479003, 2.167175495299288]
      },
      {
        "species": [{ "element": "Al", "occu": 1 }],
        "abc": [0.0, 0.5, -0.0],
        "properties": { "magmom": 0.015 },
        "label": "Al",
        "xyz": [-1.39556268, 2.41718504, 0.0]
      }
    ]
  },
  "task_ids": null,
  "uncorrected_energy_per_atom": null,
  "energy_per_atom": -31.4151510625,
  "formation_energy_per_atom": -0.279739967500001,
  "energy_above_hull": 0.0,
  "is_stable": true,
  "equilibrium_reaction_energy_per_atom": null,
  "decomposes_to": null,
  "xas": null,
  "grain_boundaries": null,
  "band_gap": 0.0,
  "cbm": null,
  "vbm": null,
  "efermi": 9.64215339,
  "is_gap_direct": null,
  "is_metal": null,
  "es_source_calc_id": null,
  "bandstructure": null,
  "dos": null,
  "dos_energy_up": null,
  "dos_energy_down": null,
  "is_magnetic": null,
  "ordering": null,
  "total_magnetization": 14.1249309,
  "total_magnetization_normalized_vol": null,
  "total_magnetization_normalized_formula_units": null,
  "num_magnetic_sites": null,
  "num_unique_magnetic_sites": null,
  "types_of_magnetic_species": null,
  "bulk_modulus": null,
  "shear_modulus": null,
  "universal_anisotropy": null,
  "homogeneous_poisson": null,
  "e_total": null,
  "e_ionic": null,
  "e_electronic": null,
  "n": null,
  "e_ij_max": null,
  "weighted_surface_energy_EV_PER_ANG2": null,
  "weighted_surface_energy": null,
  "weighted_work_function": null,
  "surface_anisotropy": null,
  "shape_factor": null,
  "has_reconstructed": null,
  "possible_species": null,
  "has_props": null,
  "theoretical": null,
  "database_IDs": null,
  "fields_not_requested": [
    "builder_meta",
    "nsites",
    "elements",
    "nelements",
    "composition",
    "composition_reduced",
    "chemsys",
    "symmetry",
    "property_name",
    "deprecated",
    "deprecation_reasons",
    "last_updated",
    "origins",
    "warnings",
    "task_ids",
    "uncorrected_energy_per_atom",
    "equilibrium_reaction_energy_per_atom",
    "decomposes_to",
    "xas",
    "grain_boundaries",
    "cbm",
    "vbm",
    "is_gap_direct",
    "is_metal",
    "es_source_calc_id",
    "bandstructure",
    "dos",
    "dos_energy_up",
    "dos_energy_down",
    "is_magnetic",
    "ordering",
    "total_magnetization_normalized_vol",
    "total_magnetization_normalized_formula_units",
    "num_magnetic_sites",
    "num_unique_magnetic_sites",
    "types_of_magnetic_species",
    "bulk_modulus",
    "shear_modulus",
    "universal_anisotropy",
    "homogeneous_poisson",
    "e_total",
    "e_ionic",
    "e_electronic",
    "n",
    "e_ij_max",
    "weighted_surface_energy_EV_PER_ANG2",
    "weighted_surface_energy",
    "weighted_work_function",
    "surface_anisotropy",
    "shape_factor",
    "has_reconstructed",
    "possible_species",
    "has_props",
    "theoretical",
    "database_IDs"
  ]
}
