{"builder_meta": null, "nsites": null, "elements": null, "nelements": null, "composition": null, "composition_reduced": null, "formula_pretty": "UAl4", "formula_anonymous": "AB4", "chemsys": null, "volume": 189.82950196257238, "density": 6.052503892019736, "density_atomic": 18.98295019625724, "symmetry": null, "property_name": null, "material_id": "mp-574122", "deprecated": null, "deprecation_reasons": null, "last_updated": null, "origins": null, "warnings": null, "structure": {"@module": "pymatgen.core.structure", "@class": "Structure", "charge": 0, "lattice": {"matrix": [[4.16751602, 1e-08, -1.21571752], [-0.73664791, 5.70998637, -2.52525116], [0.05327448, 0.05836816, 7.93366524]], "pbc": [true, true, true], "a": 4.34121628871352, "b": 6.286770865076481, "c": 7.934058806985571, "alpha": 113.31351449657588, "beta": 105.87746176309608, "gamma": 89.9999996458666, "volume": 189.82950196257235}, "properties": {}, "sites": [{"species": [{"element": "U", "occu": 1}], "abc": [0.11312512, 0.36315372, 0.22625024], "properties": {"magmom": 2.443}, "label": "U", "xyz": [0.21598768490357234, 2.086808602754406, 0.74041112160524]}, {"species": [{"element": "U", "occu": 1}], "abc": [0.88687488, 0.63684628, 0.7737497600000001], "properties": {"magmom": 2.443}, "label": "U", "xyz": [3.268154905096428, 3.6815459372455943, 3.4522854383947603]}, {"species": [{"element": "Al", "occu": 1}], "abc": [0.30199051, 0.26917274, 0.60398103], "properties": {"magmom": 0.002}, "label": "Al", "xyz": [1.0924415272661112, 1.5722259409914638, 3.744919375524283]}, {"species": [{"element": "Al", "occu": 1}], "abc": [0.69802788, 0.16495569000000002, 0.39605575], "properties": {"magmom": 0.003}, "label": "Al", "xyz": [2.8086277721577897, 0.9650117939191442, 1.8770144661915715]}, {"species": [{"element": "Al", "occu": 1}], "abc": [0.30197212, 0.83504431, 0.60394425], "properties": {"magmom": 0.003}, "label": "Al", "xyz": [0.6755148178422103, 4.803342746080856, 2.3156820938084275]}, {"species": [{"element": "Al", "occu": 1}], "abc": [0.5, 0.5, 0.0], "properties": {"magmom": 0.012}, "label": "Al", "xyz": [1.715434055, 2.85499319, -1.87048434]}, {"species": [{"element": "Al", "occu": 1}], "abc": [0.69800949, 0.73082726, 0.39601897], "properties": {"magmom": 0.002}, "label": "Al", "xyz": [2.3917010627338886, 4.196128599008536, 0.4477771844757168]}, {"species": [{"element": "Al", "occu": 1}], "abc": [0.113251499999999, 0.86324911, 0.22650201], "properties": {"magmom": 0.002}, "label": "Al", "xyz": [-0.15186643535012948, 4.942361158707148, -0.5206115255856139]}, {"species": [{"element": "Al", "occu": 1}], "abc": [0.886748499999999, 0.13675089, 0.77349799], "properties": {"magmom": 0.002}, "label": "Al", "xyz": [3.636009025350121, 0.8259933812928527, 4.7133080855856155]}, {"species": [{"element": "Al", "occu": 1}], "abc": [0.5, 0.0, 0.0], "properties": {"magmom": 0.013000000000000001}, "label": "Al", "xyz": [2.08375801, 5e-09, -0.60785876]}]}, "task_ids": null, "uncorrected_energy_per_atom": null, "energy_per_atom": -21.584467134, "formation_energy_per_atom": -0.21038114499999902, "energy_above_hull": 0.0015938559999950001, "is_stable": false, "equilibrium_reaction_energy_per_atom": null, "decomposes_to": null, "xas": null, "grain_boundaries": null, "band_gap": 0.0, "cbm": null, "vbm": null, "efermi": 8.37540077, "is_gap_direct": null, "is_metal": null, "es_source_calc_id": null, "bandstructure": null, "dos": null, "dos_energy_up": null, "dos_energy_down": null, "is_magnetic": null, "ordering": null, "total_magnetization": 5.6812994, "total_magnetization_normalized_vol": null, "total_magnetization_normalized_formula_units": null, "num_magnetic_sites": null, "num_unique_magnetic_sites": null, "types_of_magnetic_species": null, "bulk_modulus": null, "shear_modulus": null, "universal_anisotropy": null, "homogeneous_poisson": null, "e_total": null, "e_ionic": null, "e_electronic": null, "n": null, "e_ij_max": null, "weighted_surface_energy_EV_PER_ANG2": null, "weighted_surface_energy": null, "weighted_work_function": null, "surface_anisotropy": null, "shape_factor": null, "has_reconstructed": null, "possible_species": null, "has_props": null, "theoretical": null, "database_IDs": null, "fields_not_requested": ["builder_meta", "nsites", "elements", "nelements", "composition", "composition_reduced", "chemsys", "symmetry", "property_name", "deprecated", "deprecation_reasons", "last_updated", "origins", "warnings", "task_ids", "uncorrected_energy_per_atom", "equilibrium_reaction_energy_per_atom", "decomposes_to", "xas", "grain_boundaries", "cbm", "vbm", "is_gap_direct", "is_metal", "es_source_calc_id", "bandstructure", "dos", "dos_energy_up", "dos_energy_down", "is_magnetic", "ordering", "total_magnetization_normalized_vol", "total_magnetization_normalized_formula_units", "num_magnetic_sites", "num_unique_magnetic_sites", "types_of_magnetic_species", "bulk_modulus", "shear_modulus", "universal_anisotropy", "homogeneous_poisson", "e_total", "e_ionic", "e_electronic", "n", "e_ij_max", "weighted_surface_energy_EV_PER_ANG2", "weighted_surface_energy", "weighted_work_function", "surface_anisotropy", "shape_factor", "has_reconstructed", "possible_species", "has_props", "theoretical", "database_IDs"]}