{
  "builder_meta": null,
  "nsites": null,
  "elements": null,
  "nelements": null,
  "composition": null,
  "composition_reduced": null,
  "formula_pretty": "UB4",
  "formula_anonymous": "AB4",
  "chemsys": null,
  "volume": 193.7057414376141,
  "density": 9.644828324960953,
  "density_atomic": 9.685287071880705,
  "symmetry": null,
  "property_name": null,
  "material_id": "mp-619",
  "deprecated": null,
  "deprecation_reasons": null,
  "last_updated": null,
  "origins": null,
  "warnings": null,
  "structure": {
    "@module": "pymatgen.core.structure",
    "@class": "Structure",
    "charge": 0,
    "lattice": {
      "matrix": [
        [3.9422788300000002, 0.0, 0.0],
        [0.0, 7.00967008, 0.0],
        [0.0, 0.0, 7.00967008]
      ],
      "pbc": [true, true, true],
      "a": 3.9422788300000002,
      "b": 7.00967008,
      "c": 7.00967008,
      "alpha": 90.0,
      "beta": 90.0,
      "gamma": 90.0,
      "volume": 193.70574143761414
    },
    "properties": {},
    "sites": [
      {
        "species": [{ "element": "U", "occu": 1 }],
        "abc": [-0.0, 0.30984692, 0.80984692],
        "properties": { "magmom": 0.0 },
        "label": "U",
        "xyz": [0.0, 2.171924684504154, 5.676759724504154]
      },
      {
        "species": [{ "element": "U", "occu": 1 }],
        "abc": [0.0, 0.19015308, 0.30984692],
        "properties": { "magmom": 0.0 },
        "label": "U",
        "xyz": [0.0, 1.3329103554958464, 2.171924684504154]
      },
      {
        "species": [{ "element": "U", "occu": 1 }],
        "abc": [-0.0, 0.80984692, 0.69015308],
        "properties": { "magmom": 0.0 },
        "label": "U",
        "xyz": [0.0, 5.676759724504154, 4.837745395495847]
      },
      {
        "species": [{ "element": "U", "occu": 1 }],
        "abc": [0.0, 0.69015308, 0.19015308],
        "properties": { "magmom": 0.0 },
        "label": "U",
        "xyz": [0.0, 4.837745395495847, 1.3329103554958464]
      },
      {
        "species": [{ "element": "B", "occu": 1 }],
        "abc": [0.19998599, -0.0, 0.0],
        "properties": { "magmom": -0.0 },
        "label": "B",
        "xyz": [0.7884005346735917, 0.0, 0.0]
      },
      {
        "species": [{ "element": "B", "occu": 1 }],
        "abc": [0.80001401, 0.5, 0.5],
        "properties": { "magmom": -0.0 },
        "label": "B",
        "xyz": [3.153878295326409, 3.50483504, 3.50483504]
      },
      {
        "species": [{ "element": "B", "occu": 1 }],
        "abc": [0.80001401, -0.0, 0.0],
        "properties": { "magmom": -0.0 },
        "label": "B",
        "xyz": [3.153878295326409, 0.0, 0.0]
      },
      {
        "species": [{ "element": "B", "occu": 1 }],
        "abc": [0.19998599, 0.5, 0.5],
        "properties": { "magmom": -0.0 },
        "label": "B",
        "xyz": [0.7884005346735917, 3.50483504, 3.50483504]
      },
      {
        "species": [{ "element": "B", "occu": 1 }],
        "abc": [0.5, 0.08699055, 0.58699055],
        "properties": { "magmom": -0.0 },
        "label": "B",
        "xyz": [1.9711394150000001, 0.609775055577744, 4.114610095577744]
      },
      {
        "species": [{ "element": "B", "occu": 1 }],
        "abc": [0.5, 0.41300945, 0.08699055],
        "properties": { "magmom": -0.0 },
        "label": "B",
        "xyz": [1.9711394150000001, 2.895059984422256, 0.609775055577744]
      },
      {
        "species": [{ "element": "B", "occu": 1 }],
        "abc": [0.5, 0.58699055, 0.91300945],
        "properties": { "magmom": -0.0 },
        "label": "B",
        "xyz": [1.9711394150000001, 4.114610095577744, 6.399895024422256]
      },
      {
        "species": [{ "element": "B", "occu": 1 }],
        "abc": [0.5, 0.91300945, 0.41300945],
        "properties": { "magmom": -0.0 },
        "label": "B",
        "xyz": [1.9711394150000001, 6.399895024422256, 2.895059984422256]
      },
      {
        "species": [{ "element": "B", "occu": 1 }],
        "abc": [0.5, 0.17892651, 0.038270240000000004],
        "properties": { "magmom": -0.0 },
        "label": "B",
        "xyz": [1.9711394150000001, 1.2542158036658209, 0.2682617562824192]
      },
      {
        "species": [{ "element": "B", "occu": 1 }],
        "abc": [0.5, 0.96172976, 0.17892651],
        "properties": { "magmom": -0.0 },
        "label": "B",
        "xyz": [1.9711394150000001, 6.741408323717581, 1.2542158036658209]
      },
      {
        "species": [{ "element": "B", "occu": 1 }],
        "abc": [0.5, 0.038270240000000004, 0.8210734900000001],
        "properties": { "magmom": -0.0 },
        "label": "B",
        "xyz": [1.9711394150000001, 0.2682617562824192, 5.75545427633418]
      },
      {
        "species": [{ "element": "B", "occu": 1 }],
        "abc": [0.5, 0.8210734900000001, 0.96172976],
        "properties": { "magmom": -0.0 },
        "label": "B",
        "xyz": [1.9711394150000001, 5.75545427633418, 6.741408323717581]
      },
      {
        "species": [{ "element": "B", "occu": 1 }],
        "abc": [0.5, 0.67892651, 0.46172976],
        "properties": { "magmom": -0.0 },
        "label": "B",
        "xyz": [1.9711394150000001, 4.759050843665821, 3.236573283717581]
      },
      {
        "species": [{ "element": "B", "occu": 1 }],
        "abc": [0.5, 0.32107349, 0.53827024],
        "properties": { "magmom": -0.0 },
        "label": "B",
        "xyz": [1.9711394150000001, 2.2506192363341793, 3.7730967962824193]
      },
      {
        "species": [{ "element": "B", "occu": 1 }],
        "abc": [0.5, 0.53827024, 0.67892651],
        "properties": { "magmom": -0.0 },
        "label": "B",
        "xyz": [1.9711394150000001, 3.7730967962824193, 4.759050843665821]
      },
      {
        "species": [{ "element": "B", "occu": 1 }],
        "abc": [0.5, 0.46172976, 0.32107349],
        "properties": { "magmom": -0.0 },
        "label": "B",
        "xyz": [1.9711394150000001, 3.236573283717581, 2.2506192363341793]
      }
    ]
  },
  "task_ids": null,
  "uncorrected_energy_per_atom": null,
  "energy_per_atom": -22.3775180405,
  "formation_energy_per_atom": -0.5120273574999991,
  "energy_above_hull": 0.0,
  "is_stable": true,
  "equilibrium_reaction_energy_per_atom": null,
  "decomposes_to": null,
  "xas": null,
  "grain_boundaries": null,
  "band_gap": 0.0,
  "cbm": null,
  "vbm": null,
  "efermi": 10.40772114,
  "is_gap_direct": null,
  "is_metal": null,
  "es_source_calc_id": null,
  "bandstructure": null,
  "dos": null,
  "dos_energy_up": null,
  "dos_energy_down": null,
  "is_magnetic": null,
  "ordering": null,
  "total_magnetization": 0.0012504,
  "total_magnetization_normalized_vol": null,
  "total_magnetization_normalized_formula_units": null,
  "num_magnetic_sites": null,
  "num_unique_magnetic_sites": null,
  "types_of_magnetic_species": null,
  "bulk_modulus": null,
  "shear_modulus": null,
  "universal_anisotropy": null,
  "homogeneous_poisson": null,
  "e_total": null,
  "e_ionic": null,
  "e_electronic": null,
  "n": null,
  "e_ij_max": null,
  "weighted_surface_energy_EV_PER_ANG2": null,
  "weighted_surface_energy": null,
  "weighted_work_function": null,
  "surface_anisotropy": null,
  "shape_factor": null,
  "has_reconstructed": null,
  "possible_species": null,
  "has_props": null,
  "theoretical": null,
  "database_IDs": null,
  "fields_not_requested": [
    "builder_meta",
    "nsites",
    "elements",
    "nelements",
    "composition",
    "composition_reduced",
    "chemsys",
    "symmetry",
    "property_name",
    "deprecated",
    "deprecation_reasons",
    "last_updated",
    "origins",
    "warnings",
    "task_ids",
    "uncorrected_energy_per_atom",
    "equilibrium_reaction_energy_per_atom",
    "decomposes_to",
    "xas",
    "grain_boundaries",
    "cbm",
    "vbm",
    "is_gap_direct",
    "is_metal",
    "es_source_calc_id",
    "bandstructure",
    "dos",
    "dos_energy_up",
    "dos_energy_down",
    "is_magnetic",
    "ordering",
    "total_magnetization_normalized_vol",
    "total_magnetization_normalized_formula_units",
    "num_magnetic_sites",
    "num_unique_magnetic_sites",
    "types_of_magnetic_species",
    "bulk_modulus",
    "shear_modulus",
    "universal_anisotropy",
    "homogeneous_poisson",
    "e_total",
    "e_ionic",
    "e_electronic",
    "n",
    "e_ij_max",
    "weighted_surface_energy_EV_PER_ANG2",
    "weighted_surface_energy",
    "weighted_work_function",
    "surface_anisotropy",
    "shape_factor",
    "has_reconstructed",
    "possible_species",
    "has_props",
    "theoretical",
    "database_IDs"
  ]
}
