{
  "builder_meta": null,
  "nsites": null,
  "elements": null,
  "nelements": null,
  "composition": null,
  "composition_reduced": null,
  "formula_pretty": "UBr3",
  "formula_anonymous": "AB3",
  "chemsys": null,
  "volume": 248.1250285365776,
  "density": 6.394416955410755,
  "density_atomic": 31.0156285670722,
  "symmetry": null,
  "property_name": null,
  "material_id": "mp-23255",
  "deprecated": null,
  "deprecation_reasons": null,
  "last_updated": null,
  "origins": null,
  "warnings": null,
  "structure": {
    "@module": "pymatgen.core.structure",
    "@class": "Structure",
    "charge": 0,
    "lattice": {
      "matrix": [
        [8.01665622, -0.0242169, 0.0],
        [-4.07190834, 7.00648256, 0.0],
        [0.0, 0.0, 4.4252762]
      ],
      "pbc": [true, true, true],
      "a": 8.016692797401575,
      "b": 8.103779080956349,
      "c": 4.4252762,
      "alpha": 90.0,
      "beta": 90.0,
      "gamma": 120.3366489179921,
      "volume": 248.1250285365776
    },
    "properties": {},
    "sites": [
      {
        "species": [{ "element": "U", "occu": 1 }],
        "abc": [0.66394413, 0.32979533, 0.75],
        "properties": { "magmom": 2.908 },
        "label": "U",
        "xyz": [3.9797154847769365, 2.294626559412648, 3.31895715]
      },
      {
        "species": [{ "element": "U", "occu": 1 }],
        "abc": [0.33589443, 0.67018184, 0.25],
        "properties": { "magmom": 2.908 },
        "label": "U",
        "xyz": [-0.03616885208969123, 4.687483052166844, 1.10631905]
      },
      {
        "species": [{ "element": "Br", "occu": 1 }],
        "abc": [0.6124101, 0.69806794, 0.75],
        "properties": { "magmom": -0.021 },
        "label": "Br",
        "xyz": [2.0670125705832016, 4.876170173154437, 3.31895715]
      },
      {
        "species": [{ "element": "Br", "occu": 1 }],
        "abc": [0.91184827, 0.60817464, 0.25],
        "properties": { "magmom": -0.019 },
        "label": "Br",
        "xyz": [4.833542716599242, 4.239082870224515, 1.10631905]
      },
      {
        "species": [{ "element": "Br", "occu": 1 }],
        "abc": [0.38741041, 0.30181186, 0.25],
        "properties": { "magmom": -0.021 },
        "label": "Br",
        "xyz": [1.8767858431743376, 2.1052576543332324, 1.10631905]
      },
      {
        "species": [{ "element": "Br", "occu": 1 }],
        "abc": [0.08852089, 0.39179473000000004, 0.75],
        "properties": { "magmom": -0.019 },
        "label": "Br",
        "xyz": [-0.8857106852366126, 2.742959241303868, 3.31895715]
      },
      {
        "species": [{ "element": "Br", "occu": 1 }],
        "abc": [0.29947278, 0.9126633900000001, 0.75],
        "properties": { "magmom": -0.023 },
        "label": "Br",
        "xyz": [-1.3155113448459819, 6.387307822819497, 3.31895715]
      },
      {
        "species": [{ "element": "Br", "occu": 1 }],
        "abc": [0.7004959900000001, 0.08751127, 0.25],
        "properties": { "magmom": -0.023 },
        "label": "Br",
        "xyz": [5.259297665161567, 0.5961823457182203, 1.10631905]
      }
    ]
  },
  "task_ids": null,
  "uncorrected_energy_per_atom": null,
  "energy_per_atom": -5.743246836250002,
  "formation_energy_per_atom": -1.6926844325000001,
  "energy_above_hull": 0.0,
  "is_stable": true,
  "equilibrium_reaction_energy_per_atom": null,
  "decomposes_to": null,
  "xas": null,
  "grain_boundaries": null,
  "band_gap": 0.0,
  "cbm": null,
  "vbm": null,
  "efermi": 4.79092878,
  "is_gap_direct": null,
  "is_metal": null,
  "es_source_calc_id": null,
  "bandstructure": null,
  "dos": null,
  "dos_energy_up": null,
  "dos_energy_down": null,
  "is_magnetic": null,
  "ordering": null,
  "total_magnetization": 5.9999996,
  "total_magnetization_normalized_vol": null,
  "total_magnetization_normalized_formula_units": null,
  "num_magnetic_sites": null,
  "num_unique_magnetic_sites": null,
  "types_of_magnetic_species": null,
  "bulk_modulus": null,
  "shear_modulus": null,
  "universal_anisotropy": null,
  "homogeneous_poisson": null,
  "e_total": null,
  "e_ionic": null,
  "e_electronic": null,
  "n": null,
  "e_ij_max": null,
  "weighted_surface_energy_EV_PER_ANG2": null,
  "weighted_surface_energy": null,
  "weighted_work_function": null,
  "surface_anisotropy": null,
  "shape_factor": null,
  "has_reconstructed": null,
  "possible_species": null,
  "has_props": null,
  "theoretical": null,
  "database_IDs": null,
  "fields_not_requested": [
    "builder_meta",
    "nsites",
    "elements",
    "nelements",
    "composition",
    "composition_reduced",
    "chemsys",
    "symmetry",
    "property_name",
    "deprecated",
    "deprecation_reasons",
    "last_updated",
    "origins",
    "warnings",
    "task_ids",
    "uncorrected_energy_per_atom",
    "equilibrium_reaction_energy_per_atom",
    "decomposes_to",
    "xas",
    "grain_boundaries",
    "cbm",
    "vbm",
    "is_gap_direct",
    "is_metal",
    "es_source_calc_id",
    "bandstructure",
    "dos",
    "dos_energy_up",
    "dos_energy_down",
    "is_magnetic",
    "ordering",
    "total_magnetization_normalized_vol",
    "total_magnetization_normalized_formula_units",
    "num_magnetic_sites",
    "num_unique_magnetic_sites",
    "types_of_magnetic_species",
    "bulk_modulus",
    "shear_modulus",
    "universal_anisotropy",
    "homogeneous_poisson",
    "e_total",
    "e_ionic",
    "e_electronic",
    "n",
    "e_ij_max",
    "weighted_surface_energy_EV_PER_ANG2",
    "weighted_surface_energy",
    "weighted_work_function",
    "surface_anisotropy",
    "shape_factor",
    "has_reconstructed",
    "possible_species",
    "has_props",
    "theoretical",
    "database_IDs"
  ]
}
