{"builder_meta": null, "nsites": null, "elements": null, "nelements": null, "composition": null, "composition_reduced": null, "formula_pretty": "UBr4", "formula_anonymous": "AB4", "chemsys": null, "volume": 363.2801919345354, "density": 5.097944665876571, "density_atomic": 36.32801919345354, "symmetry": null, "property_name": null, "material_id": "mp-27153", "deprecated": null, "deprecation_reasons": null, "last_updated": null, "origins": null, "warnings": null, "structure": {"@module": "pymatgen.core.structure", "@class": "Structure", "charge": 0, "lattice": {"matrix": [[7.3000838, -0.52453678, -0.1849448], [0.93659587, 6.8721393, 1.787739049999999], [0.53097164, -0.20104454, 7.11519036]], "pbc": [true, true, true], "a": 7.321240803282067, "b": 7.162368413674379, "c": 7.137806641299905, "alpha": 76.61380619417658, "beta": 87.07605683512602, "gamma": 86.82761073775916, "volume": 363.28019193453537}, "properties": {}, "sites": [{"species": [{"element": "U", "occu": 1}], "abc": [0.43905951, 0.80289137, 0.8028995], "properties": {"magmom": 2.099}, "label": "U", "xyz": [4.38347282165776, 5.1258599151603335, 7.066941264240769]}, {"species": [{"element": "U", "occu": 1}], "abc": [0.56094049, 0.19710863, 0.197100499999999], "properties": {"magmom": 2.099}, "label": "U", "xyz": [4.38417848834224, 1.020698064839667, 1.6510433457592222]}, {"species": [{"element": "Br", "occu": 1}], "abc": [0.34767322, 0.55719443, 0.17348772], "properties": {"magmom": -0.028}, "label": "Br", "xyz": [3.1520267021491013, 3.6118715899700184, 2.1662160397376145]}, {"species": [{"element": "Br", "occu": 1}], "abc": [0.65823233, 0.8303473100000001, 0.44567957], "properties": {"magmom": -0.028}, "label": "Br", "xyz": [5.8194942422782585, 5.271393870692138, 4.533802644637015]}, {"species": [{"element": "Br", "occu": 1}], "abc": [0.74297511, 0.9446503900000001, 0.94438254], "properties": {"magmom": -0.039}, "label": "Br", "xyz": [6.809976564233272, 5.912188344721449, 8.270840552437114]}, {"species": [{"element": "Br", "occu": 1}], "abc": [0.25702489, 0.05534961, 0.05561746], "properties": {"magmom": -0.039}, "label": "Br", "xyz": [1.9576747457667272, 0.23436963527855037, 0.447144057562884]}, {"species": [{"element": "Br", "occu": 1}], "abc": [0.85114557, 0.32606941, 0.32594896], "properties": {"magmom": -0.06}, "label": "Br", "xyz": [6.691898903585598, 1.72880699166307, 2.7447009680969496]}, {"species": [{"element": "Br", "occu": 1}], "abc": [0.14885443, 0.67393059, 0.67405104], "properties": {"magmom": -0.06}, "label": "Br", "xyz": [2.075752406414403, 4.41775098833693, 5.973283641903049]}, {"species": [{"element": "Br", "occu": 1}], "abc": [0.34176767, 0.16965269, 0.55432043], "properties": {"magmom": -0.028}, "label": "Br", "xyz": [2.9481570677217417, 0.875164109307862, 4.184181965362983]}, {"species": [{"element": "Br", "occu": 1}], "abc": [0.65232678, 0.44280557, 0.82651228], "properties": {"magmom": -0.028}, "label": "Br", "xyz": [5.6156246078509, 2.5346863900299814, 6.551768570262384]}]}, "task_ids": null, "uncorrected_energy_per_atom": null, "energy_per_atom": -5.330831940000001, "formation_energy_per_atom": -1.76299271, "energy_above_hull": 0.0, "is_stable": true, "equilibrium_reaction_energy_per_atom": null, "decomposes_to": null, "xas": null, "grain_boundaries": null, "band_gap": 0.21150000000000002, "cbm": null, "vbm": null, "efermi": 1.3119376, "is_gap_direct": null, "is_metal": null, "es_source_calc_id": null, "bandstructure": null, "dos": null, "dos_energy_up": null, "dos_energy_down": null, "is_magnetic": null, "ordering": null, "total_magnetization": 4.0, "total_magnetization_normalized_vol": null, "total_magnetization_normalized_formula_units": null, "num_magnetic_sites": null, "num_unique_magnetic_sites": null, "types_of_magnetic_species": null, "bulk_modulus": null, "shear_modulus": null, "universal_anisotropy": null, "homogeneous_poisson": null, "e_total": null, "e_ionic": null, "e_electronic": null, "n": null, "e_ij_max": null, "weighted_surface_energy_EV_PER_ANG2": null, "weighted_surface_energy": null, "weighted_work_function": null, "surface_anisotropy": null, "shape_factor": null, "has_reconstructed": null, "possible_species": null, "has_props": null, "theoretical": null, "database_IDs": null, "fields_not_requested": ["builder_meta", "nsites", "elements", "nelements", "composition", "composition_reduced", "chemsys", "symmetry", "property_name", "deprecated", "deprecation_reasons", "last_updated", "origins", "warnings", "task_ids", "uncorrected_energy_per_atom", "equilibrium_reaction_energy_per_atom", "decomposes_to", "xas", "grain_boundaries", "cbm", "vbm", "is_gap_direct", "is_metal", "es_source_calc_id", "bandstructure", "dos", "dos_energy_up", "dos_energy_down", "is_magnetic", "ordering", "total_magnetization_normalized_vol", "total_magnetization_normalized_formula_units", "num_magnetic_sites", "num_unique_magnetic_sites", "types_of_magnetic_species", "bulk_modulus", "shear_modulus", "universal_anisotropy", "homogeneous_poisson", "e_total", "e_ionic", "e_electronic", "n", "e_ij_max", "weighted_surface_energy_EV_PER_ANG2", "weighted_surface_energy", "weighted_work_function", "surface_anisotropy", "shape_factor", "has_reconstructed", "possible_species", "has_props", "theoretical", "database_IDs"]}