{
  "builder_meta": null,
  "nsites": null,
  "elements": null,
  "nelements": null,
  "composition": null,
  "composition_reduced": null,
  "formula_pretty": "UBr5",
  "formula_anonymous": "AB5",
  "chemsys": null,
  "volume": 450.1224172726259,
  "density": 4.703942000213861,
  "density_atomic": 37.51020143938549,
  "symmetry": null,
  "property_name": null,
  "material_id": "mp-29263",
  "deprecated": null,
  "deprecation_reasons": null,
  "last_updated": null,
  "origins": null,
  "warnings": null,
  "structure": {
    "@module": "pymatgen.core.structure",
    "@class": "Structure",
    "charge": 0,
    "lattice": {
      "matrix": [
        [6.88904599, 0.39657765, -0.30281579000000003],
        [-3.77851605, 6.13046576, -2.15660251],
        [0.34811366, -0.17225194, 10.34791314]
      ],
      "pbc": [true, true, true],
      "a": 6.907092433686401,
      "b": 7.51736179525625,
      "c": 10.355199669928968,
      "alpha": 108.49028179364679,
      "beta": 90.64379250977345,
      "gamma": 116.22675633480793,
      "volume": 450.1224172726259
    },
    "properties": {},
    "sites": [
      {
        "species": [{ "element": "U", "occu": 1 }],
        "abc": [0.10448351, 0.21462649, 0.21554947],
        "properties": { "magmom": 1.292 },
        "label": "U",
        "xyz": [-0.01614221672077941, 1.320067358620062, 1.7359839092639227]
      },
      {
        "species": [{ "element": "U", "occu": 1 }],
        "abc": [0.89551649, 0.78537351, 0.78445053],
        "properties": { "magmom": 1.292 },
        "label": "U",
        "xyz": [3.4747858167207797, 5.034724111379938, 6.152510930736077]
      },
      {
        "species": [{ "element": "Br", "occu": 1 }],
        "abc": [0.92712182, 0.18565688, 0.43514166],
        "properties": { "magmom": -0.049 },
        "label": "Br",
        "xyz": [5.836956111320654, 1.4308849434779314, 3.8216728815191052]
      },
      {
        "species": [{ "element": "Br", "occu": 1 }],
        "abc": [0.07287818, 0.81434312, 0.56485834],
        "properties": { "magmom": -0.049 },
        "label": "Br",
        "xyz": [-2.378312511320653, 4.923906526522068, 4.066821958480894]
      },
      {
        "species": [{ "element": "Br", "occu": 1 }],
        "abc": [0.24859605, 0.18958967000000002, 0.95463413],
        "properties": { "magmom": -0.049 },
        "label": "Br",
        "xyz": [1.3285431913283516, 1.0964230368102696, 9.394322690255766]
      },
      {
        "species": [{ "element": "Br", "occu": 1 }],
        "abc": [0.75140395, 0.8104103300000001, 0.04536587],
        "properties": { "magmom": -0.049 },
        "label": "Br",
        "xyz": [2.130100408671648, 5.258368433189731, -1.505827850255767]
      },
      {
        "species": [{ "element": "Br", "occu": 1 }],
        "abc": [0.11865093, 0.606444, 0.84499777],
        "properties": { "magmom": -0.058 },
        "label": "Br",
        "xyz": [-1.1799114074933912, 3.6192859791689806, 7.400175499777073]
      },
      {
        "species": [{ "element": "Br", "occu": 1 }],
        "abc": [0.8813490700000001, 0.393555999999999, 0.15500223],
        "properties": { "magmom": -0.058 },
        "label": "Br",
        "xyz": [4.6385550074933946, 2.735505490831013, 0.4883193402229289]
      },
      {
        "species": [{ "element": "Br", "occu": 1 }],
        "abc": [0.6844443100000001, 0.98767887, 0.74672035],
        "properties": { "magmom": -0.059000000000000004 },
        "label": "Br",
        "xyz": [1.243151420677935, 6.197742781501184, 5.38970604711078]
      },
      {
        "species": [{ "element": "Br", "occu": 1 }],
        "abc": [0.31555569, 0.01232113, 0.25327965],
        "properties": { "magmom": -0.059000000000000004 },
        "label": "Br",
        "xyz": [2.2154921793220654, 0.15704868849881629, 2.49878879288922]
      },
      {
        "species": [{ "element": "Br", "occu": 1 }],
        "abc": [0.55008763, 0.41369464, 0.6627263],
        "properties": { "magmom": -0.048 },
        "label": "Br",
        "xyz": [2.4571312224323902, 2.640137394350974, 5.799084068748357]
      },
      {
        "species": [{ "element": "Br", "occu": 1 }],
        "abc": [0.44991237, 0.58630536, 0.3372737],
        "properties": { "magmom": -0.048 },
        "label": "Br",
        "xyz": [1.00151237756761, 3.714654075649026, 2.089410771251642]
      }
    ]
  },
  "task_ids": null,
  "uncorrected_energy_per_atom": null,
  "energy_per_atom": -4.9408358108333355,
  "formation_energy_per_atom": -1.69481203,
  "energy_above_hull": 0.0,
  "is_stable": true,
  "equilibrium_reaction_energy_per_atom": null,
  "decomposes_to": null,
  "xas": null,
  "grain_boundaries": null,
  "band_gap": 0.5817,
  "cbm": null,
  "vbm": null,
  "efermi": -0.60024657,
  "is_gap_direct": null,
  "is_metal": null,
  "es_source_calc_id": null,
  "bandstructure": null,
  "dos": null,
  "dos_energy_up": null,
  "dos_energy_down": null,
  "is_magnetic": null,
  "ordering": null,
  "total_magnetization": 2.0000001,
  "total_magnetization_normalized_vol": null,
  "total_magnetization_normalized_formula_units": null,
  "num_magnetic_sites": null,
  "num_unique_magnetic_sites": null,
  "types_of_magnetic_species": null,
  "bulk_modulus": null,
  "shear_modulus": null,
  "universal_anisotropy": null,
  "homogeneous_poisson": null,
  "e_total": null,
  "e_ionic": null,
  "e_electronic": null,
  "n": null,
  "e_ij_max": null,
  "weighted_surface_energy_EV_PER_ANG2": null,
  "weighted_surface_energy": null,
  "weighted_work_function": null,
  "surface_anisotropy": null,
  "shape_factor": null,
  "has_reconstructed": null,
  "possible_species": null,
  "has_props": null,
  "theoretical": null,
  "database_IDs": null,
  "fields_not_requested": [
    "builder_meta",
    "nsites",
    "elements",
    "nelements",
    "composition",
    "composition_reduced",
    "chemsys",
    "symmetry",
    "property_name",
    "deprecated",
    "deprecation_reasons",
    "last_updated",
    "origins",
    "warnings",
    "task_ids",
    "uncorrected_energy_per_atom",
    "equilibrium_reaction_energy_per_atom",
    "decomposes_to",
    "xas",
    "grain_boundaries",
    "cbm",
    "vbm",
    "is_gap_direct",
    "is_metal",
    "es_source_calc_id",
    "bandstructure",
    "dos",
    "dos_energy_up",
    "dos_energy_down",
    "is_magnetic",
    "ordering",
    "total_magnetization_normalized_vol",
    "total_magnetization_normalized_formula_units",
    "num_magnetic_sites",
    "num_unique_magnetic_sites",
    "types_of_magnetic_species",
    "bulk_modulus",
    "shear_modulus",
    "universal_anisotropy",
    "homogeneous_poisson",
    "e_total",
    "e_ionic",
    "e_electronic",
    "n",
    "e_ij_max",
    "weighted_surface_energy_EV_PER_ANG2",
    "weighted_surface_energy",
    "weighted_work_function",
    "surface_anisotropy",
    "shape_factor",
    "has_reconstructed",
    "possible_species",
    "has_props",
    "theoretical",
    "database_IDs"
  ]
}
