{"builder_meta": null, "nsites": null, "elements": null, "nelements": null, "composition": null, "composition_reduced": null, "formula_pretty": "UCl2", "formula_anonymous": "AB2", "chemsys": null, "volume": 2062.9008903669214, "density": 0.9947128133728411, "density_atomic": 171.9084075305768, "symmetry": null, "property_name": null, "material_id": "mp-1208294", "deprecated": null, "deprecation_reasons": null, "last_updated": null, "origins": null, "warnings": null, "structure": {"@module": "pymatgen.core.structure", "@class": "Structure", "charge": 0, "lattice": {"matrix": [[-8.571927, 8.571927, 7.018777], [8.571927, -8.571927, 7.018777], [8.571927, 8.571927, -7.018777]], "pbc": [true, true, true], "a": 14.00782265601571, "b": 14.00782265601571, "c": 14.00782265601571, "alpha": 104.54038648689179, "beta": 104.54038648689179, "gamma": 119.8595280121411, "volume": 2062.9008903669214}, "properties": {}, "sites": [{"species": [{"element": "U", "occu": 1}], "abc": [0.125, 0.875, 0.75], "properties": {"magmom": 3.198}, "label": "U", "xyz": [12.8578905, 0.0, 1.75469425]}, {"species": [{"element": "U", "occu": 1}], "abc": [0.125, 0.375, 0.25], "properties": {"magmom": 3.198}, "label": "U", "xyz": [4.285963499999999, 4.440892098500626e-16, 1.75469425]}, {"species": [{"element": "U", "occu": 1}], "abc": [0.625, 0.875, 0.75], "properties": {"magmom": 3.197}, "label": "U", "xyz": [8.571926999999999, 4.2859635, 5.26408275]}, {"species": [{"element": "U", "occu": 1}], "abc": [0.125, 0.875, 0.25], "properties": {"magmom": 3.199}, "label": "U", "xyz": [8.571927, -4.285963499999999, 5.26408275]}, {"species": [{"element": "Cl", "occu": 1}], "abc": [0.198411999999999, 0.312319, 0.113907], "properties": {"magmom": -0.035}, "label": "Cl", "xyz": [1.9528049775780087, -8.548717289613705e-15, 2.785219164247993]}, {"species": [{"element": "Cl", "occu": 1}], "abc": [0.198411999999999, 0.084505, 0.886092999999999], "properties": {"magmom": -0.035}, "label": "Cl", "xyz": [6.619122022422, 8.571926999999983, -4.233557835752]}, {"species": [{"element": "Cl", "occu": 1}], "abc": [0.334505, 0.948411999999999, 0.386092999999999], "properties": {"magmom": -0.035}, "label": "Cl", "xyz": [8.571926999999985, -1.9528049775780003, 6.2946076642480016]}, {"species": [{"element": "Cl", "occu": 1}], "abc": [0.051587999999999, 0.665495, 0.613907], "properties": {"magmom": -0.035}, "label": "Cl", "xyz": [10.524731977578007, -7.993605777301127e-15, 0.7241693357519932]}, {"species": [{"element": "Cl", "occu": 1}], "abc": [0.051587999999999, 0.437681, 0.386092999999999], "properties": {"magmom": -0.035}, "label": "Cl", "xyz": [6.619122022422, -1.687538997430238e-14, 0.7241693357519998]}, {"species": [{"element": "Cl", "occu": 1}], "abc": [0.562319, 0.948411999999999, 0.613907], "properties": {"magmom": -0.035}, "label": "Cl", "xyz": [8.571926999999992, 1.9528049775780083, 6.294607664247995]}, {"species": [{"element": "Cl", "occu": 1}], "abc": [0.915495, 0.801588, 0.113907], "properties": {"magmom": -0.035}, "label": "Cl", "xyz": [3.3306690738754696e-16, 1.9528049775779999, 11.252334835751999]}, {"species": [{"element": "Cl", "occu": 1}], "abc": [0.687681, 0.801588, 0.886092999999999], "properties": {"magmom": -0.035}, "label": "Cl", "xyz": [8.571926999999992, 6.619122022421991, 4.2335578357520065]}]}, "task_ids": null, "uncorrected_energy_per_atom": null, "energy_per_atom": -31.465414014722224, "formation_energy_per_atom": -0.7164425413888911, "energy_above_hull": 1.248478011388886, "is_stable": false, "equilibrium_reaction_energy_per_atom": null, "decomposes_to": null, "xas": null, "grain_boundaries": null, "band_gap": 0.4727, "cbm": null, "vbm": null, "efermi": -2.30190645, "is_gap_direct": null, "is_metal": null, "es_source_calc_id": null, "bandstructure": null, "dos": null, "dos_energy_up": null, "dos_energy_down": null, "is_magnetic": null, "ordering": null, "total_magnetization": 16.0, "total_magnetization_normalized_vol": null, "total_magnetization_normalized_formula_units": null, "num_magnetic_sites": null, "num_unique_magnetic_sites": null, "types_of_magnetic_species": null, "bulk_modulus": null, "shear_modulus": null, "universal_anisotropy": null, "homogeneous_poisson": null, "e_total": null, "e_ionic": null, "e_electronic": null, "n": null, "e_ij_max": null, "weighted_surface_energy_EV_PER_ANG2": null, "weighted_surface_energy": null, "weighted_work_function": null, "surface_anisotropy": null, "shape_factor": null, "has_reconstructed": null, "possible_species": null, "has_props": null, "theoretical": null, "database_IDs": null, "fields_not_requested": ["builder_meta", "nsites", "elements", "nelements", "composition", "composition_reduced", "chemsys", "symmetry", "property_name", "deprecated", "deprecation_reasons", "last_updated", "origins", "warnings", "task_ids", "uncorrected_energy_per_atom", "equilibrium_reaction_energy_per_atom", "decomposes_to", "xas", "grain_boundaries", "cbm", "vbm", "is_gap_direct", "is_metal", "es_source_calc_id", "bandstructure", "dos", "dos_energy_up", "dos_energy_down", "is_magnetic", "ordering", "total_magnetization_normalized_vol", "total_magnetization_normalized_formula_units", "num_magnetic_sites", "num_unique_magnetic_sites", "types_of_magnetic_species", "bulk_modulus", "shear_modulus", "universal_anisotropy", "homogeneous_poisson", "e_total", "e_ionic", "e_electronic", "n", "e_ij_max", "weighted_surface_energy_EV_PER_ANG2", "weighted_surface_energy", "weighted_work_function", "surface_anisotropy", "shape_factor", "has_reconstructed", "possible_species", "has_props", "theoretical", "database_IDs"]}