{
  "builder_meta": null,
  "nsites": null,
  "elements": null,
  "nelements": null,
  "composition": null,
  "composition_reduced": null,
  "formula_pretty": "UCl3",
  "formula_anonymous": "AB3",
  "chemsys": null,
  "volume": 209.760366052495,
  "density": 5.452598976458763,
  "density_atomic": 26.220045756561873,
  "symmetry": null,
  "property_name": null,
  "material_id": "mp-23208",
  "deprecated": null,
  "deprecation_reasons": null,
  "last_updated": null,
  "origins": null,
  "warnings": null,
  "structure": {
    "@module": "pymatgen.core.structure",
    "@class": "Structure",
    "charge": 0,
    "lattice": {
      "matrix": [
        [7.52778116, -0.01189333, 0.0],
        [-3.76988783, 6.50711946, 0.0],
        [0.0, 0.0, 4.28613031]
      ],
      "pbc": [true, true, true],
      "a": 7.527790555279114,
      "b": 7.520283100887413,
      "c": 4.28613031,
      "alpha": 90.0,
      "beta": 90.0,
      "gamma": 120.17630267189904,
      "volume": 209.760366052495
    },
    "properties": {},
    "sites": [
      {
        "species": [{ "element": "U", "occu": 1 }],
        "abc": [0.66666083, 0.32965689, 0.75],
        "properties": { "magmom": 2.894 },
        "label": "U",
        "xyz": [3.7757073384973143, 2.137187946792815, 3.2145977324999997]
      },
      {
        "species": [{ "element": "U", "occu": 1 }],
        "abc": [0.33401601000000003, 0.66367208, 0.25],
        "properties": { "magmom": 2.895 },
        "label": "U",
        "xyz": [0.01243012971358537, 4.314620944194464, 1.0715325775]
      },
      {
        "species": [{ "element": "Cl", "occu": 1 }],
        "abc": [0.6099878, 0.69811018, 0.75],
        "properties": { "magmom": -0.019 },
        "label": "Cl",
        "xyz": [1.9600575970887384, 4.5354315513007295, 3.2145977324999997]
      },
      {
        "species": [{ "element": "Cl", "occu": 1 }],
        "abc": [0.91501645, 0.61292566, 0.25],
        "properties": { "magmom": -0.016 },
        "label": "Cl",
        "xyz": [4.577382607071364, 3.9774978971240653, 1.0715325775]
      },
      {
        "species": [{ "element": "Cl", "occu": 1 }],
        "abc": [0.38866206000000003, 0.30579598, 0.25],
        "properties": { "magmom": -0.02 },
        "label": "Cl",
        "xyz": [1.772946389409866, 1.9852284861097114, 1.0715325775]
      },
      {
        "species": [{ "element": "Cl", "occu": 1 }],
        "abc": [0.08377449000000001, 0.3877237, 0.75],
        "properties": { "magmom": -0.019 },
        "label": "Cl",
        "xyz": [-0.8310388305219627, 2.5219680757180507, 3.2145977324999997]
      },
      {
        "species": [{ "element": "Cl", "occu": 1 }],
        "abc": [0.30513042, 0.91386371, 0.75],
        "properties": { "magmom": -0.018000000000000002 },
        "label": "Cl",
        "xyz": [-1.148208651588762, 5.942991314350698, 3.2145977324999997]
      },
      {
        "species": [{ "element": "Cl", "occu": 1 }],
        "abc": [0.69675193, 0.08825181, 0.25],
        "properties": { "magmom": -0.019 },
        "label": "Cl",
        "xyz": [4.912296627353166, 0.5659783695995957, 1.0715325775]
      }
    ]
  },
  "task_ids": null,
  "uncorrected_energy_per_atom": null,
  "energy_per_atom": -26.81037395125,
  "formation_energy_per_atom": -2.210535621874999,
  "energy_above_hull": 0.0,
  "is_stable": true,
  "equilibrium_reaction_energy_per_atom": null,
  "decomposes_to": null,
  "xas": null,
  "grain_boundaries": null,
  "band_gap": 0.0,
  "cbm": null,
  "vbm": null,
  "efermi": 5.83927596,
  "is_gap_direct": null,
  "is_metal": null,
  "es_source_calc_id": null,
  "bandstructure": null,
  "dos": null,
  "dos_energy_up": null,
  "dos_energy_down": null,
  "is_magnetic": null,
  "ordering": null,
  "total_magnetization": 6.0000003,
  "total_magnetization_normalized_vol": null,
  "total_magnetization_normalized_formula_units": null,
  "num_magnetic_sites": null,
  "num_unique_magnetic_sites": null,
  "types_of_magnetic_species": null,
  "bulk_modulus": null,
  "shear_modulus": null,
  "universal_anisotropy": null,
  "homogeneous_poisson": null,
  "e_total": null,
  "e_ionic": null,
  "e_electronic": null,
  "n": null,
  "e_ij_max": null,
  "weighted_surface_energy_EV_PER_ANG2": null,
  "weighted_surface_energy": null,
  "weighted_work_function": null,
  "surface_anisotropy": null,
  "shape_factor": null,
  "has_reconstructed": null,
  "possible_species": null,
  "has_props": null,
  "theoretical": null,
  "database_IDs": null,
  "fields_not_requested": [
    "builder_meta",
    "nsites",
    "elements",
    "nelements",
    "composition",
    "composition_reduced",
    "chemsys",
    "symmetry",
    "property_name",
    "deprecated",
    "deprecation_reasons",
    "last_updated",
    "origins",
    "warnings",
    "task_ids",
    "uncorrected_energy_per_atom",
    "equilibrium_reaction_energy_per_atom",
    "decomposes_to",
    "xas",
    "grain_boundaries",
    "cbm",
    "vbm",
    "is_gap_direct",
    "is_metal",
    "es_source_calc_id",
    "bandstructure",
    "dos",
    "dos_energy_up",
    "dos_energy_down",
    "is_magnetic",
    "ordering",
    "total_magnetization_normalized_vol",
    "total_magnetization_normalized_formula_units",
    "num_magnetic_sites",
    "num_unique_magnetic_sites",
    "types_of_magnetic_species",
    "bulk_modulus",
    "shear_modulus",
    "universal_anisotropy",
    "homogeneous_poisson",
    "e_total",
    "e_ionic",
    "e_electronic",
    "n",
    "e_ij_max",
    "weighted_surface_energy_EV_PER_ANG2",
    "weighted_surface_energy",
    "weighted_work_function",
    "surface_anisotropy",
    "shape_factor",
    "has_reconstructed",
    "possible_species",
    "has_props",
    "theoretical",
    "database_IDs"
  ]
}
