{
  "builder_meta": null,
  "nsites": null,
  "elements": null,
  "nelements": null,
  "composition": null,
  "composition_reduced": null,
  "formula_pretty": "UCl4",
  "formula_anonymous": "AB4",
  "chemsys": null,
  "volume": 265.7912268364366,
  "density": 4.7461361133341065,
  "density_atomic": 26.579122683643657,
  "symmetry": null,
  "property_name": null,
  "material_id": "mp-23235",
  "deprecated": null,
  "deprecation_reasons": null,
  "last_updated": null,
  "origins": null,
  "warnings": null,
  "structure": {
    "@module": "pymatgen.core.structure",
    "@class": "Structure",
    "charge": 0,
    "lattice": {
      "matrix": [
        [6.72104336, 0.04391506, -2.05183983],
        [-3.67254447, 5.62913075, -2.05175449],
        [-0.02365689, -0.04391504, 7.0272262]
      ],
      "pbc": [true, true, true],
      "a": 7.02740343707897,
      "b": 7.02740296069311,
      "c": 7.027403236270787,
      "alpha": 107.16976405862971,
      "beta": 107.17122574834708,
      "gamma": 114.17768389941736,
      "volume": 265.7912268364365
    },
    "properties": {},
    "sites": [
      {
        "species": [{ "element": "U", "occu": 1 }],
        "abc": [0.87499363, 0.12499363000000001, 0.75],
        "properties": { "magmom": 2.061 },
        "label": "U",
        "xyz": [5.40408279481207, 0.7090946039481902, 3.2186166273958183]
      },
      {
        "species": [{ "element": "U", "occu": 1 }],
        "abc": [0.12500637, 0.87500637, 0.25],
        "properties": { "magmom": 2.061 },
        "label": "U",
        "xyz": [-2.3792407948120706, 4.920036166051809, -0.29498474739581826]
      },
      {
        "species": [{ "element": "Cl", "occu": 1 }],
        "abc": [0.19653298, 0.25626183, 0.55973085],
        "properties": { "magmom": -0.033 },
        "label": "Cl",
        "xyz": [0.36653222246337624, 1.4265815022459676, 3.0043147374775603]
      },
      {
        "species": [{ "element": "Cl", "occu": 1 }],
        "abc": [0.63679344, 0.19652582000000002, 0.44026562],
        "properties": { "magmom": -0.033 },
        "label": "Cl",
        "xyz": [3.5477511928072216, 1.1149000763432468, 1.384025222562597]
      },
      {
        "species": [{ "element": "Cl", "occu": 1 }],
        "abc": [0.36320656, 0.80347418, 0.55973438],
        "properties": { "magmom": -0.033 },
        "label": "Cl",
        "xyz": [-0.522909192807221, 4.514230693656754, 1.5396066574374028]
      },
      {
        "species": [{ "element": "Cl", "occu": 1 }],
        "abc": [0.80346702, 0.74373817, 0.44026915],
        "properties": { "magmom": -0.033 },
        "label": "Cl",
        "xyz": [2.6583097775366245, 4.2025492677540335, -0.08068285747755999]
      },
      {
        "species": [{ "element": "Cl", "occu": 1 }],
        "abc": [0.80346702, 0.36319887, 0.05973085],
        "properties": { "magmom": -0.033 },
        "label": "Cl",
        "xyz": [4.0648596320731825, 2.0771551472065894, -1.9740383519445632]
      },
      {
        "species": [{ "element": "Cl", "occu": 1 }],
        "abc": [0.7437408, 0.80347418, 0.94026562],
        "properties": { "magmom": -0.033 },
        "label": "Cl",
        "xyz": [2.0256757485111816, 4.514230833012558, 3.4328904467731123]
      },
      {
        "species": [{ "element": "Cl", "occu": 1 }],
        "abc": [0.19653298, 0.63680113, 0.94026915],
        "properties": { "magmom": -0.033 },
        "label": "Cl",
        "xyz": [-1.0400176320731818, 3.5519756227934103, 4.897670231944563]
      },
      {
        "species": [{ "element": "Cl", "occu": 1 }],
        "abc": [0.256259199999999, 0.19652582000000002, 0.059734380000000004],
        "properties": { "magmom": -0.033 },
        "label": "Cl",
        "xyz": [0.9991662514888118, 1.114899936987442, -0.5092585667731098]
      }
    ]
  },
  "task_ids": null,
  "uncorrected_energy_per_atom": null,
  "energy_per_atom": -22.984988238,
  "formation_energy_per_atom": -2.074629794999998,
  "energy_above_hull": 0.0,
  "is_stable": true,
  "equilibrium_reaction_energy_per_atom": null,
  "decomposes_to": null,
  "xas": null,
  "grain_boundaries": null,
  "band_gap": 0.0,
  "cbm": null,
  "vbm": null,
  "efermi": 3.69768681,
  "is_gap_direct": null,
  "is_metal": null,
  "es_source_calc_id": null,
  "bandstructure": null,
  "dos": null,
  "dos_energy_up": null,
  "dos_energy_down": null,
  "is_magnetic": null,
  "ordering": null,
  "total_magnetization": 4.0000003,
  "total_magnetization_normalized_vol": null,
  "total_magnetization_normalized_formula_units": null,
  "num_magnetic_sites": null,
  "num_unique_magnetic_sites": null,
  "types_of_magnetic_species": null,
  "bulk_modulus": null,
  "shear_modulus": null,
  "universal_anisotropy": null,
  "homogeneous_poisson": null,
  "e_total": null,
  "e_ionic": null,
  "e_electronic": null,
  "n": null,
  "e_ij_max": null,
  "weighted_surface_energy_EV_PER_ANG2": null,
  "weighted_surface_energy": null,
  "weighted_work_function": null,
  "surface_anisotropy": null,
  "shape_factor": null,
  "has_reconstructed": null,
  "possible_species": null,
  "has_props": null,
  "theoretical": null,
  "database_IDs": null,
  "fields_not_requested": [
    "builder_meta",
    "nsites",
    "elements",
    "nelements",
    "composition",
    "composition_reduced",
    "chemsys",
    "symmetry",
    "property_name",
    "deprecated",
    "deprecation_reasons",
    "last_updated",
    "origins",
    "warnings",
    "task_ids",
    "uncorrected_energy_per_atom",
    "equilibrium_reaction_energy_per_atom",
    "decomposes_to",
    "xas",
    "grain_boundaries",
    "cbm",
    "vbm",
    "is_gap_direct",
    "is_metal",
    "es_source_calc_id",
    "bandstructure",
    "dos",
    "dos_energy_up",
    "dos_energy_down",
    "is_magnetic",
    "ordering",
    "total_magnetization_normalized_vol",
    "total_magnetization_normalized_formula_units",
    "num_magnetic_sites",
    "num_unique_magnetic_sites",
    "types_of_magnetic_species",
    "bulk_modulus",
    "shear_modulus",
    "universal_anisotropy",
    "homogeneous_poisson",
    "e_total",
    "e_ionic",
    "e_electronic",
    "n",
    "e_ij_max",
    "weighted_surface_energy_EV_PER_ANG2",
    "weighted_surface_energy",
    "weighted_work_function",
    "surface_anisotropy",
    "shape_factor",
    "has_reconstructed",
    "possible_species",
    "has_props",
    "theoretical",
    "database_IDs"
  ]
}
