{
  "builder_meta": null,
  "nsites": null,
  "elements": null,
  "nelements": null,
  "composition": null,
  "composition_reduced": null,
  "formula_pretty": "UCl5",
  "formula_anonymous": "AB5",
  "chemsys": null,
  "volume": 774.4607236036471,
  "density": 3.5617649322084572,
  "density_atomic": 32.26919681681863,
  "symmetry": null,
  "property_name": null,
  "material_id": "mp-570989",
  "deprecated": null,
  "deprecation_reasons": null,
  "last_updated": null,
  "origins": null,
  "warnings": null,
  "structure": {
    "@module": "pymatgen.core.structure",
    "@class": "Structure",
    "charge": 0,
    "lattice": {
      "matrix": [
        [8.23130779, -0.30496291000000003, 0.0],
        [0.18812952, 8.58706316, 0.0],
        [0.0, 0.0, 10.94796825]
      ],
      "pbc": [true, true, true],
      "a": 8.236955160142026,
      "b": 8.589123728886703,
      "c": 10.94796825,
      "alpha": 90.0,
      "beta": 90.0,
      "gamma": 90.8667263541927,
      "volume": 774.4607236036471
    },
    "properties": {},
    "sites": [
      {
        "species": [{ "element": "U", "occu": 1 }],
        "abc": [0.44796095, 0.66111432, 0.36266527],
        "properties": { "magmom": 1.208 },
        "label": "U",
        "xyz": [3.8116795770375274, 5.540418946942086, 3.9704478613376777]
      },
      {
        "species": [{ "element": "U", "occu": 1 }],
        "abc": [0.05203905, 0.83888568, 0.86266527],
        "properties": { "magmom": 1.208 },
        "label": "U",
        "xyz": [0.5861685979624731, 7.187694338057913, 9.444431986337678]
      },
      {
        "species": [{ "element": "U", "occu": 1 }],
        "abc": [0.55203905, 0.33888568, 0.63733473],
        "properties": { "magmom": 1.208 },
        "label": "U",
        "xyz": [4.607757732962473, 2.7416813030579132, 6.977520388662322]
      },
      {
        "species": [{ "element": "U", "occu": 1 }],
        "abc": [0.94796095, 0.16111432, 0.13733473000000002],
        "properties": { "magmom": 1.208 },
        "label": "U",
        "xyz": [7.833268712037528, 1.0944059119420868, 1.5035362636623228]
      },
      {
        "species": [{ "element": "Cl", "occu": 1 }],
        "abc": [0.04055109, 0.86165302, 0.10978331000000001],
        "properties": { "magmom": -0.04 },
        "label": "Cl",
        "xyz": [0.4958908720691415, 7.386702326334671, 1.2019041922599076]
      },
      {
        "species": [{ "element": "Cl", "occu": 1 }],
        "abc": [0.36182439, 0.9345465, 0.37151027000000003],
        "properties": { "magmom": -0.038 },
        "label": "Cl",
        "xyz": [3.1541037044816784, 7.914666802573564, 4.067282640508928]
      },
      {
        "species": [{ "element": "Cl", "occu": 1 }],
        "abc": [0.04777823, 0.86059936, 0.63824108],
        "properties": { "magmom": -0.039 },
        "label": "Cl",
        "xyz": [0.5551814613005189, 7.375450471720128, 6.98744307968571]
      },
      {
        "species": [{ "element": "Cl", "occu": 1 }],
        "abc": [0.54055109, 0.36165302, 0.39021669000000003],
        "properties": { "magmom": -0.04 },
        "label": "Cl",
        "xyz": [4.517480007069142, 2.940689291334671, 4.272079932740093]
      },
      {
        "species": [{ "element": "Cl", "occu": 1 }],
        "abc": [0.33611987, 0.93312312, 0.87364273],
        "properties": { "magmom": -0.048 },
        "label": "Cl",
        "xyz": [2.94225410897129, 7.910283073832236, 9.564612869883323]
      },
      {
        "species": [{ "element": "Cl", "occu": 1 }],
        "abc": [0.26243365, 0.26199436, 0.6302238],
        "properties": { "magmom": -0.049 },
        "label": "Cl",
        "xyz": [2.209461020792641, 2.169729587297856, 6.89967015279435]
      },
      {
        "species": [{ "element": "Cl", "occu": 1 }],
        "abc": [0.16388013, 0.56687688, 0.37364273000000003],
        "properties": { "magmom": -0.048 },
        "label": "Cl",
        "xyz": [1.4555940660287106, 4.817830211167762, 4.090628744883323]
      },
      {
        "species": [{ "element": "Cl", "occu": 1 }],
        "abc": [0.73756635, 0.73800564, 0.3697762],
        "properties": { "magmom": -0.049 },
        "label": "Cl",
        "xyz": [6.20997628920736, 6.112370662702144, 4.048298097205651]
      },
      {
        "species": [{ "element": "Cl", "occu": 1 }],
        "abc": [0.86182439, 0.4345465, 0.12848973],
        "properties": { "magmom": -0.038 },
        "label": "Cl",
        "xyz": [7.175692839481679, 3.468653767573565, 1.4067014844910726]
      },
      {
        "species": [{ "element": "Cl", "occu": 1 }],
        "abc": [0.95222177, 0.13940064, 0.36175892],
        "properties": { "magmom": -0.039 },
        "label": "Cl",
        "xyz": [7.864255848699481, 0.9066497782798715, 3.96052517031429]
      },
      {
        "species": [{ "element": "Cl", "occu": 1 }],
        "abc": [0.95944891, 0.13834698, 0.89021669],
        "properties": { "magmom": -0.04 },
        "label": "Cl",
        "xyz": [7.923546437930859, 0.8953979236653286, 9.746064057740094]
      },
      {
        "species": [{ "element": "Cl", "occu": 1 }],
        "abc": [0.63817561, 0.0654535, 0.62848973],
        "properties": { "magmom": -0.038 },
        "label": "Cl",
        "xyz": [5.265333605518322, 0.3674334474264348, 6.880685609491072]
      },
      {
        "species": [{ "element": "Cl", "occu": 1 }],
        "abc": [0.45222177, 0.63940064, 0.13824108000000002],
        "properties": { "magmom": -0.039 },
        "label": "Cl",
        "xyz": [3.8426667136994817, 5.3526628132798715, 1.5134589546857102]
      },
      {
        "species": [{ "element": "Cl", "occu": 1 }],
        "abc": [0.76243365, 0.76199436, 0.8697762],
        "properties": { "magmom": -0.049 },
        "label": "Cl",
        "xyz": [6.419179675792641, 6.3107797122978555, 9.52228222220565]
      },
      {
        "species": [{ "element": "Cl", "occu": 1 }],
        "abc": [0.13817561, 0.565453499999999, 0.87151027],
        "properties": { "magmom": -0.038 },
        "label": "Cl",
        "xyz": [1.243744470518322, 4.813446482426427, 9.541266765508928]
      },
      {
        "species": [{ "element": "Cl", "occu": 1 }],
        "abc": [0.23756635, 0.23800564000000002, 0.1302238],
        "properties": { "magmom": -0.049 },
        "label": "Cl",
        "xyz": [2.0002576342073595, 1.9713205377021439, 1.4256860277943502]
      },
      {
        "species": [{ "element": "Cl", "occu": 1 }],
        "abc": [0.45944891, 0.63834698, 0.60978331],
        "properties": { "magmom": -0.04 },
        "label": "Cl",
        "xyz": [3.901957302930859, 5.341410958665328, 6.675888317259908]
      },
      {
        "species": [{ "element": "Cl", "occu": 1 }],
        "abc": [0.66388013, 0.06687688, 0.12635727],
        "properties": { "magmom": -0.048 },
        "label": "Cl",
        "xyz": [5.477183201028711, 0.37181717616776244, 1.3833553801166776]
      },
      {
        "species": [{ "element": "Cl", "occu": 1 }],
        "abc": [0.83611987, 0.43312312000000003, 0.62635727],
        "properties": { "magmom": -0.048 },
        "label": "Cl",
        "xyz": [6.96384324397129, 3.4642700388322374, 6.857339505116678]
      },
      {
        "species": [{ "element": "Cl", "occu": 1 }],
        "abc": [0.54777823, 0.36059936, 0.86175892],
        "properties": { "magmom": -0.039 },
        "label": "Cl",
        "xyz": [4.57677059630052, 2.9294374367201277, 9.43450929531429]
      }
    ]
  },
  "task_ids": null,
  "uncorrected_energy_per_atom": null,
  "energy_per_atom": -20.301383468333334,
  "formation_energy_per_atom": -1.8506782829166681,
  "energy_above_hull": 0.0,
  "is_stable": true,
  "equilibrium_reaction_energy_per_atom": null,
  "decomposes_to": null,
  "xas": null,
  "grain_boundaries": null,
  "band_gap": 0.0,
  "cbm": null,
  "vbm": null,
  "efermi": 0.14098351,
  "is_gap_direct": null,
  "is_metal": null,
  "es_source_calc_id": null,
  "bandstructure": null,
  "dos": null,
  "dos_energy_up": null,
  "dos_energy_down": null,
  "is_magnetic": null,
  "ordering": null,
  "total_magnetization": 4.0000001,
  "total_magnetization_normalized_vol": null,
  "total_magnetization_normalized_formula_units": null,
  "num_magnetic_sites": null,
  "num_unique_magnetic_sites": null,
  "types_of_magnetic_species": null,
  "bulk_modulus": null,
  "shear_modulus": null,
  "universal_anisotropy": null,
  "homogeneous_poisson": null,
  "e_total": null,
  "e_ionic": null,
  "e_electronic": null,
  "n": null,
  "e_ij_max": null,
  "weighted_surface_energy_EV_PER_ANG2": null,
  "weighted_surface_energy": null,
  "weighted_work_function": null,
  "surface_anisotropy": null,
  "shape_factor": null,
  "has_reconstructed": null,
  "possible_species": null,
  "has_props": null,
  "theoretical": null,
  "database_IDs": null,
  "fields_not_requested": [
    "builder_meta",
    "nsites",
    "elements",
    "nelements",
    "composition",
    "composition_reduced",
    "chemsys",
    "symmetry",
    "property_name",
    "deprecated",
    "deprecation_reasons",
    "last_updated",
    "origins",
    "warnings",
    "task_ids",
    "uncorrected_energy_per_atom",
    "equilibrium_reaction_energy_per_atom",
    "decomposes_to",
    "xas",
    "grain_boundaries",
    "cbm",
    "vbm",
    "is_gap_direct",
    "is_metal",
    "es_source_calc_id",
    "bandstructure",
    "dos",
    "dos_energy_up",
    "dos_energy_down",
    "is_magnetic",
    "ordering",
    "total_magnetization_normalized_vol",
    "total_magnetization_normalized_formula_units",
    "num_magnetic_sites",
    "num_unique_magnetic_sites",
    "types_of_magnetic_species",
    "bulk_modulus",
    "shear_modulus",
    "universal_anisotropy",
    "homogeneous_poisson",
    "e_total",
    "e_ionic",
    "e_electronic",
    "n",
    "e_ij_max",
    "weighted_surface_energy_EV_PER_ANG2",
    "weighted_surface_energy",
    "weighted_work_function",
    "surface_anisotropy",
    "shape_factor",
    "has_reconstructed",
    "possible_species",
    "has_props",
    "theoretical",
    "database_IDs"
  ]
}
