{
  "builder_meta": null,
  "nsites": null,
  "elements": null,
  "nelements": null,
  "composition": null,
  "composition_reduced": null,
  "formula_pretty": "UCl6",
  "formula_anonymous": "AB6",
  "chemsys": null,
  "volume": 663.5830842477886,
  "density": 3.383824291057771,
  "density_atomic": 31.599194487989934,
  "symmetry": null,
  "property_name": null,
  "material_id": "mp-23250",
  "deprecated": null,
  "deprecation_reasons": null,
  "last_updated": null,
  "origins": null,
  "warnings": null,
  "structure": {
    "@module": "pymatgen.core.structure",
    "@class": "Structure",
    "charge": 0,
    "lattice": {
      "matrix": [
        [11.18972028, -2e-8, 0.0],
        [-5.59486117, 9.69058235, -0.0],
        [0.0, -0.0, 6.11964459]
      ],
      "pbc": [true, true, true],
      "a": 11.18972028,
      "b": 11.189721077565128,
      "c": 6.11964459,
      "alpha": 90.0,
      "beta": 90.0,
      "gamma": 120.00000383449468,
      "volume": 663.5830842477886
    },
    "properties": {},
    "sites": [
      {
        "species": [{ "element": "U", "occu": 1 }],
        "abc": [0.666667, 0.333333, 0.51614459],
        "properties": { "magmom": 0.0 },
        "label": "U",
        "xyz": [5.59486539152715, 3.2301908731392097, 3.158621447851268]
      },
      {
        "species": [{ "element": "U", "occu": 1 }],
        "abc": [0.333333, 0.666667, 0.48385541],
        "properties": { "magmom": 0.0 },
        "label": "U",
        "xyz": [-6.2815271504312875e-6, 6.46039145686079, 2.961023142148732]
      },
      {
        "species": [{ "element": "U", "occu": 1 }],
        "abc": [0.0, 0.0, -0.0],
        "properties": { "magmom": -0.0 },
        "label": "U",
        "xyz": [0.0, 0.0, 0.0]
      },
      {
        "species": [{ "element": "Cl", "occu": 1 }],
        "abc": [0.22991441, 0.77008559, 0.7165877900000001],
        "properties": { "magmom": -0.0 },
        "label": "Cl",
        "xyz": [-1.7358440288263055, 7.4625778218450485, 4.385262592333556]
      },
      {
        "species": [{ "element": "Cl", "occu": 1 }],
        "abc": [0.22991441, 0.45982582, 0.7165877900000001],
        "properties": { "magmom": -0.0 },
        "label": "Cl",
        "xyz": [1.6310959825460714e-5, 4.455979970767989, 4.385262592333556]
      },
      {
        "species": [{ "element": "Cl", "occu": 1 }],
        "abc": [0.5401741800000001, 0.77008559, 0.7165877900000001],
        "properties": { "magmom": -0.0 },
        "label": "Cl",
        "xyz": [1.7358760116108307, 7.462577815639853, 4.385262592333556]
      },
      {
        "species": [{ "element": "Cl", "occu": 1 }],
        "abc": [0.10364419, 0.89635581, 0.23189927000000002],
        "properties": { "magmom": 0.0 },
        "label": "Cl",
        "xyz": [-3.855236821125724, 8.686209789633068, 1.4191411130804494]
      },
      {
        "species": [{ "element": "Cl", "occu": 1 }],
        "abc": [0.10364419, 0.20729037, 0.23189927000000002],
        "properties": { "magmom": 0.0 },
        "label": "Cl",
        "xyz": [-1.1347280759688161e-5, 2.008764398774086, 1.4191411130804494]
      },
      {
        "species": [{ "element": "Cl", "occu": 1 }],
        "abc": [0.79270963, 0.89635581, 0.23189927000000002],
        "properties": { "magmom": 0.0 },
        "label": "Cl",
        "xyz": [3.8552127070893993, 8.68620977585176, 1.4191411130804494]
      },
      {
        "species": [{ "element": "Cl", "occu": 1 }],
        "abc": [0.20729037, 0.10364419, 0.76810073],
        "properties": { "magmom": 0.0 },
        "label": "Cl",
        "xyz": [1.7396464029106014, 1.004372554148239, 4.70050347691955]
      },
      {
        "species": [{ "element": "Cl", "occu": 1 }],
        "abc": [0.89635581, 0.79270963, 0.76810073],
        "properties": { "magmom": 0.0 },
        "label": "Cl",
        "xyz": [5.594870457280759, 7.681817931225915, 4.70050347691955]
      },
      {
        "species": [{ "element": "Cl", "occu": 1 }],
        "abc": [0.89635581, 0.10364419, 0.76810073],
        "properties": { "magmom": 0.0 },
        "label": "Cl",
        "xyz": [9.450095931125725, 1.0043725403669301, 4.70050347691955]
      },
      {
        "species": [{ "element": "Cl", "occu": 1 }],
        "abc": [0.43694172000000003, 0.56305828, 0.25180833],
        "properties": { "magmom": -0.0 },
        "label": "Cl",
        "xyz": [1.7390227182430942, 5.456362621450523, 1.5409774844014348]
      },
      {
        "species": [{ "element": "Cl", "occu": 1 }],
        "abc": [0.43694172000000003, 0.87388445, 0.25180833],
        "properties": { "magmom": -0.0 },
        "label": "Cl",
        "xyz": [-6.550909724900578e-6, 8.468449218370624, 1.5409774844014348]
      },
      {
        "species": [{ "element": "Cl", "occu": 1 }],
        "abc": [0.12611555, 0.56305828, 0.25180833],
        "properties": { "magmom": -0.0 },
        "label": "Cl",
        "xyz": [-1.7390351797606336, 5.456362627667047, 1.5409774844014348]
      },
      {
        "species": [{ "element": "Cl", "occu": 1 }],
        "abc": [0.87388445, 0.43694172000000003, 0.74819167],
        "properties": { "magmom": -0.0 },
        "label": "Cl",
        "xyz": [7.333894289760634, 4.234219702332954, 4.578667105598565]
      },
      {
        "species": [{ "element": "Cl", "occu": 1 }],
        "abc": [0.56305828, 0.12611555, 0.74819167],
        "properties": { "magmom": -0.0 },
        "label": "Cl",
        "xyz": [5.594865660909726, 1.2221331116293768, 4.578667105598565]
      },
      {
        "species": [{ "element": "Cl", "occu": 1 }],
        "abc": [0.56305828, 0.43694172000000003, 0.74819167],
        "properties": { "magmom": -0.0 },
        "label": "Cl",
        "xyz": [3.8558363917569065, 4.234219708549477, 4.578667105598565]
      },
      {
        "species": [{ "element": "Cl", "occu": 1 }],
        "abc": [0.77008559, 0.22991441, 0.28341221],
        "properties": { "magmom": -0.0 },
        "label": "Cl",
        "xyz": [7.330703138826305, 2.2280045081549518, 1.7343819976664439]
      },
      {
        "species": [{ "element": "Cl", "occu": 1 }],
        "abc": [0.77008559, 0.5401741800000001, 0.28341221],
        "properties": { "magmom": -0.0 },
        "label": "Cl",
        "xyz": [5.594842799040174, 5.234602359232012, 1.7343819976664439]
      },
      {
        "species": [{ "element": "Cl", "occu": 1 }],
        "abc": [0.45982582, 0.22991441, 0.28341221],
        "properties": { "magmom": -0.0 },
        "label": "Cl",
        "xyz": [3.8589830983891695, 2.2280045143601472, 1.7343819976664439]
      }
    ]
  },
  "task_ids": null,
  "uncorrected_energy_per_atom": null,
  "energy_per_atom": -18.335479623809526,
  "formation_energy_per_atom": -1.6416696223809542,
  "energy_above_hull": 0.0,
  "is_stable": true,
  "equilibrium_reaction_energy_per_atom": null,
  "decomposes_to": null,
  "xas": null,
  "grain_boundaries": null,
  "band_gap": 1.5811000000000002,
  "cbm": null,
  "vbm": null,
  "efermi": -1.8722823800000001,
  "is_gap_direct": null,
  "is_metal": null,
  "es_source_calc_id": null,
  "bandstructure": null,
  "dos": null,
  "dos_energy_up": null,
  "dos_energy_down": null,
  "is_magnetic": null,
  "ordering": null,
  "total_magnetization": 0.0,
  "total_magnetization_normalized_vol": null,
  "total_magnetization_normalized_formula_units": null,
  "num_magnetic_sites": null,
  "num_unique_magnetic_sites": null,
  "types_of_magnetic_species": null,
  "bulk_modulus": null,
  "shear_modulus": null,
  "universal_anisotropy": null,
  "homogeneous_poisson": null,
  "e_total": null,
  "e_ionic": null,
  "e_electronic": null,
  "n": null,
  "e_ij_max": null,
  "weighted_surface_energy_EV_PER_ANG2": null,
  "weighted_surface_energy": null,
  "weighted_work_function": null,
  "surface_anisotropy": null,
  "shape_factor": null,
  "has_reconstructed": null,
  "possible_species": null,
  "has_props": null,
  "theoretical": null,
  "database_IDs": null,
  "fields_not_requested": [
    "builder_meta",
    "nsites",
    "elements",
    "nelements",
    "composition",
    "composition_reduced",
    "chemsys",
    "symmetry",
    "property_name",
    "deprecated",
    "deprecation_reasons",
    "last_updated",
    "origins",
    "warnings",
    "task_ids",
    "uncorrected_energy_per_atom",
    "equilibrium_reaction_energy_per_atom",
    "decomposes_to",
    "xas",
    "grain_boundaries",
    "cbm",
    "vbm",
    "is_gap_direct",
    "is_metal",
    "es_source_calc_id",
    "bandstructure",
    "dos",
    "dos_energy_up",
    "dos_energy_down",
    "is_magnetic",
    "ordering",
    "total_magnetization_normalized_vol",
    "total_magnetization_normalized_formula_units",
    "num_magnetic_sites",
    "num_unique_magnetic_sites",
    "types_of_magnetic_species",
    "bulk_modulus",
    "shear_modulus",
    "universal_anisotropy",
    "homogeneous_poisson",
    "e_total",
    "e_ionic",
    "e_electronic",
    "n",
    "e_ij_max",
    "weighted_surface_energy_EV_PER_ANG2",
    "weighted_surface_energy",
    "weighted_work_function",
    "surface_anisotropy",
    "shape_factor",
    "has_reconstructed",
    "possible_species",
    "has_props",
    "theoretical",
    "database_IDs"
  ]
}
