{"builder_meta": null, "nsites": null, "elements": null, "nelements": null, "composition": null, "composition_reduced": null, "formula_pretty": "UCo2", "formula_anonymous": "AB2", "chemsys": null, "volume": 81.48287467971508, "density": 14.505576824388823, "density_atomic": 13.580479113285847, "symmetry": null, "property_name": null, "material_id": "mp-1383", "deprecated": null, "deprecation_reasons": null, "last_updated": null, "origins": null, "warnings": null, "structure": {"@module": "pymatgen.core.structure", "@class": "Structure", "charge": 0, "lattice": {"matrix": [[4.21430707, -9.869999999999999e-06, 2.43311562], [1.4047609300000001, 3.97325301, 2.43311563], [-4.129999999999998e-06, -2.069999999999999e-06, 4.86623745]], "pbc": [true, true, true], "a": 4.866254791997372, "b": 4.86622486336984, "c": 4.866237450002193, "alpha": 59.99999570453626, "beta": 60.000208728347815, "gamma": 60.00010807375181, "volume": 81.48287467971508}, "properties": {}, "sites": [{"species": [{"element": "U", "occu": 1}], "abc": [0.87500363, 0.87499812, 0.87500012], "properties": {"magmom": 1.599}, "label": "U", "xyz": [4.916693543233621, 3.4765784664982644, 8.51591495440081]}, {"species": [{"element": "U", "occu": 1}], "abc": [0.12499637000000001, 0.12500188, 0.12499988000000001], "properties": {"magmom": 1.599}, "label": "U", "xyz": [0.70237032676638, 0.49666260350173536, 1.2165537455991897]}, {"species": [{"element": "Co", "occu": 1}], "abc": [0.5, 0.5, 0.5], "properties": {"magmom": -0.428}, "label": "Co", "xyz": [2.8095319350000003, 1.9866205350000001, 4.86623435]}, {"species": [{"element": "Co", "occu": 1}], "abc": [0.5, 0.5, -0.0], "properties": {"magmom": -0.428}, "label": "Co", "xyz": [2.809534, 1.98662157, 2.433115625]}, {"species": [{"element": "Co", "occu": 1}], "abc": [-0.0, 0.5, 0.5], "properties": {"magmom": -0.428}, "label": "Co", "xyz": [0.7023784000000001, 1.9866254700000001, 3.6496765399999997]}, {"species": [{"element": "Co", "occu": 1}], "abc": [0.5, 0.0, 0.5], "properties": {"magmom": -0.428}, "label": "Co", "xyz": [2.1071514700000002, -5.969999999999999e-06, 3.649676535]}]}, "task_ids": null, "uncorrected_energy_per_atom": null, "energy_per_atom": -35.57918376666667, "formation_energy_per_atom": -0.10901747166667, "energy_above_hull": 0.0, "is_stable": true, "equilibrium_reaction_energy_per_atom": null, "decomposes_to": null, "xas": null, "grain_boundaries": null, "band_gap": 0.0, "cbm": null, "vbm": null, "efermi": 10.48357545, "is_gap_direct": null, "is_metal": null, "es_source_calc_id": null, "bandstructure": null, "dos": null, "dos_energy_up": null, "dos_energy_down": null, "is_magnetic": null, "ordering": null, "total_magnetization": 1.7010868000000001, "total_magnetization_normalized_vol": null, "total_magnetization_normalized_formula_units": null, "num_magnetic_sites": null, "num_unique_magnetic_sites": null, "types_of_magnetic_species": null, "bulk_modulus": null, "shear_modulus": null, "universal_anisotropy": null, "homogeneous_poisson": null, "e_total": null, "e_ionic": null, "e_electronic": null, "n": null, "e_ij_max": null, "weighted_surface_energy_EV_PER_ANG2": null, "weighted_surface_energy": null, "weighted_work_function": null, "surface_anisotropy": null, "shape_factor": null, "has_reconstructed": null, "possible_species": null, "has_props": null, "theoretical": null, "database_IDs": null, "fields_not_requested": ["builder_meta", "nsites", "elements", "nelements", "composition", "composition_reduced", "chemsys", "symmetry", "property_name", "deprecated", "deprecation_reasons", "last_updated", "origins", "warnings", "task_ids", "uncorrected_energy_per_atom", "equilibrium_reaction_energy_per_atom", "decomposes_to", "xas", "grain_boundaries", "cbm", "vbm", "is_gap_direct", "is_metal", "es_source_calc_id", "bandstructure", "dos", "dos_energy_up", "dos_energy_down", "is_magnetic", "ordering", "total_magnetization_normalized_vol", "total_magnetization_normalized_formula_units", "num_magnetic_sites", "num_unique_magnetic_sites", "types_of_magnetic_species", "bulk_modulus", "shear_modulus", "universal_anisotropy", "homogeneous_poisson", "e_total", "e_ionic", "e_electronic", "n", "e_ij_max", "weighted_surface_energy_EV_PER_ANG2", "weighted_surface_energy", "weighted_work_function", "surface_anisotropy", "shape_factor", "has_reconstructed", "possible_species", "has_props", "theoretical", "database_IDs"]}