{
  "builder_meta": null,
  "nsites": null,
  "elements": null,
  "nelements": null,
  "composition": null,
  "composition_reduced": null,
  "formula_pretty": "UCo3",
  "formula_anonymous": "AB3",
  "chemsys": null,
  "volume": 161.6953320882718,
  "density": 12.780311830715103,
  "density_atomic": 13.474611007355984,
  "symmetry": null,
  "property_name": null,
  "material_id": "mp-1102468",
  "deprecated": null,
  "deprecation_reasons": null,
  "last_updated": null,
  "origins": null,
  "warnings": null,
  "structure": {
    "@module": "pymatgen.core.structure",
    "@class": "Structure",
    "charge": 0,
    "lattice": {
      "matrix": [
        [-2.397345, -4.152323, 0.0],
        [-4.79469, 0.0, 0.0],
        [-2.397345, -1.384108, -8.121679]
      ],
      "pbc": [true, true, true],
      "a": 4.794689702718415,
      "b": 4.79469,
      "c": 8.5804829574873,
      "alpha": 73.77589354916442,
      "beta": 73.77589188617016,
      "gamma": 59.99999794898182,
      "volume": 161.6953320882718
    },
    "properties": {},
    "sites": [
      {
        "species": [{ "element": "U", "occu": 1 }],
        "abc": [0.859386, 0.859386, 0.421842999999999],
        "properties": { "magmom": 0.09 },
        "label": "U",
        "xyz": [-7.192037397344998, -4.152324524721998, -3.4260734343969923]
      },
      {
        "species": [{ "element": "U", "occu": 1 }],
        "abc": [0.140614, 0.140614, 0.578156999999999],
        "properties": { "magmom": 0.09 },
        "label": "U",
        "xyz": [-2.3973426026549975, -1.3841064752779986, -4.6956055656029925]
      },
      {
        "species": [{ "element": "U", "occu": 1 }],
        "abc": [0.0, 0.0, 0.0],
        "properties": { "magmom": 0.187 },
        "label": "U",
        "xyz": [0.0, 0.0, 0.0]
      },
      {
        "species": [{ "element": "Co", "occu": 1 }],
        "abc": [0.417294, 0.417294, 0.249242],
        "properties": { "magmom": -0.026000000000000002 },
        "label": "Co",
        "xyz": [-3.5987121157799997, -2.077717320098, -2.024263517318]
      },
      {
        "species": [{ "element": "Co", "occu": 1 }],
        "abc": [0.91617, 0.417294, 0.249242],
        "properties": { "magmom": -0.026000000000000002 },
        "label": "Co",
        "xyz": [-4.79469, -4.149211609046, -2.024263517318]
      },
      {
        "species": [{ "element": "Co", "occu": 1 }],
        "abc": [0.417294, 0.91617, 0.249242],
        "properties": { "magmom": -0.026000000000000002 },
        "label": "Co",
        "xyz": [-5.9906678842200005, -2.077717320098, -2.024263517318]
      },
      {
        "species": [{ "element": "Co", "occu": 1 }],
        "abc": [0.582706, 0.582706, 0.750757999999999],
        "properties": { "magmom": -0.026000000000000002 },
        "label": "Co",
        "xyz": [-5.990667884219998, -3.458713679901998, -6.097415482681993]
      },
      {
        "species": [{ "element": "Co", "occu": 1 }],
        "abc": [0.08383, 0.582706, 0.750757999999999],
        "properties": { "magmom": -0.026000000000000002 },
        "label": "Co",
        "xyz": [-4.7946899999999975, -1.3872193909539985, -6.097415482681993]
      },
      {
        "species": [{ "element": "Co", "occu": 1 }],
        "abc": [0.582706, 0.08383, 0.750757999999999],
        "properties": { "magmom": -0.026000000000000002 },
        "label": "Co",
        "xyz": [-3.5987121157799975, -3.458713679901998, -6.097415482681993]
      },
      {
        "species": [{ "element": "Co", "occu": 1 }],
        "abc": [0.666288, 0.666288, 0.001137],
        "properties": { "magmom": -0.093 },
        "label": "Co",
        "xyz": [-4.794692397345, -2.76821671782, -0.009234349023]
      },
      {
        "species": [{ "element": "Co", "occu": 1 }],
        "abc": [0.333712, 0.333712, 0.998863],
        "properties": { "magmom": -0.093 },
        "label": "Co",
        "xyz": [-4.794687602654999, -2.7682142821799998, -8.112444650977]
      },
      {
        "species": [{ "element": "Co", "occu": 1 }],
        "abc": [0.5, 0.5, 0.5],
        "properties": { "magmom": -0.001 },
        "label": "Co",
        "xyz": [-4.79469, -2.7682155, -4.0608395]
      }
    ]
  },
  "task_ids": null,
  "uncorrected_energy_per_atom": null,
  "energy_per_atom": -29.97178193916667,
  "formation_energy_per_atom": -0.060599435416672,
  "energy_above_hull": 0.021163668333329003,
  "is_stable": false,
  "equilibrium_reaction_energy_per_atom": null,
  "decomposes_to": null,
  "xas": null,
  "grain_boundaries": null,
  "band_gap": 0.0,
  "cbm": null,
  "vbm": null,
  "efermi": 8.90251534,
  "is_gap_direct": null,
  "is_metal": null,
  "es_source_calc_id": null,
  "bandstructure": null,
  "dos": null,
  "dos_energy_up": null,
  "dos_energy_down": null,
  "is_magnetic": null,
  "ordering": null,
  "total_magnetization": 0.1249281,
  "total_magnetization_normalized_vol": null,
  "total_magnetization_normalized_formula_units": null,
  "num_magnetic_sites": null,
  "num_unique_magnetic_sites": null,
  "types_of_magnetic_species": null,
  "bulk_modulus": null,
  "shear_modulus": null,
  "universal_anisotropy": null,
  "homogeneous_poisson": null,
  "e_total": null,
  "e_ionic": null,
  "e_electronic": null,
  "n": null,
  "e_ij_max": null,
  "weighted_surface_energy_EV_PER_ANG2": null,
  "weighted_surface_energy": null,
  "weighted_work_function": null,
  "surface_anisotropy": null,
  "shape_factor": null,
  "has_reconstructed": null,
  "possible_species": null,
  "has_props": null,
  "theoretical": null,
  "database_IDs": null,
  "fields_not_requested": [
    "builder_meta",
    "nsites",
    "elements",
    "nelements",
    "composition",
    "composition_reduced",
    "chemsys",
    "symmetry",
    "property_name",
    "deprecated",
    "deprecation_reasons",
    "last_updated",
    "origins",
    "warnings",
    "task_ids",
    "uncorrected_energy_per_atom",
    "equilibrium_reaction_energy_per_atom",
    "decomposes_to",
    "xas",
    "grain_boundaries",
    "cbm",
    "vbm",
    "is_gap_direct",
    "is_metal",
    "es_source_calc_id",
    "bandstructure",
    "dos",
    "dos_energy_up",
    "dos_energy_down",
    "is_magnetic",
    "ordering",
    "total_magnetization_normalized_vol",
    "total_magnetization_normalized_formula_units",
    "num_magnetic_sites",
    "num_unique_magnetic_sites",
    "types_of_magnetic_species",
    "bulk_modulus",
    "shear_modulus",
    "universal_anisotropy",
    "homogeneous_poisson",
    "e_total",
    "e_ionic",
    "e_electronic",
    "n",
    "e_ij_max",
    "weighted_surface_energy_EV_PER_ANG2",
    "weighted_surface_energy",
    "weighted_work_function",
    "surface_anisotropy",
    "shape_factor",
    "has_reconstructed",
    "possible_species",
    "has_props",
    "theoretical",
    "database_IDs"
  ]
}
