{
  "builder_meta": null,
  "nsites": null,
  "elements": null,
  "nelements": null,
  "composition": null,
  "composition_reduced": null,
  "formula_pretty": "UCo5",
  "formula_anonymous": "AB5",
  "chemsys": null,
  "volume": 234.72082034634883,
  "density": 11.305694984559823,
  "density_atomic": 13.040045574797157,
  "symmetry": null,
  "property_name": null,
  "material_id": "mp-510322",
  "deprecated": null,
  "deprecation_reasons": null,
  "last_updated": null,
  "origins": null,
  "warnings": null,
  "structure": {
    "@module": "pymatgen.core.structure",
    "@class": "Structure",
    "charge": 0,
    "lattice": {
      "matrix": [
        [12.031561, -2.380927, 0.0],
        [12.031561, 2.380927, 0.0],
        [11.560399, 0.0, 4.096883]
      ],
      "pbc": [true, true, true],
      "a": 12.264879676378811,
      "b": 12.264879676378811,
      "c": 12.26487975297312,
      "alpha": 22.38729685567629,
      "beta": 22.38729685567629,
      "gamma": 22.38729502240324,
      "volume": 234.72082034634883
    },
    "properties": {},
    "sites": [
      {
        "species": [{ "element": "U", "occu": 1 }],
        "abc": [0.0, 0.0, 0.0],
        "properties": { "magmom": 1.034 },
        "label": "U",
        "xyz": [0.0, 0.0, 0.0]
      },
      {
        "species": [{ "element": "U", "occu": 1 }],
        "abc": [0.099454, 0.099454, 0.099454],
        "properties": { "magmom": 0.854 },
        "label": "U",
        "xyz": [3.5429016575339998, 0.0, 0.407451401882]
      },
      {
        "species": [{ "element": "U", "occu": 1 }],
        "abc": [0.900546, 0.900546, 0.900546],
        "properties": { "magmom": 0.854 },
        "label": "U",
        "xyz": [32.080619342466, 0.0, 3.689431598118]
      },
      {
        "species": [{ "element": "Co", "occu": 1 }],
        "abc": [0.221463, 0.221463, 0.221463],
        "properties": { "magmom": -0.341 },
        "label": "Co",
        "xyz": [7.889291831223, 0.0, 0.907307999829]
      },
      {
        "species": [{ "element": "Co", "occu": 1 }],
        "abc": [0.778536999999999, 0.778536999999999, 0.778536999999999],
        "properties": { "magmom": -0.341 },
        "label": "Co",
        "xyz": [27.734229168776963, 0.0, 3.189575000170996]
      },
      {
        "species": [{ "element": "Co", "occu": 1 }],
        "abc": [0.332519, 0.332519, 0.332519],
        "properties": { "magmom": -1.021 },
        "label": "Co",
        "xyz": [11.845497579399002, 0.0, 1.362291438277]
      },
      {
        "species": [{ "element": "Co", "occu": 1 }],
        "abc": [0.667481, 0.667481, 0.667481],
        "properties": { "magmom": -1.021 },
        "label": "Co",
        "xyz": [23.778023420601, 0.0, 2.734591561723]
      },
      {
        "species": [{ "element": "Co", "occu": 1 }],
        "abc": [0.464033, 0.464033, 0.464033],
        "properties": { "magmom": 1.496 },
        "label": "Co",
        "xyz": [16.530489320193, 0.0, 1.901088909139]
      },
      {
        "species": [{ "element": "Co", "occu": 1 }],
        "abc": [0.535967, 0.535967, 0.535967],
        "properties": { "magmom": 1.496 },
        "label": "Co",
        "xyz": [19.093031679806998, 0.0, 2.195794090861]
      },
      {
        "species": [{ "element": "Co", "occu": 1 }],
        "abc": [0.0, 0.0, 0.5],
        "properties": { "magmom": 0.961 },
        "label": "Co",
        "xyz": [5.7801995, 0.0, 2.0484415]
      },
      {
        "species": [{ "element": "Co", "occu": 1 }],
        "abc": [0.0, 0.5, 0.0],
        "properties": { "magmom": 1.12 },
        "label": "Co",
        "xyz": [6.0157805, 1.1904635, 0.0]
      },
      {
        "species": [{ "element": "Co", "occu": 1 }],
        "abc": [0.5, 0.0, 0.0],
        "properties": { "magmom": 0.856 },
        "label": "Co",
        "xyz": [6.0157805, -1.1904635, 0.0]
      },
      {
        "species": [{ "element": "Co", "occu": 1 }],
        "abc": [0.062726, 0.554157999999999, 0.554157999999999],
        "properties": { "magmom": -0.336 },
        "label": "Co",
        "xyz": [13.828365064965977, 1.1700637174639976, 2.270320489513996]
      },
      {
        "species": [{ "element": "Co", "occu": 1 }],
        "abc": [0.554157999999999, 0.554157999999999, 0.062726],
        "properties": { "magmom": -0.353 },
        "label": "Co",
        "xyz": [14.059909148949977, 0.0, 0.256981083058]
      },
      {
        "species": [{ "element": "Co", "occu": 1 }],
        "abc": [0.554157999999999, 0.062726, 0.554157999999999],
        "properties": { "magmom": -0.387 },
        "label": "Co",
        "xyz": [13.828365064965977, -1.1700637174639976, 2.270320489513996]
      },
      {
        "species": [{ "element": "Co", "occu": 1 }],
        "abc": [0.445841999999999, 0.937273999999999, 0.445841999999999],
        "properties": { "magmom": -0.387 },
        "label": "Co",
        "xyz": [21.795155935033964, 1.1700637174639998, 1.826562510485996]
      },
      {
        "species": [{ "element": "Co", "occu": 1 }],
        "abc": [0.937273999999999, 0.445841999999999, 0.445841999999999],
        "properties": { "magmom": -0.336 },
        "label": "Co",
        "xyz": [21.795155935033964, -1.1700637174639998, 1.826562510485996]
      },
      {
        "species": [{ "element": "Co", "occu": 1 }],
        "abc": [0.445841999999999, 0.445841999999999, 0.937273999999999],
        "properties": { "magmom": -0.353 },
        "label": "Co",
        "xyz": [21.563611851049966, 0.0, 3.8399019169419963]
      }
    ]
  },
  "task_ids": null,
  "uncorrected_energy_per_atom": null,
  "energy_per_atom": -24.310247399444442,
  "formation_energy_per_atom": 0.041951313055556,
  "energy_above_hull": 0.09646004888888901,
  "is_stable": false,
  "equilibrium_reaction_energy_per_atom": null,
  "decomposes_to": null,
  "xas": null,
  "grain_boundaries": null,
  "band_gap": 0.0,
  "cbm": null,
  "vbm": null,
  "efermi": 7.46756455,
  "is_gap_direct": null,
  "is_metal": null,
  "es_source_calc_id": null,
  "bandstructure": null,
  "dos": null,
  "dos_energy_up": null,
  "dos_energy_down": null,
  "is_magnetic": null,
  "ordering": null,
  "total_magnetization": 5.0958882,
  "total_magnetization_normalized_vol": null,
  "total_magnetization_normalized_formula_units": null,
  "num_magnetic_sites": null,
  "num_unique_magnetic_sites": null,
  "types_of_magnetic_species": null,
  "bulk_modulus": null,
  "shear_modulus": null,
  "universal_anisotropy": null,
  "homogeneous_poisson": null,
  "e_total": null,
  "e_ionic": null,
  "e_electronic": null,
  "n": null,
  "e_ij_max": null,
  "weighted_surface_energy_EV_PER_ANG2": null,
  "weighted_surface_energy": null,
  "weighted_work_function": null,
  "surface_anisotropy": null,
  "shape_factor": null,
  "has_reconstructed": null,
  "possible_species": null,
  "has_props": null,
  "theoretical": null,
  "database_IDs": null,
  "fields_not_requested": [
    "builder_meta",
    "nsites",
    "elements",
    "nelements",
    "composition",
    "composition_reduced",
    "chemsys",
    "symmetry",
    "property_name",
    "deprecated",
    "deprecation_reasons",
    "last_updated",
    "origins",
    "warnings",
    "task_ids",
    "uncorrected_energy_per_atom",
    "equilibrium_reaction_energy_per_atom",
    "decomposes_to",
    "xas",
    "grain_boundaries",
    "cbm",
    "vbm",
    "is_gap_direct",
    "is_metal",
    "es_source_calc_id",
    "bandstructure",
    "dos",
    "dos_energy_up",
    "dos_energy_down",
    "is_magnetic",
    "ordering",
    "total_magnetization_normalized_vol",
    "total_magnetization_normalized_formula_units",
    "num_magnetic_sites",
    "num_unique_magnetic_sites",
    "types_of_magnetic_species",
    "bulk_modulus",
    "shear_modulus",
    "universal_anisotropy",
    "homogeneous_poisson",
    "e_total",
    "e_ionic",
    "e_electronic",
    "n",
    "e_ij_max",
    "weighted_surface_energy_EV_PER_ANG2",
    "weighted_surface_energy",
    "weighted_work_function",
    "surface_anisotropy",
    "shape_factor",
    "has_reconstructed",
    "possible_species",
    "has_props",
    "theoretical",
    "database_IDs"
  ]
}
