{"builder_meta": null, "nsites": null, "elements": null, "nelements": null, "composition": null, "composition_reduced": null, "formula_pretty": "UF3", "formula_anonymous": "AB3", "chemsys": null, "volume": 322.82086149908105, "density": 9.105342335872528, "density_atomic": 13.450869229128378, "symmetry": null, "property_name": null, "material_id": "mp-18299", "deprecated": null, "deprecation_reasons": null, "last_updated": null, "origins": null, "warnings": null, "structure": {"@module": "pymatgen.core.structure", "@class": "Structure", "charge": 0, "lattice": {"matrix": [[7.12852712, 0.00331235, -0.0], [-3.56139422, 6.16851739, -0.0], [-0.0, 0.0, 7.33946661]], "pbc": [true, true, true], "a": 7.128527889560229, "b": 7.122789873426129, "c": 7.33946661, "alpha": 90.0, "beta": 90.0, "gamma": 119.9733702188457, "volume": 322.82086149908105}, "properties": {}, "sites": [{"species": [{"element": "U", "occu": 1}], "abc": [0.32755516, 0.99914264, 0.74812838], "properties": {"magmom": 2.907}, "label": "U", "xyz": [-1.2233549816956013, 6.164313727264735, 5.490863265003392]}, {"species": [{"element": "U", "occu": 1}], "abc": [0.32755516, 0.32841252, 0.24812838], "properties": {"magmom": 2.907}, "label": "U", "xyz": [1.165379390852305, 2.0269033180479488, 1.821129960003392]}, {"species": [{"element": "U", "occu": 1}], "abc": [-0.0, 0.67529659, 0.25208081], "properties": {"magmom": -2.908}, "label": "U", "xyz": [-2.4049973724117097, 4.1655787588227, 1.8501386880167539]}, {"species": [{"element": "U", "occu": 1}], "abc": [0.0, 0.32470341, 0.75208081], "properties": {"magmom": -2.908}, "label": "U", "xyz": [-1.1563968475882902, 2.0029386311773, 5.519871993016754]}, {"species": [{"element": "U", "occu": 1}], "abc": [0.67244484, 0.67158748, 0.74812838], "properties": {"magmom": 2.907}, "label": "U", "xyz": [2.4017535091476954, 4.144926421952052, 5.490863265003392]}, {"species": [{"element": "U", "occu": 1}], "abc": [0.67244484, 0.00085736, 0.24812838], "properties": {"magmom": 2.907}, "label": "U", "xyz": [4.790487881695602, 0.0075160127352644004, 1.821129960003392]}, {"species": [{"element": "F", "occu": 1}], "abc": [0.63027878, 0.00568814, 0.9164792900000001], "properties": {"magmom": -0.003}, "label": "F", "xyz": [4.472701667471964, 0.0371750944236876, 6.726469147711507]}, {"species": [{"element": "F", "occu": 1}], "abc": [0.63027878, 0.62459165, 0.41647929], "properties": {"magmom": -0.003}, "label": "F", "xyz": [2.268542284220251, 3.8548921585907268, 3.0567358427115066]}, {"species": [{"element": "F", "occu": 1}], "abc": [-0.0, 0.37520918000000003, 0.41853788000000003], "properties": {"magmom": 0.0}, "label": "F", "xyz": [-1.3362678049429397, 2.3144843517176406, 3.071844795280187]}, {"species": [{"element": "F", "occu": 1}], "abc": [0.0, 0.62479082, 0.91853788], "properties": {"magmom": 0.0}, "label": "F", "xyz": [-2.22512641505706, 3.8540330382823593, 6.7415781002801864]}, {"species": [{"element": "F", "occu": 1}], "abc": [0.36972122, 0.37540835, 0.9164792900000001], "properties": {"magmom": -0.003}, "label": "F", "xyz": [1.2985906157797495, 2.3169375814092734, 6.726469147711507]}, {"species": [{"element": "F", "occu": 1}], "abc": [0.36972122, 0.99431186, 0.41647929], "properties": {"magmom": -0.003}, "label": "F", "xyz": [-0.905568767471963, 6.134654645576313, 3.0567358427115066]}, {"species": [{"element": "F", "occu": 1}], "abc": [-0.0, 0.00014413, 0.32570684], "properties": {"magmom": 0.004}, "label": "F", "xyz": [-0.0005133037489285999, 0.0008890684114206999, 2.390514476828612]}, {"species": [{"element": "F", "occu": 1}], "abc": [0.0, 0.99985587, 0.82570684], "properties": {"magmom": 0.004}, "label": "F", "xyz": [-3.560880916251071, 6.167628321588579, 6.060247781828613]}, {"species": [{"element": "F", "occu": 1}], "abc": [0.33517338, 0.66763623, 0.1979115], "properties": {"magmom": -0.005}, "label": "F", "xyz": [0.011576718647475115, 4.119435906494283, 1.452564845985015]}, {"species": [{"element": "F", "occu": 1}], "abc": [0.66482662, 0.33236377, 0.6979115], "properties": {"magmom": -0.005}, "label": "F", "xyz": [3.555556181352525, 2.0523938335057172, 5.1222981509850145]}, {"species": [{"element": "F", "occu": 1}], "abc": [0.33517338, 0.66753815, 0.6979115], "properties": {"magmom": -0.005}, "label": "F", "xyz": [0.011926020192572828, 4.118830898308672, 5.1222981509850145]}, {"species": [{"element": "F", "occu": 1}], "abc": [0.66482662, 0.33246185, 0.1979115], "properties": {"magmom": -0.005}, "label": "F", "xyz": [3.555206879807428, 2.0529988416913283, 1.452564845985015]}, {"species": [{"element": "F", "occu": 1}], "abc": [0.28118196, 0.00159767, 0.08065265], "properties": {"magmom": -0.001}, "label": "F", "xyz": [1.998723294811288, 0.010786628243687299, 0.5919474316830166]}, {"species": [{"element": "F", "occu": 1}], "abc": [0.28118196, 0.27958429, 0.58065265], "properties": {"magmom": -0.001}, "label": "F", "xyz": [1.0087033531059517, 1.7255519279010092, 4.261680736683016]}, {"species": [{"element": "F", "occu": 1}], "abc": [-0.0, 0.71811639, 0.5834328400000001], "properties": {"magmom": -0.002}, "label": "F", "xyz": [-2.557495560633266, 4.4297134397590225, 4.282085848357473]}, {"species": [{"element": "F", "occu": 1}], "abc": [0.0, 0.28188361, 0.08343284000000001], "properties": {"magmom": -0.002}, "label": "F", "xyz": [-1.0038986593667343, 1.738803950240978, 0.6123525433574725]}, {"species": [{"element": "F", "occu": 1}], "abc": [0.71881804, 0.72041571, 0.08065265], "properties": {"magmom": -0.001}, "label": "F", "xyz": [2.558429546894049, 4.446277812098991, 0.5919474316830166]}, {"species": [{"element": "F", "occu": 1}], "abc": [0.71881804, 0.99840233, 0.58065265], "properties": {"magmom": -0.001}, "label": "F", "xyz": [1.5684096051887124, 6.161043111756313, 4.261680736683016]}]}, "task_ids": null, "uncorrected_energy_per_atom": null, "energy_per_atom": -26.322647803333336, "formation_energy_per_atom": -3.992617684583336, "energy_above_hull": 0.0, "is_stable": true, "equilibrium_reaction_energy_per_atom": null, "decomposes_to": null, "xas": null, "grain_boundaries": null, "band_gap": 0.21550000000000002, "cbm": null, "vbm": null, "efermi": 8.35779678, "is_gap_direct": null, "is_metal": null, "es_source_calc_id": null, "bandstructure": null, "dos": null, "dos_energy_up": null, "dos_energy_down": null, "is_magnetic": null, "ordering": null, "total_magnetization": 6.0000001, "total_magnetization_normalized_vol": null, "total_magnetization_normalized_formula_units": null, "num_magnetic_sites": null, "num_unique_magnetic_sites": null, "types_of_magnetic_species": null, "bulk_modulus": null, "shear_modulus": null, "universal_anisotropy": null, "homogeneous_poisson": null, "e_total": null, "e_ionic": null, "e_electronic": null, "n": null, "e_ij_max": null, "weighted_surface_energy_EV_PER_ANG2": null, "weighted_surface_energy": null, "weighted_work_function": null, "surface_anisotropy": null, "shape_factor": null, "has_reconstructed": null, "possible_species": null, "has_props": null, "theoretical": null, "database_IDs": null, "fields_not_requested": ["builder_meta", "nsites", "elements", "nelements", "composition", "composition_reduced", "chemsys", "symmetry", "property_name", "deprecated", "deprecation_reasons", "last_updated", "origins", "warnings", "task_ids", "uncorrected_energy_per_atom", "equilibrium_reaction_energy_per_atom", "decomposes_to", "xas", "grain_boundaries", "cbm", "vbm", "is_gap_direct", "is_metal", "es_source_calc_id", "bandstructure", "dos", "dos_energy_up", "dos_energy_down", "is_magnetic", "ordering", "total_magnetization_normalized_vol", "total_magnetization_normalized_formula_units", "num_magnetic_sites", "num_unique_magnetic_sites", "types_of_magnetic_species", "bulk_modulus", "shear_modulus", "universal_anisotropy", "homogeneous_poisson", "e_total", "e_ionic", "e_electronic", "n", "e_ij_max", "weighted_surface_energy_EV_PER_ANG2", "weighted_surface_energy", "weighted_work_function", "surface_anisotropy", "shape_factor", "has_reconstructed", "possible_species", "has_props", "theoretical", "database_IDs"]}