{"builder_meta": null, "nsites": null, "elements": null, "nelements": null, "composition": null, "composition_reduced": null, "formula_pretty": "UF5", "formula_anonymous": "AB5", "chemsys": null, "volume": 92.1923369442343, "density": 5.9982670571937575, "density_atomic": 15.365389490705716, "symmetry": null, "property_name": null, "material_id": "mp-1852", "deprecated": null, "deprecation_reasons": null, "last_updated": null, "origins": null, "warnings": null, "structure": {"@module": "pymatgen.core.structure", "@class": "Structure", "charge": 0, "lattice": {"matrix": [[4.02918759, -0.0, 1.95387002], [2.08376053, 4.53372536, 0.83430241], [0.03552608, 0.15475685, 5.05808413]], "pbc": [true, true, true], "a": 4.477941568451381, "b": 5.0589311220479, "c": 5.060575743049396, "alpha": 78.74749671154669, "beta": 63.740716927551944, "gamma": 63.731526274176396, "volume": 92.1923369442343}, "properties": {}, "sites": [{"species": [{"element": "U", "occu": 1}], "abc": [0.0, 0.0, -0.0], "properties": {"magmom": 1.096}, "label": "U", "xyz": [0.0, 0.0, 0.0]}, {"species": [{"element": "F", "occu": 1}], "abc": [0.70636968, 0.17979516, 0.40746548], "properties": {"magmom": -0.028}, "label": "F", "xyz": [3.235221657741025, 0.8781999506657957, 3.5911527539941615]}, {"species": [{"element": "F", "occu": 1}], "abc": [0.5, 0.0, -0.0], "properties": {"magmom": -0.017}, "label": "F", "xyz": [2.014593795, 0.0, 0.97693501]}, {"species": [{"element": "F", "occu": 1}], "abc": [0.29363032, 0.82020484, 0.5925345200000001], "properties": {"magmom": -0.028}, "label": "F", "xyz": [2.913252542258976, 3.8102822593342043, 4.255103806005839]}, {"species": [{"element": "F", "occu": 1}], "abc": [0.88634435, 0.40734431, 0.81996798], "properties": {"magmom": -0.028}, "label": "F", "xyz": [4.44918589883962, 1.9736828901843646, 6.219117019140333]}, {"species": [{"element": "F", "occu": 1}], "abc": [0.11365565, 0.59265569, 0.18003202000000001], "properties": {"magmom": -0.028}, "label": "F", "xyz": [1.6992883011603808, 2.7147993198156355, 1.6271395408596687]}]}, "task_ids": null, "uncorrected_energy_per_atom": null, "energy_per_atom": -19.704575253333335, "formation_energy_per_atom": -3.775879190833334, "energy_above_hull": 0.0, "is_stable": true, "equilibrium_reaction_energy_per_atom": null, "decomposes_to": null, "xas": null, "grain_boundaries": null, "band_gap": 0.38660000000000005, "cbm": null, "vbm": null, "efermi": 0.807685, "is_gap_direct": null, "is_metal": null, "es_source_calc_id": null, "bandstructure": null, "dos": null, "dos_energy_up": null, "dos_energy_down": null, "is_magnetic": null, "ordering": null, "total_magnetization": 1.0, "total_magnetization_normalized_vol": null, "total_magnetization_normalized_formula_units": null, "num_magnetic_sites": null, "num_unique_magnetic_sites": null, "types_of_magnetic_species": null, "bulk_modulus": null, "shear_modulus": null, "universal_anisotropy": null, "homogeneous_poisson": null, "e_total": null, "e_ionic": null, "e_electronic": null, "n": null, "e_ij_max": null, "weighted_surface_energy_EV_PER_ANG2": null, "weighted_surface_energy": null, "weighted_work_function": null, "surface_anisotropy": null, "shape_factor": null, "has_reconstructed": null, "possible_species": null, "has_props": null, "theoretical": null, "database_IDs": null, "fields_not_requested": ["builder_meta", "nsites", "elements", "nelements", "composition", "composition_reduced", "chemsys", "symmetry", "property_name", "deprecated", "deprecation_reasons", "last_updated", "origins", "warnings", "task_ids", "uncorrected_energy_per_atom", "equilibrium_reaction_energy_per_atom", "decomposes_to", "xas", "grain_boundaries", "cbm", "vbm", "is_gap_direct", "is_metal", "es_source_calc_id", "bandstructure", "dos", "dos_energy_up", "dos_energy_down", "is_magnetic", "ordering", "total_magnetization_normalized_vol", "total_magnetization_normalized_formula_units", "num_magnetic_sites", "num_unique_magnetic_sites", "types_of_magnetic_species", "bulk_modulus", "shear_modulus", "universal_anisotropy", "homogeneous_poisson", "e_total", "e_ionic", "e_electronic", "n", "e_ij_max", "weighted_surface_energy_EV_PER_ANG2", "weighted_surface_energy", "weighted_work_function", "surface_anisotropy", "shape_factor", "has_reconstructed", "possible_species", "has_props", "theoretical", "database_IDs"]}