{
  "builder_meta": null,
  "nsites": null,
  "elements": null,
  "nelements": null,
  "composition": null,
  "composition_reduced": null,
  "formula_pretty": "UF6",
  "formula_anonymous": "AB6",
  "chemsys": null,
  "volume": 426.4443418001122,
  "density": 5.482936843457232,
  "density_atomic": 15.230155064289722,
  "symmetry": null,
  "property_name": null,
  "material_id": "mp-2275",
  "deprecated": null,
  "deprecation_reasons": null,
  "last_updated": null,
  "origins": null,
  "warnings": null,
  "structure": {
    "@module": "pymatgen.core.structure",
    "@class": "Structure",
    "charge": 0,
    "lattice": {
      "matrix": [
        [5.06730082, -0.0, 0.0],
        [0.0, 8.72881329, 0.0],
        [0.0, 0.0, 9.64118609]
      ],
      "pbc": [true, true, true],
      "a": 5.06730082,
      "b": 8.72881329,
      "c": 9.64118609,
      "alpha": 90.0,
      "beta": 90.0,
      "gamma": 90.0,
      "volume": 426.4443418001122
    },
    "properties": {},
    "sites": [
      {
        "species": [{ "element": "U", "occu": 1 }],
        "abc": [0.57541963, 0.75, 0.37106743000000003],
        "properties": { "magmom": 0.0 },
        "label": "U",
        "xyz": [2.915824362943096, 6.5466099675, 3.577530144568049]
      },
      {
        "species": [{ "element": "U", "occu": 1 }],
        "abc": [0.07541963, 0.25, 0.12893257],
        "properties": { "magmom": 0.0 },
        "label": "U",
        "xyz": [0.3821739529430966, 2.1822033225, 1.2430629004319513]
      },
      {
        "species": [{ "element": "U", "occu": 1 }],
        "abc": [0.42458037, 0.25, 0.62893257],
        "properties": { "magmom": 0.0 },
        "label": "U",
        "xyz": [2.151476457056903, 2.1822033225, 6.063655945431951]
      },
      {
        "species": [{ "element": "U", "occu": 1 }],
        "abc": [0.92458037, 0.75, 0.87106743],
        "properties": { "magmom": 0.0 },
        "label": "U",
        "xyz": [4.685126867056903, 6.5466099675, 8.398123189568048]
      },
      {
        "species": [{ "element": "F", "occu": 1 }],
        "abc": [0.5840470600000001, 0.41259815, 0.74998327],
        "properties": { "magmom": -0.0 },
        "label": "F",
        "xyz": [2.9595421460565894, 3.6014922151494133, 7.230728270456714]
      },
      {
        "species": [{ "element": "F", "occu": 1 }],
        "abc": [0.08404706, 0.58740185, 0.75001673],
        "properties": { "magmom": -0.0 },
        "label": "F",
        "xyz": [0.4258917360565892, 5.127321074850586, 7.231050864543286]
      },
      {
        "species": [{ "element": "F", "occu": 1 }],
        "abc": [0.41595294, 0.91259815, 0.25001673],
        "properties": { "magmom": -0.0 },
        "label": "F",
        "xyz": [2.107758673943411, 7.965898860149413, 2.4104578195432858]
      },
      {
        "species": [{ "element": "F", "occu": 1 }],
        "abc": [0.91595294, 0.08740185, 0.24998327],
        "properties": { "magmom": -0.0 },
        "label": "F",
        "xyz": [4.641409083943411, 0.7629144298505866, 2.410135225456714]
      },
      {
        "species": [{ "element": "F", "occu": 1 }],
        "abc": [0.25088975, 0.75, 0.98976936],
        "properties": { "magmom": 0.0 },
        "label": "F",
        "xyz": [1.2713338359045951, 6.5466099675, 9.542550585940203]
      },
      {
        "species": [{ "element": "F", "occu": 1 }],
        "abc": [0.75088975, 0.25, 0.51023064],
        "properties": { "magmom": 0.0 },
        "label": "F",
        "xyz": [3.804984245904595, 2.1822033225, 4.919228549059797]
      },
      {
        "species": [{ "element": "F", "occu": 1 }],
        "abc": [0.74911025, 0.25, 0.010230640000000001],
        "properties": { "magmom": 0.0 },
        "label": "F",
        "xyz": [3.7959669840954047, 2.1822033225, 0.09863550405979761]
      },
      {
        "species": [{ "element": "F", "occu": 1 }],
        "abc": [0.24911025, 0.75, 0.48976936],
        "properties": { "magmom": 0.0 },
        "label": "F",
        "xyz": [1.262316574095405, 6.5466099675, 4.721957540940202]
      },
      {
        "species": [{ "element": "F", "occu": 1 }],
        "abc": [0.59893262, 0.75, 0.7506307],
        "properties": { "magmom": 0.0 },
        "label": "F",
        "xyz": [3.0349717564507483, 6.5466099675, 7.236970263566962]
      },
      {
        "species": [{ "element": "F", "occu": 1 }],
        "abc": [0.09893262, 0.25, 0.7493693],
        "properties": { "magmom": 0.0 },
        "label": "F",
        "xyz": [0.5013213464507483, 2.1822033225, 7.224808871433037]
      },
      {
        "species": [{ "element": "F", "occu": 1 }],
        "abc": [0.40106738000000003, 0.25, 0.2493693],
        "properties": { "magmom": 0.0 },
        "label": "F",
        "xyz": [2.0323290635492515, 2.1822033225, 2.404215826433037]
      },
      {
        "species": [{ "element": "F", "occu": 1 }],
        "abc": [0.90106738, 0.75, 0.2506307],
        "properties": { "magmom": 0.0 },
        "label": "F",
        "xyz": [4.565979473549251, 6.5466099675, 2.416377218566963]
      },
      {
        "species": [{ "element": "F", "occu": 1 }],
        "abc": [0.76383673, 0.91154379, 0.99334155],
        "properties": { "magmom": 0.0 },
        "label": "F",
        "xyz": [3.870590488275118, 7.956695548568969, 9.57699073447904]
      },
      {
        "species": [{ "element": "F", "occu": 1 }],
        "abc": [0.26383673, 0.08845621000000001, 0.50665845],
        "properties": { "magmom": 0.0 },
        "label": "F",
        "xyz": [1.3369400782751186, 0.772117741431031, 4.88478840052096]
      },
      {
        "species": [{ "element": "F", "occu": 1 }],
        "abc": [0.23616327, 0.41154379, 0.00665845],
        "properties": { "magmom": 0.0 },
        "label": "F",
        "xyz": [1.1967103317248815, 3.5922889035689693, 0.06419535552096049]
      },
      {
        "species": [{ "element": "F", "occu": 1 }],
        "abc": [0.73616327, 0.58845621, 0.49334155],
        "properties": { "magmom": 0.0 },
        "label": "F",
        "xyz": [3.7303607417248816, 5.136524386431031, 4.75639768947904]
      },
      {
        "species": [{ "element": "F", "occu": 1 }],
        "abc": [0.23616327, 0.08845621000000001, 0.00665845],
        "properties": { "magmom": 0.0 },
        "label": "F",
        "xyz": [1.1967103317248815, 0.772117741431031, 0.06419535552096049]
      },
      {
        "species": [{ "element": "F", "occu": 1 }],
        "abc": [0.73616327, 0.91154379, 0.49334155],
        "properties": { "magmom": 0.0 },
        "label": "F",
        "xyz": [3.7303607417248816, 7.956695548568969, 4.75639768947904]
      },
      {
        "species": [{ "element": "F", "occu": 1 }],
        "abc": [0.76383673, 0.58845621, 0.99334155],
        "properties": { "magmom": 0.0 },
        "label": "F",
        "xyz": [3.870590488275118, 5.136524386431031, 9.57699073447904]
      },
      {
        "species": [{ "element": "F", "occu": 1 }],
        "abc": [0.26383673, 0.41154379, 0.50665845],
        "properties": { "magmom": 0.0 },
        "label": "F",
        "xyz": [1.3369400782751186, 3.5922889035689693, 4.88478840052096]
      },
      {
        "species": [{ "element": "F", "occu": 1 }],
        "abc": [0.08404706, 0.91259815, 0.75001673],
        "properties": { "magmom": -0.0 },
        "label": "F",
        "xyz": [0.4258917360565892, 7.965898860149413, 7.231050864543286]
      },
      {
        "species": [{ "element": "F", "occu": 1 }],
        "abc": [0.5840470600000001, 0.08740185, 0.74998327],
        "properties": { "magmom": -0.0 },
        "label": "F",
        "xyz": [2.9595421460565894, 0.7629144298505866, 7.230728270456714]
      },
      {
        "species": [{ "element": "F", "occu": 1 }],
        "abc": [0.91595294, 0.41259815, 0.24998327],
        "properties": { "magmom": -0.0 },
        "label": "F",
        "xyz": [4.641409083943411, 3.6014922151494133, 2.410135225456714]
      },
      {
        "species": [{ "element": "F", "occu": 1 }],
        "abc": [0.41595294, 0.58740185, 0.25001673],
        "properties": { "magmom": -0.0 },
        "label": "F",
        "xyz": [2.107758673943411, 5.127321074850586, 2.4104578195432858]
      }
    ]
  },
  "task_ids": null,
  "uncorrected_energy_per_atom": null,
  "energy_per_atom": -17.582200129642857,
  "formation_energy_per_atom": -3.482456654642856,
  "energy_above_hull": 0.0,
  "is_stable": true,
  "equilibrium_reaction_energy_per_atom": null,
  "decomposes_to": null,
  "xas": null,
  "grain_boundaries": null,
  "band_gap": 2.7943000000000002,
  "cbm": null,
  "vbm": null,
  "efermi": -3.2144765,
  "is_gap_direct": null,
  "is_metal": null,
  "es_source_calc_id": null,
  "bandstructure": null,
  "dos": null,
  "dos_energy_up": null,
  "dos_energy_down": null,
  "is_magnetic": null,
  "ordering": null,
  "total_magnetization": 0.0,
  "total_magnetization_normalized_vol": null,
  "total_magnetization_normalized_formula_units": null,
  "num_magnetic_sites": null,
  "num_unique_magnetic_sites": null,
  "types_of_magnetic_species": null,
  "bulk_modulus": null,
  "shear_modulus": null,
  "universal_anisotropy": null,
  "homogeneous_poisson": null,
  "e_total": null,
  "e_ionic": null,
  "e_electronic": null,
  "n": null,
  "e_ij_max": null,
  "weighted_surface_energy_EV_PER_ANG2": null,
  "weighted_surface_energy": null,
  "weighted_work_function": null,
  "surface_anisotropy": null,
  "shape_factor": null,
  "has_reconstructed": null,
  "possible_species": null,
  "has_props": null,
  "theoretical": null,
  "database_IDs": null,
  "fields_not_requested": [
    "builder_meta",
    "nsites",
    "elements",
    "nelements",
    "composition",
    "composition_reduced",
    "chemsys",
    "symmetry",
    "property_name",
    "deprecated",
    "deprecation_reasons",
    "last_updated",
    "origins",
    "warnings",
    "task_ids",
    "uncorrected_energy_per_atom",
    "equilibrium_reaction_energy_per_atom",
    "decomposes_to",
    "xas",
    "grain_boundaries",
    "cbm",
    "vbm",
    "is_gap_direct",
    "is_metal",
    "es_source_calc_id",
    "bandstructure",
    "dos",
    "dos_energy_up",
    "dos_energy_down",
    "is_magnetic",
    "ordering",
    "total_magnetization_normalized_vol",
    "total_magnetization_normalized_formula_units",
    "num_magnetic_sites",
    "num_unique_magnetic_sites",
    "types_of_magnetic_species",
    "bulk_modulus",
    "shear_modulus",
    "universal_anisotropy",
    "homogeneous_poisson",
    "e_total",
    "e_ionic",
    "e_electronic",
    "n",
    "e_ij_max",
    "weighted_surface_energy_EV_PER_ANG2",
    "weighted_surface_energy",
    "weighted_work_function",
    "surface_anisotropy",
    "shape_factor",
    "has_reconstructed",
    "possible_species",
    "has_props",
    "theoretical",
    "database_IDs"
  ]
}
