{
  "builder_meta": null,
  "nsites": null,
  "elements": null,
  "nelements": null,
  "composition": null,
  "composition_reduced": null,
  "formula_pretty": "UFe2",
  "formula_anonymous": "AB2",
  "chemsys": null,
  "volume": 90.13560253063899,
  "density": 12.885516845274758,
  "density_atomic": 15.022600421773165,
  "symmetry": null,
  "property_name": null,
  "material_id": "mp-21050",
  "deprecated": null,
  "deprecation_reasons": null,
  "last_updated": null,
  "origins": null,
  "warnings": null,
  "structure": {
    "@module": "pymatgen.core.structure",
    "@class": "Structure",
    "charge": 0,
    "lattice": {
      "matrix": [
        [4.35845255, -3.7730000000000006e-5, 2.51636683],
        [1.45280484, 4.10919604, 2.51630011],
        [-3.719999999999998e-6, -7.362e-5, 5.03272355]
      ],
      "pbc": [true, true, true],
      "a": 5.032714044643239,
      "b": 5.03268320499762,
      "c": 5.032723550539841,
      "alpha": 60.00134977919476,
      "beta": 59.999913416498195,
      "gamma": 60.000699187539766,
      "volume": 90.13560253063898
    },
    "properties": {},
    "sites": [
      {
        "species": [{ "element": "U", "occu": 1 }],
        "abc": [0.12502379, 0.12498152, 0.12501171],
        "properties": { "magmom": -2.719 },
        "label": "U",
        "xyz": [0.7264835484591601, 0.5135596465474939, 1.2582461075836235]
      },
      {
        "species": [{ "element": "U", "occu": 1 }],
        "abc": [0.87497621, 0.87501848, 0.87498829],
        "properties": { "magmom": -2.719 },
        "label": "U",
        "xyz": [5.08477012154084, 3.595525043452506, 8.807144382416377]
      },
      {
        "species": [{ "element": "Fe", "occu": 1 }],
        "abc": [0.5, -0.0, 0.5],
        "properties": { "magmom": 2.323 },
        "label": "Fe",
        "xyz": [2.179224415, -5.5675000000000005e-5, 3.77454519]
      },
      {
        "species": [{ "element": "Fe", "occu": 1 }],
        "abc": [0.0, 0.5, 0.5],
        "properties": { "magmom": 2.323 },
        "label": "Fe",
        "xyz": [0.72640056, 2.0545612099999997, 3.77451183]
      },
      {
        "species": [{ "element": "Fe", "occu": 1 }],
        "abc": [0.5, 0.5, 0.5],
        "properties": { "magmom": 2.323 },
        "label": "Fe",
        "xyz": [2.905626835, 2.0545423449999998, 5.032695245]
      },
      {
        "species": [{ "element": "Fe", "occu": 1 }],
        "abc": [0.5, 0.5, -0.0],
        "properties": { "magmom": 2.323 },
        "label": "Fe",
        "xyz": [2.905628695, 2.054579155, 2.51633347]
      }
    ]
  },
  "task_ids": null,
  "uncorrected_energy_per_atom": null,
  "energy_per_atom": -9.512258201666668,
  "formation_energy_per_atom": -0.101774058333332,
  "energy_above_hull": 0.0,
  "is_stable": true,
  "equilibrium_reaction_energy_per_atom": null,
  "decomposes_to": null,
  "xas": null,
  "grain_boundaries": null,
  "band_gap": 0.0,
  "cbm": null,
  "vbm": null,
  "efermi": 10.08120461,
  "is_gap_direct": null,
  "is_metal": null,
  "es_source_calc_id": null,
  "bandstructure": null,
  "dos": null,
  "dos_energy_up": null,
  "dos_energy_down": null,
  "is_magnetic": null,
  "ordering": null,
  "total_magnetization": 2.8930033,
  "total_magnetization_normalized_vol": null,
  "total_magnetization_normalized_formula_units": null,
  "num_magnetic_sites": null,
  "num_unique_magnetic_sites": null,
  "types_of_magnetic_species": null,
  "bulk_modulus": null,
  "shear_modulus": null,
  "universal_anisotropy": null,
  "homogeneous_poisson": null,
  "e_total": null,
  "e_ionic": null,
  "e_electronic": null,
  "n": null,
  "e_ij_max": null,
  "weighted_surface_energy_EV_PER_ANG2": null,
  "weighted_surface_energy": null,
  "weighted_work_function": null,
  "surface_anisotropy": null,
  "shape_factor": null,
  "has_reconstructed": null,
  "possible_species": null,
  "has_props": null,
  "theoretical": null,
  "database_IDs": null,
  "fields_not_requested": [
    "builder_meta",
    "nsites",
    "elements",
    "nelements",
    "composition",
    "composition_reduced",
    "chemsys",
    "symmetry",
    "property_name",
    "deprecated",
    "deprecation_reasons",
    "last_updated",
    "origins",
    "warnings",
    "task_ids",
    "uncorrected_energy_per_atom",
    "equilibrium_reaction_energy_per_atom",
    "decomposes_to",
    "xas",
    "grain_boundaries",
    "cbm",
    "vbm",
    "is_gap_direct",
    "is_metal",
    "es_source_calc_id",
    "bandstructure",
    "dos",
    "dos_energy_up",
    "dos_energy_down",
    "is_magnetic",
    "ordering",
    "total_magnetization_normalized_vol",
    "total_magnetization_normalized_formula_units",
    "num_magnetic_sites",
    "num_unique_magnetic_sites",
    "types_of_magnetic_species",
    "bulk_modulus",
    "shear_modulus",
    "universal_anisotropy",
    "homogeneous_poisson",
    "e_total",
    "e_ionic",
    "e_electronic",
    "n",
    "e_ij_max",
    "weighted_surface_energy_EV_PER_ANG2",
    "weighted_surface_energy",
    "weighted_work_function",
    "surface_anisotropy",
    "shape_factor",
    "has_reconstructed",
    "possible_species",
    "has_props",
    "theoretical",
    "database_IDs"
  ]
}
