{
  "builder_meta": null,
  "nsites": null,
  "elements": null,
  "nelements": null,
  "composition": null,
  "composition_reduced": null,
  "formula_pretty": "UH3",
  "formula_anonymous": "AB3",
  "chemsys": null,
  "volume": 296.4202660262788,
  "density": 10.80297189234951,
  "density_atomic": 9.263133313321212,
  "symmetry": null,
  "property_name": null,
  "material_id": "mp-504970",
  "deprecated": null,
  "deprecation_reasons": null,
  "last_updated": null,
  "origins": null,
  "warnings": null,
  "structure": {
    "@module": "pymatgen.core.structure",
    "@class": "Structure",
    "charge": 0,
    "lattice": {
      "matrix": [
        [6.66759631, 0.0, -0.0],
        [-0.0, 6.66759631, -0.0],
        [-0.0, -0.0, 6.66759631]
      ],
      "pbc": [true, true, true],
      "a": 6.66759631,
      "b": 6.66759631,
      "c": 6.66759631,
      "alpha": 90.0,
      "beta": 90.0,
      "gamma": 90.0,
      "volume": 296.4202660262788
    },
    "properties": {},
    "sites": [
      {
        "species": [{ "element": "U", "occu": 1 }],
        "abc": [0.0, 0.0, 0.0],
        "properties": { "magmom": 2.498 },
        "label": "U",
        "xyz": [0.0, 0.0, 0.0]
      },
      {
        "species": [{ "element": "U", "occu": 1 }],
        "abc": [0.5, 0.5, 0.5],
        "properties": { "magmom": 2.498 },
        "label": "U",
        "xyz": [3.333798155, 3.333798155, 3.333798155]
      },
      {
        "species": [{ "element": "U", "occu": 1 }],
        "abc": [0.25, 0.0, 0.5],
        "properties": { "magmom": 2.674 },
        "label": "U",
        "xyz": [1.6668990775, 0.0, 3.333798155]
      },
      {
        "species": [{ "element": "U", "occu": 1 }],
        "abc": [0.75, 0.0, 0.5],
        "properties": { "magmom": 2.674 },
        "label": "U",
        "xyz": [5.0006972325, 0.0, 3.333798155]
      },
      {
        "species": [{ "element": "U", "occu": 1 }],
        "abc": [0.0, 0.5, 0.25],
        "properties": { "magmom": 2.674 },
        "label": "U",
        "xyz": [0.0, 3.333798155, 1.6668990775]
      },
      {
        "species": [{ "element": "U", "occu": 1 }],
        "abc": [0.0, 0.5, 0.75],
        "properties": { "magmom": 2.674 },
        "label": "U",
        "xyz": [0.0, 3.333798155, 5.0006972325]
      },
      {
        "species": [{ "element": "U", "occu": 1 }],
        "abc": [0.5, 0.75, 0.0],
        "properties": { "magmom": 2.674 },
        "label": "U",
        "xyz": [3.333798155, 5.0006972325, 0.0]
      },
      {
        "species": [{ "element": "U", "occu": 1 }],
        "abc": [0.5, 0.25, 0.0],
        "properties": { "magmom": 2.674 },
        "label": "U",
        "xyz": [3.333798155, 1.6668990775, 0.0]
      },
      {
        "species": [{ "element": "H", "occu": 1 }],
        "abc": [0.0, 0.15513412000000001, 0.30405921],
        "properties": { "magmom": -0.016 },
        "label": "H",
        "xyz": [0.0, 1.0343716860670973, 2.0273440666175153]
      },
      {
        "species": [{ "element": "H", "occu": 1 }],
        "abc": [0.5, 0.19594079, 0.65513412],
        "properties": { "magmom": -0.016 },
        "label": "H",
        "xyz": [3.333798155, 1.3064540883824851, 4.368169841067098]
      },
      {
        "species": [{ "element": "H", "occu": 1 }],
        "abc": [0.5, 0.80405921, 0.34486588],
        "properties": { "magmom": -0.016 },
        "label": "H",
        "xyz": [3.333798155, 5.3611422216175155, 2.299426468932903]
      },
      {
        "species": [{ "element": "H", "occu": 1 }],
        "abc": [0.80405921, 0.65513412, 0.5],
        "properties": { "magmom": -0.016 },
        "label": "H",
        "xyz": [5.3611422216175155, 4.368169841067098, 3.333798155]
      },
      {
        "species": [{ "element": "H", "occu": 1 }],
        "abc": [0.19594079, 0.65513412, 0.5],
        "properties": { "magmom": -0.016 },
        "label": "H",
        "xyz": [1.3064540883824851, 4.368169841067098, 3.333798155]
      },
      {
        "species": [{ "element": "H", "occu": 1 }],
        "abc": [0.34486588, 0.5, 0.80405921],
        "properties": { "magmom": -0.016 },
        "label": "H",
        "xyz": [2.299426468932903, 3.333798155, 5.3611422216175155]
      },
      {
        "species": [{ "element": "H", "occu": 1 }],
        "abc": [0.65513412, 0.5, 0.80405921],
        "properties": { "magmom": -0.016 },
        "label": "H",
        "xyz": [4.368169841067098, 3.333798155, 5.3611422216175155]
      },
      {
        "species": [{ "element": "H", "occu": 1 }],
        "abc": [0.30405921, 0.0, 0.15513412000000001],
        "properties": { "magmom": -0.016 },
        "label": "H",
        "xyz": [2.0273440666175153, 0.0, 1.0343716860670973]
      },
      {
        "species": [{ "element": "H", "occu": 1 }],
        "abc": [0.15513412000000001, 0.30405921, 0.0],
        "properties": { "magmom": -0.016 },
        "label": "H",
        "xyz": [1.0343716860670973, 2.0273440666175153, 0.0]
      },
      {
        "species": [{ "element": "H", "occu": 1 }],
        "abc": [0.8448658800000001, 0.69594079, 0.0],
        "properties": { "magmom": -0.016 },
        "label": "H",
        "xyz": [5.633224623932904, 4.640252243382485, 0.0]
      },
      {
        "species": [{ "element": "H", "occu": 1 }],
        "abc": [0.30405921, 0.0, 0.8448658800000001],
        "properties": { "magmom": -0.016 },
        "label": "H",
        "xyz": [2.0273440666175153, 0.0, 5.633224623932904]
      },
      {
        "species": [{ "element": "H", "occu": 1 }],
        "abc": [0.8448658800000001, 0.30405921, 0.0],
        "properties": { "magmom": -0.016 },
        "label": "H",
        "xyz": [5.633224623932904, 2.0273440666175153, 0.0]
      },
      {
        "species": [{ "element": "H", "occu": 1 }],
        "abc": [0.69594079, 0.0, 0.15513412000000001],
        "properties": { "magmom": -0.016 },
        "label": "H",
        "xyz": [4.640252243382485, 0.0, 1.0343716860670973]
      },
      {
        "species": [{ "element": "H", "occu": 1 }],
        "abc": [0.69594079, 0.0, 0.8448658800000001],
        "properties": { "magmom": -0.016 },
        "label": "H",
        "xyz": [4.640252243382485, 0.0, 5.633224623932904]
      },
      {
        "species": [{ "element": "H", "occu": 1 }],
        "abc": [0.15513412000000001, 0.69594079, 0.0],
        "properties": { "magmom": -0.016 },
        "label": "H",
        "xyz": [1.0343716860670973, 4.640252243382485, 0.0]
      },
      {
        "species": [{ "element": "H", "occu": 1 }],
        "abc": [0.0, 0.8448658800000001, 0.69594079],
        "properties": { "magmom": -0.016 },
        "label": "H",
        "xyz": [0.0, 5.633224623932904, 4.640252243382485]
      },
      {
        "species": [{ "element": "H", "occu": 1 }],
        "abc": [0.0, 0.15513412000000001, 0.69594079],
        "properties": { "magmom": -0.016 },
        "label": "H",
        "xyz": [0.0, 1.0343716860670973, 4.640252243382485]
      },
      {
        "species": [{ "element": "H", "occu": 1 }],
        "abc": [0.0, 0.8448658800000001, 0.30405921],
        "properties": { "magmom": -0.016 },
        "label": "H",
        "xyz": [0.0, 5.633224623932904, 2.0273440666175153]
      },
      {
        "species": [{ "element": "H", "occu": 1 }],
        "abc": [0.65513412, 0.5, 0.19594079],
        "properties": { "magmom": -0.016 },
        "label": "H",
        "xyz": [4.368169841067098, 3.333798155, 1.3064540883824851]
      },
      {
        "species": [{ "element": "H", "occu": 1 }],
        "abc": [0.34486588, 0.5, 0.19594079],
        "properties": { "magmom": -0.016 },
        "label": "H",
        "xyz": [2.299426468932903, 3.333798155, 1.3064540883824851]
      },
      {
        "species": [{ "element": "H", "occu": 1 }],
        "abc": [0.80405921, 0.34486588, 0.5],
        "properties": { "magmom": -0.016 },
        "label": "H",
        "xyz": [5.3611422216175155, 2.299426468932903, 3.333798155]
      },
      {
        "species": [{ "element": "H", "occu": 1 }],
        "abc": [0.19594079, 0.34486588, 0.5],
        "properties": { "magmom": -0.016 },
        "label": "H",
        "xyz": [1.3064540883824851, 2.299426468932903, 3.333798155]
      },
      {
        "species": [{ "element": "H", "occu": 1 }],
        "abc": [0.5, 0.80405921, 0.65513412],
        "properties": { "magmom": -0.016 },
        "label": "H",
        "xyz": [3.333798155, 5.3611422216175155, 4.368169841067098]
      },
      {
        "species": [{ "element": "H", "occu": 1 }],
        "abc": [0.5, 0.19594079, 0.34486588],
        "properties": { "magmom": -0.016 },
        "label": "H",
        "xyz": [3.333798155, 1.3064540883824851, 2.299426468932903]
      }
    ]
  },
  "task_ids": null,
  "uncorrected_energy_per_atom": null,
  "energy_per_atom": -23.0385052078125,
  "formation_energy_per_atom": -0.46166175062499804,
  "energy_above_hull": 0.0,
  "is_stable": true,
  "equilibrium_reaction_energy_per_atom": null,
  "decomposes_to": null,
  "xas": null,
  "grain_boundaries": null,
  "band_gap": 0.0,
  "cbm": null,
  "vbm": null,
  "efermi": 9.02898054,
  "is_gap_direct": null,
  "is_metal": null,
  "es_source_calc_id": null,
  "bandstructure": null,
  "dos": null,
  "dos_energy_up": null,
  "dos_energy_down": null,
  "is_magnetic": null,
  "ordering": null,
  "total_magnetization": 23.4055513,
  "total_magnetization_normalized_vol": null,
  "total_magnetization_normalized_formula_units": null,
  "num_magnetic_sites": null,
  "num_unique_magnetic_sites": null,
  "types_of_magnetic_species": null,
  "bulk_modulus": null,
  "shear_modulus": null,
  "universal_anisotropy": null,
  "homogeneous_poisson": null,
  "e_total": null,
  "e_ionic": null,
  "e_electronic": null,
  "n": null,
  "e_ij_max": null,
  "weighted_surface_energy_EV_PER_ANG2": null,
  "weighted_surface_energy": null,
  "weighted_work_function": null,
  "surface_anisotropy": null,
  "shape_factor": null,
  "has_reconstructed": null,
  "possible_species": null,
  "has_props": null,
  "theoretical": null,
  "database_IDs": null,
  "fields_not_requested": [
    "builder_meta",
    "nsites",
    "elements",
    "nelements",
    "composition",
    "composition_reduced",
    "chemsys",
    "symmetry",
    "property_name",
    "deprecated",
    "deprecation_reasons",
    "last_updated",
    "origins",
    "warnings",
    "task_ids",
    "uncorrected_energy_per_atom",
    "equilibrium_reaction_energy_per_atom",
    "decomposes_to",
    "xas",
    "grain_boundaries",
    "cbm",
    "vbm",
    "is_gap_direct",
    "is_metal",
    "es_source_calc_id",
    "bandstructure",
    "dos",
    "dos_energy_up",
    "dos_energy_down",
    "is_magnetic",
    "ordering",
    "total_magnetization_normalized_vol",
    "total_magnetization_normalized_formula_units",
    "num_magnetic_sites",
    "num_unique_magnetic_sites",
    "types_of_magnetic_species",
    "bulk_modulus",
    "shear_modulus",
    "universal_anisotropy",
    "homogeneous_poisson",
    "e_total",
    "e_ionic",
    "e_electronic",
    "n",
    "e_ij_max",
    "weighted_surface_energy_EV_PER_ANG2",
    "weighted_surface_energy",
    "weighted_work_function",
    "surface_anisotropy",
    "shape_factor",
    "has_reconstructed",
    "possible_species",
    "has_props",
    "theoretical",
    "database_IDs"
  ]
}
