{
  "builder_meta": null,
  "nsites": null,
  "elements": null,
  "nelements": null,
  "composition": null,
  "composition_reduced": null,
  "formula_pretty": "UHg3",
  "formula_anonymous": "AB3",
  "chemsys": null,
  "volume": 94.85980780449255,
  "density": 14.700840434098506,
  "density_atomic": 23.714951951123137,
  "symmetry": null,
  "property_name": null,
  "material_id": "mp-1216624",
  "deprecated": null,
  "deprecation_reasons": null,
  "last_updated": null,
  "origins": null,
  "warnings": null,
  "structure": {
    "@module": "pymatgen.core.structure",
    "@class": "Structure",
    "charge": 0,
    "lattice": {
      "matrix": [
        [1.587416999999999, -2.7494870000000002, 0.0],
        [1.587416999999999, 2.7494870000000002, 0.0],
        [0.0, 0.0, 10.866997]
      ],
      "pbc": [true, true, true],
      "a": 3.174834089375065,
      "b": 3.174834089375065,
      "c": 10.866997,
      "alpha": 90.0,
      "beta": 90.0,
      "gamma": 120.00000186246167,
      "volume": 94.85980780449249
    },
    "properties": {},
    "sites": [
      {
        "species": [{ "element": "U", "occu": 1 }],
        "abc": [0.333333, 0.666667, 0.5],
        "properties": { "magmom": 2.157 },
        "label": "U",
        "xyz": [1.587416999999999, 0.9164974996580001, 5.4334985]
      },
      {
        "species": [{ "element": "Hg", "occu": 1 }],
        "abc": [0.333333, 0.666667, 0.0],
        "properties": { "magmom": -0.011 },
        "label": "Hg",
        "xyz": [1.587416999999999, 0.9164974996580001, 0.0]
      },
      {
        "species": [{ "element": "Hg", "occu": 1 }],
        "abc": [0.0, 0.0, 0.752319],
        "properties": { "magmom": -0.005 },
        "label": "Hg",
        "xyz": [0.0, 0.0, 8.175448316043]
      },
      {
        "species": [{ "element": "Hg", "occu": 1 }],
        "abc": [0.0, 0.0, 0.247680999999999],
        "properties": { "magmom": -0.005 },
        "label": "Hg",
        "xyz": [0.0, 0.0, 2.6915486839569893]
      }
    ]
  },
  "task_ids": null,
  "uncorrected_energy_per_atom": null,
  "energy_per_atom": -56.852077316875004,
  "formation_energy_per_atom": 0.159286731249999,
  "energy_above_hull": 0.159286731249999,
  "is_stable": false,
  "equilibrium_reaction_energy_per_atom": null,
  "decomposes_to": null,
  "xas": null,
  "grain_boundaries": null,
  "band_gap": 0.0,
  "cbm": null,
  "vbm": null,
  "efermi": 5.4518508,
  "is_gap_direct": null,
  "is_metal": null,
  "es_source_calc_id": null,
  "bandstructure": null,
  "dos": null,
  "dos_energy_up": null,
  "dos_energy_down": null,
  "is_magnetic": null,
  "ordering": null,
  "total_magnetization": 2.3487587,
  "total_magnetization_normalized_vol": null,
  "total_magnetization_normalized_formula_units": null,
  "num_magnetic_sites": null,
  "num_unique_magnetic_sites": null,
  "types_of_magnetic_species": null,
  "bulk_modulus": null,
  "shear_modulus": null,
  "universal_anisotropy": null,
  "homogeneous_poisson": null,
  "e_total": null,
  "e_ionic": null,
  "e_electronic": null,
  "n": null,
  "e_ij_max": null,
  "weighted_surface_energy_EV_PER_ANG2": null,
  "weighted_surface_energy": null,
  "weighted_work_function": null,
  "surface_anisotropy": null,
  "shape_factor": null,
  "has_reconstructed": null,
  "possible_species": null,
  "has_props": null,
  "theoretical": null,
  "database_IDs": null,
  "fields_not_requested": [
    "builder_meta",
    "nsites",
    "elements",
    "nelements",
    "composition",
    "composition_reduced",
    "chemsys",
    "symmetry",
    "property_name",
    "deprecated",
    "deprecation_reasons",
    "last_updated",
    "origins",
    "warnings",
    "task_ids",
    "uncorrected_energy_per_atom",
    "equilibrium_reaction_energy_per_atom",
    "decomposes_to",
    "xas",
    "grain_boundaries",
    "cbm",
    "vbm",
    "is_gap_direct",
    "is_metal",
    "es_source_calc_id",
    "bandstructure",
    "dos",
    "dos_energy_up",
    "dos_energy_down",
    "is_magnetic",
    "ordering",
    "total_magnetization_normalized_vol",
    "total_magnetization_normalized_formula_units",
    "num_magnetic_sites",
    "num_unique_magnetic_sites",
    "types_of_magnetic_species",
    "bulk_modulus",
    "shear_modulus",
    "universal_anisotropy",
    "homogeneous_poisson",
    "e_total",
    "e_ionic",
    "e_electronic",
    "n",
    "e_ij_max",
    "weighted_surface_energy_EV_PER_ANG2",
    "weighted_surface_energy",
    "weighted_work_function",
    "surface_anisotropy",
    "shape_factor",
    "has_reconstructed",
    "possible_species",
    "has_props",
    "theoretical",
    "database_IDs"
  ]
}
