{"builder_meta": null, "nsites": null, "elements": null, "nelements": null, "composition": null, "composition_reduced": null, "formula_pretty": "UI3", "formula_anonymous": "AB3", "chemsys": null, "volume": 321.3612412430007, "density": 6.394335487034072, "density_atomic": 40.170155155375085, "symmetry": null, "property_name": null, "material_id": "mp-23244", "deprecated": null, "deprecation_reasons": null, "last_updated": null, "origins": null, "warnings": null, "structure": {"@module": "pymatgen.core.structure", "@class": "Structure", "charge": 0, "lattice": {"matrix": [[4.3396029, 0.0, -0.0], [-2.16979983, 7.33347859, -0.0], [0.0, 0.0, 10.09795607]], "pbc": [true, true, true], "a": 4.3396029, "b": 7.64774081230898, "c": 10.09795607, "alpha": 90.0, "beta": 90.0, "gamma": 106.48221768861573, "volume": 321.3612412430007}, "properties": {}, "sites": [{"species": [{"element": "U", "occu": 1}], "abc": [0.7389816, 0.4779612, 0.25], "properties": {"magmom": 2.898}, "label": "U", "xyz": [2.1698065639000443, 3.505118227050708, 2.5244890175]}, {"species": [{"element": "U", "occu": 1}], "abc": [0.2610184, 0.5220388, 0.75], "properties": {"magmom": 2.898}, "label": "U", "xyz": [-3.493900044171383e-06, 3.8283603629492924, 7.5734670525]}, {"species": [{"element": "I", "occu": 1}], "abc": [0.34974556, 0.69949111, 0.43199087], "properties": {"magmom": -0.028}, "label": "I", "xyz": [1.1548736127409143e-06, 5.129703079080335, 4.362224827901081]}, {"species": [{"element": "I", "occu": 1}], "abc": [0.65025444, 0.30050889000000003, 0.56800913], "properties": {"magmom": -0.028}, "label": "I", "xyz": [2.169801915126387, 2.2037755109196655, 5.735731242098919]}, {"species": [{"element": "I", "occu": 1}], "abc": [0.91721937, 0.83443875, 0.75], "properties": {"magmom": -0.031}, "label": "I", "xyz": [2.16980278009276, 6.119338707791363, 7.5734670525]}, {"species": [{"element": "I", "occu": 1}], "abc": [0.08278063000000001, 0.16556125, 0.25], "properties": {"magmom": -0.031}, "label": "I", "xyz": [2.899072395479152e-07, 1.2141398822086376, 2.5244890175]}, {"species": [{"element": "I", "occu": 1}], "abc": [0.34974556, 0.69949111, 0.06800913], "properties": {"magmom": -0.028}, "label": "I", "xyz": [1.1548736127409143e-06, 5.129703079080335, 0.6867532070989192]}, {"species": [{"element": "I", "occu": 1}], "abc": [0.65025444, 0.30050889000000003, 0.93199087], "properties": {"magmom": -0.028}, "label": "I", "xyz": [2.169801915126387, 2.2037755109196655, 9.411202862901082]}]}, "task_ids": null, "uncorrected_energy_per_atom": null, "energy_per_atom": -5.107738313749998, "formation_energy_per_atom": -1.141876349999996, "energy_above_hull": 0.0, "is_stable": true, "equilibrium_reaction_energy_per_atom": null, "decomposes_to": null, "xas": null, "grain_boundaries": null, "band_gap": 0.0, "cbm": null, "vbm": null, "efermi": 5.18058503, "is_gap_direct": null, "is_metal": null, "es_source_calc_id": null, "bandstructure": null, "dos": null, "dos_energy_up": null, "dos_energy_down": null, "is_magnetic": null, "ordering": null, "total_magnetization": 5.9999998, "total_magnetization_normalized_vol": null, "total_magnetization_normalized_formula_units": null, "num_magnetic_sites": null, "num_unique_magnetic_sites": null, "types_of_magnetic_species": null, "bulk_modulus": null, "shear_modulus": null, "universal_anisotropy": null, "homogeneous_poisson": null, "e_total": null, "e_ionic": null, "e_electronic": null, "n": null, "e_ij_max": null, "weighted_surface_energy_EV_PER_ANG2": null, "weighted_surface_energy": null, "weighted_work_function": null, "surface_anisotropy": null, "shape_factor": null, "has_reconstructed": null, "possible_species": null, "has_props": null, "theoretical": null, "database_IDs": null, "fields_not_requested": ["builder_meta", "nsites", "elements", "nelements", "composition", "composition_reduced", "chemsys", "symmetry", "property_name", "deprecated", "deprecation_reasons", "last_updated", "origins", "warnings", "task_ids", "uncorrected_energy_per_atom", "equilibrium_reaction_energy_per_atom", "decomposes_to", "xas", "grain_boundaries", "cbm", "vbm", "is_gap_direct", "is_metal", "es_source_calc_id", "bandstructure", "dos", "dos_energy_up", "dos_energy_down", "is_magnetic", "ordering", "total_magnetization_normalized_vol", "total_magnetization_normalized_formula_units", "num_magnetic_sites", "num_unique_magnetic_sites", "types_of_magnetic_species", "bulk_modulus", "shear_modulus", "universal_anisotropy", "homogeneous_poisson", "e_total", "e_ionic", "e_electronic", "n", "e_ij_max", "weighted_surface_energy_EV_PER_ANG2", "weighted_surface_energy", "weighted_work_function", "surface_anisotropy", "shape_factor", "has_reconstructed", "possible_species", "has_props", "theoretical", "database_IDs"]}