{
  "builder_meta": null,
  "nsites": null,
  "elements": null,
  "nelements": null,
  "composition": null,
  "composition_reduced": null,
  "formula_pretty": "UI4",
  "formula_anonymous": "AB4",
  "chemsys": null,
  "volume": 479.20729171194193,
  "density": 5.167599266933403,
  "density_atomic": 47.920729171194196,
  "symmetry": null,
  "property_name": null,
  "material_id": "mp-655360",
  "deprecated": null,
  "deprecation_reasons": null,
  "last_updated": null,
  "origins": null,
  "warnings": null,
  "structure": {
    "@module": "pymatgen.core.structure",
    "@class": "Structure",
    "charge": 0,
    "lattice": {
      "matrix": [
        [7.67130036, -0.38168858, -0.56472033],
        [0.75423445, 7.24966487, 4.15105609],
        [0.66975321, -0.35188218, 8.3390443]
      ],
      "pbc": [true, true, true],
      "a": 7.701522215546343,
      "b": 8.387954279513272,
      "c": 8.373293872083394,
      "alpha": 62.37196039849174,
      "beta": 89.49981291566013,
      "gamma": 89.40161294689095,
      "volume": 479.20729171194193
    },
    "properties": {},
    "sites": [
      {
        "species": [{ "element": "U", "occu": 1 }],
        "abc": [0.25022872, 0.8553983, 0.14471018],
        "properties": { "magmom": 0.037 },
        "label": "U",
        "xyz": [2.6616706437244524, 6.0549206269491105, 4.616241678937743]
      },
      {
        "species": [{ "element": "U", "occu": 1 }],
        "abc": [0.74977128, 0.1446017, 0.85528982],
        "properties": { "magmom": 0.037 },
        "label": "U",
        "xyz": [6.4336173762755475, 0.4611734830508889, 7.309138381062256]
      },
      {
        "species": [{ "element": "I", "occu": 1 }],
        "abc": [0.58124172, 0.00140326, 0.23597067],
        "properties": { "magmom": -0.01 },
        "label": "I",
        "xyz": [4.617980316615676, -0.294714035793742, 1.6453558656713665]
      },
      {
        "species": [{ "element": "I", "occu": 1 }],
        "abc": [0.07981644, 0.23470509, 0.00372706],
        "properties": { "magmom": -0.01 },
        "label": "I",
        "xyz": [0.7918147597731315, 1.6697567361411425, 0.960280145311031]
      },
      {
        "species": [{ "element": "I", "occu": 1 }],
        "abc": [0.10504724, 0.75596675, 0.49637177],
        "properties": { "magmom": -0.003 },
        "label": "I",
        "xyz": [1.7084716822444257, 5.265745877976495, 7.218004248686029]
      },
      {
        "species": [{ "element": "I", "occu": 1 }],
        "abc": [0.89495276, 0.24403325, 0.50362823],
        "properties": { "magmom": -0.003 },
        "label": "I",
        "xyz": [7.386816337755574, 1.2503482320235055, 4.7073758113139705]
      },
      {
        "species": [{ "element": "I", "occu": 1 }],
        "abc": [0.60633124, 0.49566116, 0.7591116],
        "properties": { "magmom": -0.003 },
        "label": "I",
        "xyz": [5.533611212938445, 3.094829744398922, 8.045374959896234]
      },
      {
        "species": [{ "element": "I", "occu": 1 }],
        "abc": [0.41875828, -0.00140326, 0.7640293300000001],
        "properties": { "magmom": -0.01 },
        "label": "I",
        "xyz": [3.723073253384323, -0.438856724206258, 6.128968104328633]
      },
      {
        "species": [{ "element": "I", "occu": 1 }],
        "abc": [0.39366876, 0.5043388400000001, 0.2408884],
        "properties": { "magmom": -0.003 },
        "label": "I",
        "xyz": [3.5616768070615556, 3.4212643656010786, 3.880005100103765]
      },
      {
        "species": [{ "element": "I", "occu": 1 }],
        "abc": [0.92018356, 0.76529491, 0.99627294],
        "properties": { "magmom": -0.01 },
        "label": "I",
        "xyz": [8.30347326022687, 4.846337373858859, 10.965099914688968]
      }
    ]
  },
  "task_ids": null,
  "uncorrected_energy_per_atom": null,
  "energy_per_atom": -4.627500585000002,
  "formation_energy_per_atom": -1.150008491,
  "energy_above_hull": 0.0,
  "is_stable": true,
  "equilibrium_reaction_energy_per_atom": null,
  "decomposes_to": null,
  "xas": null,
  "grain_boundaries": null,
  "band_gap": 0.26529999999999904,
  "cbm": null,
  "vbm": null,
  "efermi": 2.44066815,
  "is_gap_direct": null,
  "is_metal": null,
  "es_source_calc_id": null,
  "bandstructure": null,
  "dos": null,
  "dos_energy_up": null,
  "dos_energy_down": null,
  "is_magnetic": null,
  "ordering": null,
  "total_magnetization": 0.0,
  "total_magnetization_normalized_vol": null,
  "total_magnetization_normalized_formula_units": null,
  "num_magnetic_sites": null,
  "num_unique_magnetic_sites": null,
  "types_of_magnetic_species": null,
  "bulk_modulus": null,
  "shear_modulus": null,
  "universal_anisotropy": null,
  "homogeneous_poisson": null,
  "e_total": null,
  "e_ionic": null,
  "e_electronic": null,
  "n": null,
  "e_ij_max": null,
  "weighted_surface_energy_EV_PER_ANG2": null,
  "weighted_surface_energy": null,
  "weighted_work_function": null,
  "surface_anisotropy": null,
  "shape_factor": null,
  "has_reconstructed": null,
  "possible_species": null,
  "has_props": null,
  "theoretical": null,
  "database_IDs": null,
  "fields_not_requested": [
    "builder_meta",
    "nsites",
    "elements",
    "nelements",
    "composition",
    "composition_reduced",
    "chemsys",
    "symmetry",
    "property_name",
    "deprecated",
    "deprecation_reasons",
    "last_updated",
    "origins",
    "warnings",
    "task_ids",
    "uncorrected_energy_per_atom",
    "equilibrium_reaction_energy_per_atom",
    "decomposes_to",
    "xas",
    "grain_boundaries",
    "cbm",
    "vbm",
    "is_gap_direct",
    "is_metal",
    "es_source_calc_id",
    "bandstructure",
    "dos",
    "dos_energy_up",
    "dos_energy_down",
    "is_magnetic",
    "ordering",
    "total_magnetization_normalized_vol",
    "total_magnetization_normalized_formula_units",
    "num_magnetic_sites",
    "num_unique_magnetic_sites",
    "types_of_magnetic_species",
    "bulk_modulus",
    "shear_modulus",
    "universal_anisotropy",
    "homogeneous_poisson",
    "e_total",
    "e_ionic",
    "e_electronic",
    "n",
    "e_ij_max",
    "weighted_surface_energy_EV_PER_ANG2",
    "weighted_surface_energy",
    "weighted_work_function",
    "surface_anisotropy",
    "shape_factor",
    "has_reconstructed",
    "possible_species",
    "has_props",
    "theoretical",
    "database_IDs"
  ]
}
