{"builder_meta": null, "nsites": null, "elements": null, "nelements": null, "composition": null, "composition_reduced": null, "formula_pretty": "UIr", "formula_anonymous": "AB", "chemsys": null, "volume": 330.5246240843849, "density": 17.29227028162275, "density_atomic": 20.657789005274058, "symmetry": null, "property_name": null, "material_id": "mp-1105762", "deprecated": null, "deprecation_reasons": null, "last_updated": null, "origins": null, "warnings": null, "structure": {"@module": "pymatgen.core.structure", "@class": "Structure", "charge": 0, "lattice": {"matrix": [[10.630335, 0.0, 0.0], [0.0, 5.597811, 0.0], [0.0, 0.818971999999999, 5.554419]], "pbc": [true, true, true], "a": 10.630335, "b": 5.597811, "c": 5.6144710850039115, "alpha": 81.61245020752676, "beta": 90.0, "gamma": 90.0, "volume": 330.5246240843849}, "properties": {}, "sites": [{"species": [{"element": "U", "occu": 1}], "abc": [0.49614199999999903, 0.102668, 0.868711999999999], "properties": {"magmom": 1.56}, "label": "U", "xyz": [5.27415566756999, 1.2861668638119985, 4.825190438327994]}, {"species": [{"element": "U", "occu": 1}], "abc": [0.996142, 0.897331999999999, 0.131288], "properties": {"magmom": 1.56}, "label": "U", "xyz": [10.58932316757, 5.130616136187995, 0.729228561672]}, {"species": [{"element": "U", "occu": 1}], "abc": [0.492177, 0.65346, 0.387249], "properties": {"magmom": 1.695}, "label": "U", "xyz": [5.232006389295, 3.975091664088, 2.1509432033310003]}, {"species": [{"element": "U", "occu": 1}], "abc": [0.992177, 0.34654, 0.612750999999999], "properties": {"magmom": 1.695}, "label": "U", "xyz": [10.547173889295001, 2.4416913359119987, 3.403475796668995]}, {"species": [{"element": "U", "occu": 1}], "abc": [0.222314999999999, 0.400547, 0.143166], "properties": {"magmom": 1.621999999999999}, "label": "U", "xyz": [2.3632829255249894, 2.359435347969, 0.795203950554]}, {"species": [{"element": "U", "occu": 1}], "abc": [0.722314999999999, 0.599453, 0.856834], "properties": {"magmom": 1.621999999999999}, "label": "U", "xyz": [7.67845042552499, 4.057347652030999, 4.759215049446]}, {"species": [{"element": "U", "occu": 1}], "abc": [0.22525799999999901, 0.843329, 0.604364999999999], "properties": {"magmom": 1.7000000000000002}, "label": "U", "xyz": [2.3945680014299895, 5.215754365598999, 3.356896438934995]}, {"species": [{"element": "U", "occu": 1}], "abc": [0.725258, 0.156671, 0.395634999999999], "properties": {"magmom": 1.7000000000000002}, "label": "U", "xyz": [7.70973550143, 1.2010286344009988, 2.1975225610649947]}, {"species": [{"element": "Ir", "occu": 1}], "abc": [0.757985999999999, 0.094818, 0.901277], "properties": {"magmom": -0.159}, "label": "Ir", "xyz": [8.057645105309991, 1.2688938706419992, 5.006070093063]}, {"species": [{"element": "Ir", "occu": 1}], "abc": [0.257986, 0.905181999999999, 0.098722999999999], "properties": {"magmom": -0.159}, "label": "Ir", "xyz": [2.74247760531, 5.147889129357994, 0.5483489069369945]}, {"species": [{"element": "Ir", "occu": 1}], "abc": [0.755289, 0.6603289999999991, 0.349168], "properties": {"magmom": -0.163}, "label": "Ir", "xyz": [8.028975091815001, 3.982355755114994, 1.939425373392]}, {"species": [{"element": "Ir", "occu": 1}], "abc": [0.255289, 0.339671, 0.650832], "properties": {"magmom": -0.163}, "label": "Ir", "xyz": [2.713807591815, 2.4344272448849997, 3.614993626608]}, {"species": [{"element": "Ir", "occu": 1}], "abc": [0.95869, 0.398304, 0.107186999999999], "properties": {"magmom": -0.155}, "label": "Ir", "xyz": [10.191195861150002, 2.317413664307999, 0.5953615093529945]}, {"species": [{"element": "Ir", "occu": 1}], "abc": [0.45869000000000004, 0.601696, 0.892813], "properties": {"magmom": -0.155}, "label": "Ir", "xyz": [4.87602836115, 4.099369335691999, 4.959057490647]}, {"species": [{"element": "Ir", "occu": 1}], "abc": [0.960144, 0.846698, 0.638612], "properties": {"magmom": -0.159}, "label": "Ir", "xyz": [10.20665236824, 5.262660724941999, 3.547118626428]}, {"species": [{"element": "Ir", "occu": 1}], "abc": [0.460144, 0.153302, 0.361388], "properties": {"magmom": -0.159}, "label": "Ir", "xyz": [4.89148486824, 1.1541222750579996, 2.007300373572]}]}, "task_ids": null, "uncorrected_energy_per_atom": null, "energy_per_atom": -10.5618864075, "formation_energy_per_atom": -0.49696431249999506, "energy_above_hull": 0.0, "is_stable": true, "equilibrium_reaction_energy_per_atom": null, "decomposes_to": null, "xas": null, "grain_boundaries": null, "band_gap": 0.0, "cbm": null, "vbm": null, "efermi": 10.60311398, "is_gap_direct": null, "is_metal": null, "es_source_calc_id": null, "bandstructure": null, "dos": null, "dos_energy_up": null, "dos_energy_down": null, "is_magnetic": null, "ordering": null, "total_magnetization": 13.2414962, "total_magnetization_normalized_vol": null, "total_magnetization_normalized_formula_units": null, "num_magnetic_sites": null, "num_unique_magnetic_sites": null, "types_of_magnetic_species": null, "bulk_modulus": null, "shear_modulus": null, "universal_anisotropy": null, "homogeneous_poisson": null, "e_total": null, "e_ionic": null, "e_electronic": null, "n": null, "e_ij_max": null, "weighted_surface_energy_EV_PER_ANG2": null, "weighted_surface_energy": null, "weighted_work_function": null, "surface_anisotropy": null, "shape_factor": null, "has_reconstructed": null, "possible_species": null, "has_props": null, "theoretical": null, "database_IDs": null, "fields_not_requested": ["builder_meta", "nsites", "elements", "nelements", "composition", "composition_reduced", "chemsys", "symmetry", "property_name", "deprecated", "deprecation_reasons", "last_updated", "origins", "warnings", "task_ids", "uncorrected_energy_per_atom", "equilibrium_reaction_energy_per_atom", "decomposes_to", "xas", "grain_boundaries", "cbm", "vbm", "is_gap_direct", "is_metal", "es_source_calc_id", "bandstructure", "dos", "dos_energy_up", "dos_energy_down", "is_magnetic", "ordering", "total_magnetization_normalized_vol", "total_magnetization_normalized_formula_units", "num_magnetic_sites", "num_unique_magnetic_sites", "types_of_magnetic_species", "bulk_modulus", "shear_modulus", "universal_anisotropy", "homogeneous_poisson", "e_total", "e_ionic", "e_electronic", "n", "e_ij_max", "weighted_surface_energy_EV_PER_ANG2", "weighted_surface_energy", "weighted_work_function", "surface_anisotropy", "shape_factor", "has_reconstructed", "possible_species", "has_props", "theoretical", "database_IDs"]}