{"builder_meta": null, "nsites": null, "elements": null, "nelements": null, "composition": null, "composition_reduced": null, "formula_pretty": "UIr2", "formula_anonymous": "AB2", "chemsys": null, "volume": 107.03890474391095, "density": 19.313052240910917, "density_atomic": 17.839817457318492, "symmetry": null, "property_name": null, "material_id": "mp-1655", "deprecated": null, "deprecation_reasons": null, "last_updated": null, "origins": null, "warnings": null, "structure": {"@module": "pymatgen.core.structure", "@class": "Structure", "charge": 0, "lattice": {"matrix": [[-0.0, 3.76851796, 3.76851796], [3.76851734, 6.2e-07, 3.76851734], [3.76851796, 3.76851796, -0.0]], "pbc": [true, true, true], "a": 5.329489209078589, "b": 5.329488332266216, "c": 5.329489209078589, "alpha": 59.999994557691316, "beta": 59.99999999999999, "gamma": 59.999994557691316, "volume": 107.03890474391095}, "properties": {}, "sites": [{"species": [{"element": "U", "occu": 1}], "abc": [0.75000129, 0.74999612, 0.75000129], "properties": {"magmom": -2.165}, "label": "U", "xyz": [5.652766714540889, 5.652787127773931, 5.652766714540889]}, {"species": [{"element": "U", "occu": 1}], "abc": [0.49999871, 0.50000388, 0.49999871], "properties": {"magmom": -2.165}, "label": "U", "xyz": [3.768527410459111, 3.768508547226069, 3.768527410459111]}, {"species": [{"element": "Ir", "occu": 1}], "abc": [0.125, 0.625, 0.125], "properties": {"magmom": 0.186}, "label": "Ir", "xyz": [2.8263880825, 0.9421298775, 2.8263880825]}, {"species": [{"element": "Ir", "occu": 1}], "abc": [0.125, 0.125, 0.625], "properties": {"magmom": 0.186}, "label": "Ir", "xyz": [2.8263883924999997, 2.8263885474999997, 0.9421294124999999]}, {"species": [{"element": "Ir", "occu": 1}], "abc": [0.625, 0.125, 0.125], "properties": {"magmom": 0.186}, "label": "Ir", "xyz": [0.9421294124999999, 2.8263885475, 2.8263883924999997]}, {"species": [{"element": "Ir", "occu": 1}], "abc": [0.125, 0.125, 0.125], "properties": {"magmom": 0.186}, "label": "Ir", "xyz": [0.9421294124999999, 0.9421295675, 0.9421294124999999]}]}, "task_ids": null, "uncorrected_energy_per_atom": null, "energy_per_atom": -10.231737401666663, "formation_energy_per_atom": -0.57564461166666, "energy_above_hull": 0.030398044166670003, "is_stable": false, "equilibrium_reaction_energy_per_atom": null, "decomposes_to": null, "xas": null, "grain_boundaries": null, "band_gap": 0.0, "cbm": null, "vbm": null, "efermi": 10.96064435, "is_gap_direct": null, "is_metal": null, "es_source_calc_id": null, "bandstructure": null, "dos": null, "dos_energy_up": null, "dos_energy_down": null, "is_magnetic": null, "ordering": null, "total_magnetization": 4.0505432, "total_magnetization_normalized_vol": null, "total_magnetization_normalized_formula_units": null, "num_magnetic_sites": null, "num_unique_magnetic_sites": null, "types_of_magnetic_species": null, "bulk_modulus": null, "shear_modulus": null, "universal_anisotropy": null, "homogeneous_poisson": null, "e_total": null, "e_ionic": null, "e_electronic": null, "n": null, "e_ij_max": null, "weighted_surface_energy_EV_PER_ANG2": null, "weighted_surface_energy": null, "weighted_work_function": null, "surface_anisotropy": null, "shape_factor": null, "has_reconstructed": null, "possible_species": null, "has_props": null, "theoretical": null, "database_IDs": null, "fields_not_requested": ["builder_meta", "nsites", "elements", "nelements", "composition", "composition_reduced", "chemsys", "symmetry", "property_name", "deprecated", "deprecation_reasons", "last_updated", "origins", "warnings", "task_ids", "uncorrected_energy_per_atom", "equilibrium_reaction_energy_per_atom", "decomposes_to", "xas", "grain_boundaries", "cbm", "vbm", "is_gap_direct", "is_metal", "es_source_calc_id", "bandstructure", "dos", "dos_energy_up", "dos_energy_down", "is_magnetic", "ordering", "total_magnetization_normalized_vol", "total_magnetization_normalized_formula_units", "num_magnetic_sites", "num_unique_magnetic_sites", "types_of_magnetic_species", "bulk_modulus", "shear_modulus", "universal_anisotropy", "homogeneous_poisson", "e_total", "e_ionic", "e_electronic", "n", "e_ij_max", "weighted_surface_energy_EV_PER_ANG2", "weighted_surface_energy", "weighted_work_function", "surface_anisotropy", "shape_factor", "has_reconstructed", "possible_species", "has_props", "theoretical", "database_IDs"]}