{"builder_meta": null, "nsites": null, "elements": null, "nelements": null, "composition": null, "composition_reduced": null, "formula_pretty": "UMo", "formula_anonymous": "AB", "chemsys": null, "volume": 147.25014301844936, "density": 15.064662368859933, "density_atomic": 18.40626787730617, "symmetry": null, "property_name": null, "material_id": "mp-1178856", "deprecated": null, "deprecation_reasons": null, "last_updated": null, "origins": null, "warnings": null, "structure": {"@module": "pymatgen.core.structure", "@class": "Structure", "charge": 0, "lattice": {"matrix": [[5.28781, 0.0, -0.539083], [0.0, 2.852084, 0.0], [1.195476, 0.0, 9.641894]], "pbc": [true, true, true], "a": 5.315218252996673, "b": 2.852084, "c": 9.715723481749158, "alpha": 90.0, "beta": 88.75319371011751, "gamma": 90.0, "volume": 147.25014301844936}, "properties": {}, "sites": [{"species": [{"element": "U", "occu": 1}], "abc": [0.11260099999999901, 0.471298, 0.379395999999999], "properties": {"magmom": 0.005}, "label": "U", "xyz": [1.0489715063059937, 1.344181485032, 3.5973947311409913]}, {"species": [{"element": "U", "occu": 1}], "abc": [0.887398999999999, 0.971298, 0.120603999999999], "properties": {"magmom": 0.005}, "label": "U", "xyz": [4.836576493693993, 2.770223485032, 0.684469268858991]}, {"species": [{"element": "U", "occu": 1}], "abc": [0.887398999999999, 0.528702, 0.620603999999999], "properties": {"magmom": 0.005}, "label": "U", "xyz": [5.434314493693994, 1.507902514968, 5.505416268858992]}, {"species": [{"element": "U", "occu": 1}], "abc": [0.11260099999999901, 0.028702, 0.879396], "properties": {"magmom": 0.005}, "label": "U", "xyz": [1.6467095063059947, 0.081860514968, 8.418341731141002]}, {"species": [{"element": "Mo", "occu": 1}], "abc": [0.57806, 0.254257, 0.873321], "properties": {"magmom": -0.001}, "label": "Mo", "xyz": [4.100705744396, 0.7251623215880001, 8.108846190994]}, {"species": [{"element": "Mo", "occu": 1}], "abc": [0.42194000000000004, 0.754257, 0.626679], "properties": {"magmom": -0.001}, "label": "Mo", "xyz": [2.980318255604, 2.151204321588, 5.814911809006]}, {"species": [{"element": "Mo", "occu": 1}], "abc": [0.42194000000000004, 0.745742999999999, 0.12667899999999901], "properties": {"magmom": -0.001}, "label": "Mo", "xyz": [2.382580255603999, 2.1269216784119975, 0.9939648090059907]}, {"species": [{"element": "Mo", "occu": 1}], "abc": [0.57806, 0.245743, 0.373320999999999], "properties": {"magmom": -0.001}, "label": "Mo", "xyz": [3.502967744395999, 0.7008796784119999, 3.2878991909939908]}]}, "task_ids": null, "uncorrected_energy_per_atom": null, "energy_per_atom": -52.837624308749994, "formation_energy_per_atom": 0.16938372375000202, "energy_above_hull": 0.16938372375000202, "is_stable": false, "equilibrium_reaction_energy_per_atom": null, "decomposes_to": null, "xas": null, "grain_boundaries": null, "band_gap": 0.0, "cbm": null, "vbm": null, "efermi": 11.63750222, "is_gap_direct": null, "is_metal": null, "es_source_calc_id": null, "bandstructure": null, "dos": null, "dos_energy_up": null, "dos_energy_down": null, "is_magnetic": null, "ordering": null, "total_magnetization": 0.022252599999999, "total_magnetization_normalized_vol": null, "total_magnetization_normalized_formula_units": null, "num_magnetic_sites": null, "num_unique_magnetic_sites": null, "types_of_magnetic_species": null, "bulk_modulus": null, "shear_modulus": null, "universal_anisotropy": null, "homogeneous_poisson": null, "e_total": null, "e_ionic": null, "e_electronic": null, "n": null, "e_ij_max": null, "weighted_surface_energy_EV_PER_ANG2": null, "weighted_surface_energy": null, "weighted_work_function": null, "surface_anisotropy": null, "shape_factor": null, "has_reconstructed": null, "possible_species": null, "has_props": null, "theoretical": null, "database_IDs": null, "fields_not_requested": ["builder_meta", "nsites", "elements", "nelements", "composition", "composition_reduced", "chemsys", "symmetry", "property_name", "deprecated", "deprecation_reasons", "last_updated", "origins", "warnings", "task_ids", "uncorrected_energy_per_atom", "equilibrium_reaction_energy_per_atom", "decomposes_to", "xas", "grain_boundaries", "cbm", "vbm", "is_gap_direct", "is_metal", "es_source_calc_id", "bandstructure", "dos", "dos_energy_up", "dos_energy_down", "is_magnetic", "ordering", "total_magnetization_normalized_vol", "total_magnetization_normalized_formula_units", "num_magnetic_sites", "num_unique_magnetic_sites", "types_of_magnetic_species", "bulk_modulus", "shear_modulus", "universal_anisotropy", "homogeneous_poisson", "e_total", "e_ionic", "e_electronic", "n", "e_ij_max", "weighted_surface_energy_EV_PER_ANG2", "weighted_surface_energy", "weighted_work_function", "surface_anisotropy", "shape_factor", "has_reconstructed", "possible_species", "has_props", "theoretical", "database_IDs"]}