{"builder_meta": null, "nsites": null, "elements": null, "nelements": null, "composition": null, "composition_reduced": null, "formula_pretty": "UN2", "formula_anonymous": "AB2", "chemsys": null, "volume": 36.41844302906104, "density": 12.13049247522699, "density_atomic": 12.139481009687012, "symmetry": null, "property_name": null, "material_id": "mp-1776", "deprecated": null, "deprecation_reasons": null, "last_updated": null, "origins": null, "warnings": null, "structure": {"@module": "pymatgen.core.structure", "@class": "Structure", "charge": 0, "lattice": {"matrix": [[3.22212813, 0.0, 1.86029678], [1.07404271, 3.03785092, 1.86029678], [0.0, 0.0, 3.72059254]], "pbc": [true, true, true], "a": 3.7205932048284542, "b": 3.720592703418013, "c": 3.72059254, "alpha": 59.99999238414215, "beta": 59.999996842175506, "gamma": 59.999993436750415, "volume": 36.41844302906104}, "properties": {}, "sites": [{"species": [{"element": "U", "occu": 1}], "abc": [0.0, 0.0, -0.0], "properties": {"magmom": 0.0}, "label": "U", "xyz": [0.0, 0.0, 0.0]}, {"species": [{"element": "N", "occu": 1}], "abc": [0.25, 0.25, 0.25], "properties": {"magmom": -0.0}, "label": "N", "xyz": [1.07404271, 0.75946273, 1.860296525]}, {"species": [{"element": "N", "occu": 1}], "abc": [0.75, 0.75, 0.75], "properties": {"magmom": -0.0}, "label": "N", "xyz": [3.22212813, 2.27838819, 5.5808895750000005]}]}, "task_ids": null, "uncorrected_energy_per_atom": null, "energy_per_atom": -34.37613372, "formation_energy_per_atom": -1.642954397500001, "energy_above_hull": 0.0, "is_stable": true, "equilibrium_reaction_energy_per_atom": null, "decomposes_to": null, "xas": null, "grain_boundaries": null, "band_gap": 0.6927000000000001, "cbm": null, "vbm": null, "efermi": 9.78672188, "is_gap_direct": null, "is_metal": null, "es_source_calc_id": null, "bandstructure": null, "dos": null, "dos_energy_up": null, "dos_energy_down": null, "is_magnetic": null, "ordering": null, "total_magnetization": 0.0, "total_magnetization_normalized_vol": null, "total_magnetization_normalized_formula_units": null, "num_magnetic_sites": null, "num_unique_magnetic_sites": null, "types_of_magnetic_species": null, "bulk_modulus": null, "shear_modulus": null, "universal_anisotropy": null, "homogeneous_poisson": null, "e_total": null, "e_ionic": null, "e_electronic": null, "n": null, "e_ij_max": null, "weighted_surface_energy_EV_PER_ANG2": null, "weighted_surface_energy": null, "weighted_work_function": null, "surface_anisotropy": null, "shape_factor": null, "has_reconstructed": null, "possible_species": null, "has_props": null, "theoretical": null, "database_IDs": null, "fields_not_requested": ["builder_meta", "nsites", "elements", "nelements", "composition", "composition_reduced", "chemsys", "symmetry", "property_name", "deprecated", "deprecation_reasons", "last_updated", "origins", "warnings", "task_ids", "uncorrected_energy_per_atom", "equilibrium_reaction_energy_per_atom", "decomposes_to", "xas", "grain_boundaries", "cbm", "vbm", "is_gap_direct", "is_metal", "es_source_calc_id", "bandstructure", "dos", "dos_energy_up", "dos_energy_down", "is_magnetic", "ordering", "total_magnetization_normalized_vol", "total_magnetization_normalized_formula_units", "num_magnetic_sites", "num_unique_magnetic_sites", "types_of_magnetic_species", "bulk_modulus", "shear_modulus", "universal_anisotropy", "homogeneous_poisson", "e_total", "e_ionic", "e_electronic", "n", "e_ij_max", "weighted_surface_energy_EV_PER_ANG2", "weighted_surface_energy", "weighted_work_function", "surface_anisotropy", "shape_factor", "has_reconstructed", "possible_species", "has_props", "theoretical", "database_IDs"]}