{
  "builder_meta": null,
  "nsites": null,
  "elements": null,
  "nelements": null,
  "composition": null,
  "composition_reduced": null,
  "formula_pretty": "UNi2",
  "formula_anonymous": "AB2",
  "chemsys": null,
  "volume": 170.71996019341657,
  "density": 13.828064877000488,
  "density_atomic": 14.22666334945138,
  "symmetry": null,
  "property_name": null,
  "material_id": "mp-17023",
  "deprecated": null,
  "deprecation_reasons": null,
  "last_updated": null,
  "origins": null,
  "warnings": null,
  "structure": {
    "@module": "pymatgen.core.structure",
    "@class": "Structure",
    "charge": 0,
    "lattice": {
      "matrix": [
        [2.46116058, -4.26285563, 0.0],
        [2.46116058, 4.26285563, -0.0],
        [0.0, -0.0, 8.13605227]
      ],
      "pbc": [true, true, true],
      "a": 4.922321558245523,
      "b": 4.922321558245523,
      "c": 8.13605227,
      "alpha": 90.0,
      "beta": 90.0,
      "gamma": 120.00000535270014,
      "volume": 170.71996019341657
    },
    "properties": {},
    "sites": [
      {
        "species": [{ "element": "U", "occu": 1 }],
        "abc": [0.333333, 0.666667, 0.05828429],
        "properties": { "magmom": 1.733 },
        "label": "U",
        "xyz": [2.46116058, 1.42095471857042, 0.47420402995983835]
      },
      {
        "species": [{ "element": "U", "occu": 1 }],
        "abc": [0.333333, 0.666667, 0.44175939000000003],
        "properties": { "magmom": 1.733 },
        "label": "U",
        "xyz": [2.46116058, 1.42095471857042, 3.5941774878033157]
      },
      {
        "species": [{ "element": "U", "occu": 1 }],
        "abc": [0.666667, 0.333333, 0.55824061],
        "properties": { "magmom": 1.733 },
        "label": "U",
        "xyz": [2.46116058, -1.42095471857042, 4.541874782196685]
      },
      {
        "species": [{ "element": "U", "occu": 1 }],
        "abc": [0.666667, 0.333333, 0.94171571],
        "properties": { "magmom": 1.733 },
        "label": "U",
        "xyz": [2.46116058, -1.42095471857042, 7.661848240040162]
      },
      {
        "species": [{ "element": "Ni", "occu": 1 }],
        "abc": [0.16559345, 0.3311869, 0.74996336],
        "properties": { "magmom": 0.026000000000000002 },
        "label": "Ni",
        "xyz": [1.222656214338603, 0.7059009706236234, 6.101741097544827]
      },
      {
        "species": [{ "element": "Ni", "occu": 1 }],
        "abc": [0.16559345, 0.83440655, 0.74996336],
        "properties": { "magmom": 0.026000000000000002 },
        "label": "Ni",
        "xyz": [2.46116058, 2.851053688752753, 6.101741097544827]
      },
      {
        "species": [{ "element": "Ni", "occu": 1 }],
        "abc": [0.3311869, 0.16559345, 0.25003664000000003],
        "properties": { "magmom": 0.026000000000000002 },
        "label": "Ni",
        "xyz": [1.222656214338603, -0.7059009706236234, 2.034311172455173]
      },
      {
        "species": [{ "element": "Ni", "occu": 1 }],
        "abc": [0.83440655, 0.668813099999999, 0.25003664000000003],
        "properties": { "magmom": 0.026000000000000002 },
        "label": "Ni",
        "xyz": [3.699664945661395, -0.7059009706236274, 2.034311172455173]
      },
      {
        "species": [{ "element": "Ni", "occu": 1 }],
        "abc": [0.0, -0.0, -0.0],
        "properties": { "magmom": 0.17500000000000002 },
        "label": "Ni",
        "xyz": [0.0, 0.0, 0.0]
      },
      {
        "species": [{ "element": "Ni", "occu": 1 }],
        "abc": [0.668813099999999, 0.83440655, 0.74996336],
        "properties": { "magmom": 0.026000000000000002 },
        "label": "Ni",
        "xyz": [3.699664945661395, 0.7059009706236274, 6.101741097544827]
      },
      {
        "species": [{ "element": "Ni", "occu": 1 }],
        "abc": [0.83440655, 0.16559345, 0.25003664000000003],
        "properties": { "magmom": 0.026000000000000002 },
        "label": "Ni",
        "xyz": [2.46116058, -2.851053688752753, 2.034311172455173]
      },
      {
        "species": [{ "element": "Ni", "occu": 1 }],
        "abc": [0.0, -0.0, 0.5],
        "properties": { "magmom": 0.17500000000000002 },
        "label": "Ni",
        "xyz": [0.0, 0.0, 4.068026135]
      }
    ]
  },
  "task_ids": null,
  "uncorrected_energy_per_atom": null,
  "energy_per_atom": -7.863706564166662,
  "formation_energy_per_atom": -0.24647877416665803,
  "energy_above_hull": 0.008243662243594001,
  "is_stable": false,
  "equilibrium_reaction_energy_per_atom": null,
  "decomposes_to": null,
  "xas": null,
  "grain_boundaries": null,
  "band_gap": 0.0,
  "cbm": null,
  "vbm": null,
  "efermi": 11.14284239,
  "is_gap_direct": null,
  "is_metal": null,
  "es_source_calc_id": null,
  "bandstructure": null,
  "dos": null,
  "dos_energy_up": null,
  "dos_energy_down": null,
  "is_magnetic": null,
  "ordering": null,
  "total_magnetization": 7.6111378,
  "total_magnetization_normalized_vol": null,
  "total_magnetization_normalized_formula_units": null,
  "num_magnetic_sites": null,
  "num_unique_magnetic_sites": null,
  "types_of_magnetic_species": null,
  "bulk_modulus": null,
  "shear_modulus": null,
  "universal_anisotropy": null,
  "homogeneous_poisson": null,
  "e_total": null,
  "e_ionic": null,
  "e_electronic": null,
  "n": null,
  "e_ij_max": null,
  "weighted_surface_energy_EV_PER_ANG2": null,
  "weighted_surface_energy": null,
  "weighted_work_function": null,
  "surface_anisotropy": null,
  "shape_factor": null,
  "has_reconstructed": null,
  "possible_species": null,
  "has_props": null,
  "theoretical": null,
  "database_IDs": null,
  "fields_not_requested": [
    "builder_meta",
    "nsites",
    "elements",
    "nelements",
    "composition",
    "composition_reduced",
    "chemsys",
    "symmetry",
    "property_name",
    "deprecated",
    "deprecation_reasons",
    "last_updated",
    "origins",
    "warnings",
    "task_ids",
    "uncorrected_energy_per_atom",
    "equilibrium_reaction_energy_per_atom",
    "decomposes_to",
    "xas",
    "grain_boundaries",
    "cbm",
    "vbm",
    "is_gap_direct",
    "is_metal",
    "es_source_calc_id",
    "bandstructure",
    "dos",
    "dos_energy_up",
    "dos_energy_down",
    "is_magnetic",
    "ordering",
    "total_magnetization_normalized_vol",
    "total_magnetization_normalized_formula_units",
    "num_magnetic_sites",
    "num_unique_magnetic_sites",
    "types_of_magnetic_species",
    "bulk_modulus",
    "shear_modulus",
    "universal_anisotropy",
    "homogeneous_poisson",
    "e_total",
    "e_ionic",
    "e_electronic",
    "n",
    "e_ij_max",
    "weighted_surface_energy_EV_PER_ANG2",
    "weighted_surface_energy",
    "weighted_work_function",
    "surface_anisotropy",
    "shape_factor",
    "has_reconstructed",
    "possible_species",
    "has_props",
    "theoretical",
    "database_IDs"
  ]
}
