{
  "builder_meta": null,
  "nsites": null,
  "elements": null,
  "nelements": null,
  "composition": null,
  "composition_reduced": null,
  "formula_pretty": "UNi5",
  "formula_anonymous": "AB5",
  "chemsys": null,
  "volume": 74.84636058057116,
  "density": 11.791752002998761,
  "density_atomic": 12.474393430095192,
  "symmetry": null,
  "property_name": null,
  "material_id": "mp-2838",
  "deprecated": null,
  "deprecation_reasons": null,
  "last_updated": null,
  "origins": null,
  "warnings": null,
  "structure": {
    "@module": "pymatgen.core.structure",
    "@class": "Structure",
    "charge": 0,
    "lattice": {
      "matrix": [
        [4.09658735, -4.6070000000000004e-5, 2.3650878],
        [1.36548497, 3.8623197400000002, 2.3650894],
        [-9.016e-5, -6.039e-5, 4.73033039]
      ],
      "pbc": [true, true, true],
      "a": 4.730292614628751,
      "b": 4.730297120401839,
      "c": 4.73033039124471,
      "alpha": 60.00188107891435,
      "beta": 60.00191035050158,
      "gamma": 60.00162668569593,
      "volume": 74.84636058057117
    },
    "properties": {},
    "sites": [
      {
        "species": [{ "element": "U", "occu": 1 }],
        "abc": [0.99999056, 3.19e-6, 5.03e-6],
        "properties": { "magmom": 0.015 },
        "label": "U",
        "xyz": [4.0965530336589655, -3.37490688903e-5, 2.3650968117682156]
      },
      {
        "species": [{ "element": "Ni", "occu": 1 }],
        "abc": [0.25000828, 0.24999456, 0.24999798],
        "properties": { "magmom": -0.001 },
        "label": "Ni",
        "xyz": [1.3655220316871446, 0.9655323087211427, 2.3651240590732603]
      },
      {
        "species": [{ "element": "Ni", "occu": 1 }],
        "abc": [0.6241071300000001, 0.6241073500000001, 0.62410488],
        "properties": { "magmom": -0.006 },
        "label": "Ni",
        "xyz": [3.408862310598354, 2.4104356954749067, 5.904360117414408]
      },
      {
        "species": [{ "element": "Ni", "occu": 1 }],
        "abc": [0.62410928, 0.6241095600000001, 0.1276716],
        "properties": { "magmom": -0.006 },
        "label": "Ni",
        "xyz": [3.4089188944074653, 2.410474210708261, 3.556076998209372]
      },
      {
        "species": [{ "element": "Ni", "occu": 1 }],
        "abc": [0.12767197, 0.62411004, 0.62410775],
        "properties": { "magmom": -0.006 },
        "label": "Ni",
        "xyz": [1.3751759869429385, 2.4104689557095096, 4.730267315146064]
      },
      {
        "species": [{ "element": "Ni", "occu": 1 }],
        "abc": [0.62411077, 0.12767129, 0.6241077700000001],
        "properties": { "magmom": -0.006 },
        "label": "Ni",
        "xyz": [2.731001243419728, 0.4930409009468604, 4.730266733705062]
      }
    ]
  },
  "task_ids": null,
  "uncorrected_energy_per_atom": null,
  "energy_per_atom": -6.961951705,
  "formation_energy_per_atom": -0.263269469999997,
  "energy_above_hull": 0.0,
  "is_stable": true,
  "equilibrium_reaction_energy_per_atom": null,
  "decomposes_to": null,
  "xas": null,
  "grain_boundaries": null,
  "band_gap": 0.0,
  "cbm": null,
  "vbm": null,
  "efermi": 9.46741866,
  "is_gap_direct": null,
  "is_metal": null,
  "es_source_calc_id": null,
  "bandstructure": null,
  "dos": null,
  "dos_energy_up": null,
  "dos_energy_down": null,
  "is_magnetic": null,
  "ordering": null,
  "total_magnetization": 0.0049497,
  "total_magnetization_normalized_vol": null,
  "total_magnetization_normalized_formula_units": null,
  "num_magnetic_sites": null,
  "num_unique_magnetic_sites": null,
  "types_of_magnetic_species": null,
  "bulk_modulus": null,
  "shear_modulus": null,
  "universal_anisotropy": null,
  "homogeneous_poisson": null,
  "e_total": null,
  "e_ionic": null,
  "e_electronic": null,
  "n": null,
  "e_ij_max": null,
  "weighted_surface_energy_EV_PER_ANG2": null,
  "weighted_surface_energy": null,
  "weighted_work_function": null,
  "surface_anisotropy": null,
  "shape_factor": null,
  "has_reconstructed": null,
  "possible_species": null,
  "has_props": null,
  "theoretical": null,
  "database_IDs": null,
  "fields_not_requested": [
    "builder_meta",
    "nsites",
    "elements",
    "nelements",
    "composition",
    "composition_reduced",
    "chemsys",
    "symmetry",
    "property_name",
    "deprecated",
    "deprecation_reasons",
    "last_updated",
    "origins",
    "warnings",
    "task_ids",
    "uncorrected_energy_per_atom",
    "equilibrium_reaction_energy_per_atom",
    "decomposes_to",
    "xas",
    "grain_boundaries",
    "cbm",
    "vbm",
    "is_gap_direct",
    "is_metal",
    "es_source_calc_id",
    "bandstructure",
    "dos",
    "dos_energy_up",
    "dos_energy_down",
    "is_magnetic",
    "ordering",
    "total_magnetization_normalized_vol",
    "total_magnetization_normalized_formula_units",
    "num_magnetic_sites",
    "num_unique_magnetic_sites",
    "types_of_magnetic_species",
    "bulk_modulus",
    "shear_modulus",
    "universal_anisotropy",
    "homogeneous_poisson",
    "e_total",
    "e_ionic",
    "e_electronic",
    "n",
    "e_ij_max",
    "weighted_surface_energy_EV_PER_ANG2",
    "weighted_surface_energy",
    "weighted_work_function",
    "surface_anisotropy",
    "shape_factor",
    "has_reconstructed",
    "possible_species",
    "has_props",
    "theoretical",
    "database_IDs"
  ]
}
