{"builder_meta": null, "nsites": null, "elements": null, "nelements": null, "composition": null, "composition_reduced": null, "formula_pretty": "UO4", "formula_anonymous": "AB4", "chemsys": null, "volume": 88.46077788895161, "density": 5.6694823510758905, "density_atomic": 17.692155577790324, "symmetry": null, "property_name": null, "material_id": "mp-1178842", "deprecated": null, "deprecation_reasons": null, "last_updated": null, "origins": null, "warnings": null, "structure": {"@module": "pymatgen.core.structure", "@class": "Structure", "charge": 0, "lattice": {"matrix": [[3.007836, 2.994979, 0.0], [0.0, 2.994979, 4.909902], [3.007836, 0.0, 4.909902]], "pbc": [true, true, true], "a": 4.244640928669585, "b": 5.751263935870532, "c": 5.757969698817457, "alpha": 43.28359032651519, "beta": 68.27406861178603, "gamma": 68.44234106169878, "volume": 88.46077788895161}, "properties": {}, "sites": [{"species": [{"element": "U", "occu": 1}], "abc": [0.0, 0.0, 0.0], "properties": {"magmom": 0.0}, "label": "U", "xyz": [0.0, 0.0, 0.0]}, {"species": [{"element": "O", "occu": 1}], "abc": [0.187223, 0.812777, 0.812777], "properties": {"magmom": 0.003}, "label": "O", "xyz": [3.007836, 2.994979, 7.981310835707999]}, {"species": [{"element": "O", "occu": 1}], "abc": [0.812777, 0.187223, 0.187223], "properties": {"magmom": 0.003}, "label": "O", "xyz": [3.007836, 2.994979, 1.838493164292]}, {"species": [{"element": "O", "occu": 1}], "abc": [0.5, 0.0, 0.0], "properties": {"magmom": 0.004}, "label": "O", "xyz": [1.503918, 1.4974895, 0.0]}, {"species": [{"element": "O", "occu": 1}], "abc": [0.0, 0.5, 0.5], "properties": {"magmom": 0.004}, "label": "O", "xyz": [1.503918, 1.4974895, 4.909902]}]}, "task_ids": null, "uncorrected_energy_per_atom": null, "energy_per_atom": -8.754418521999998, "formation_energy_per_atom": -2.537767715999997, "energy_above_hull": 0.351975735000001, "is_stable": false, "equilibrium_reaction_energy_per_atom": null, "decomposes_to": null, "xas": null, "grain_boundaries": null, "band_gap": 0.0, "cbm": null, "vbm": null, "efermi": -0.10254576, "is_gap_direct": null, "is_metal": null, "es_source_calc_id": null, "bandstructure": null, "dos": null, "dos_energy_up": null, "dos_energy_down": null, "is_magnetic": null, "ordering": null, "total_magnetization": 0.0191102, "total_magnetization_normalized_vol": null, "total_magnetization_normalized_formula_units": null, "num_magnetic_sites": null, "num_unique_magnetic_sites": null, "types_of_magnetic_species": null, "bulk_modulus": null, "shear_modulus": null, "universal_anisotropy": null, "homogeneous_poisson": null, "e_total": null, "e_ionic": null, "e_electronic": null, "n": null, "e_ij_max": null, "weighted_surface_energy_EV_PER_ANG2": null, "weighted_surface_energy": null, "weighted_work_function": null, "surface_anisotropy": null, "shape_factor": null, "has_reconstructed": null, "possible_species": null, "has_props": null, "theoretical": null, "database_IDs": null, "fields_not_requested": ["builder_meta", "nsites", "elements", "nelements", "composition", "composition_reduced", "chemsys", "symmetry", "property_name", "deprecated", "deprecation_reasons", "last_updated", "origins", "warnings", "task_ids", "uncorrected_energy_per_atom", "equilibrium_reaction_energy_per_atom", "decomposes_to", "xas", "grain_boundaries", "cbm", "vbm", "is_gap_direct", "is_metal", "es_source_calc_id", "bandstructure", "dos", "dos_energy_up", "dos_energy_down", "is_magnetic", "ordering", "total_magnetization_normalized_vol", "total_magnetization_normalized_formula_units", "num_magnetic_sites", "num_unique_magnetic_sites", "types_of_magnetic_species", "bulk_modulus", "shear_modulus", "universal_anisotropy", "homogeneous_poisson", "e_total", "e_ionic", "e_electronic", "n", "e_ij_max", "weighted_surface_energy_EV_PER_ANG2", "weighted_surface_energy", "weighted_work_function", "surface_anisotropy", "shape_factor", "has_reconstructed", "possible_species", "has_props", "theoretical", "database_IDs"]}