{"builder_meta": null, "nsites": null, "elements": null, "nelements": null, "composition": null, "composition_reduced": null, "formula_pretty": "UO5", "formula_anonymous": "AB5", "chemsys": null, "volume": 96.75376125311577, "density": 5.458128354973996, "density_atomic": 16.125626875519295, "symmetry": null, "property_name": null, "material_id": "mp-1072461", "deprecated": null, "deprecation_reasons": null, "last_updated": null, "origins": null, "warnings": null, "structure": {"@module": "pymatgen.core.structure", "@class": "Structure", "charge": 0, "lattice": {"matrix": [[-3.357614, 3.357614, 2.145588], [3.357614, -3.357614, 2.145588], [3.357614, 3.357614, -2.145588]], "pbc": [true, true, true], "a": 5.210632534705935, "b": 5.210632534705935, "c": 5.210632534705935, "alpha": 99.7619733490544, "beta": 99.7619733490544, "gamma": 131.36771497616039, "volume": 96.75376125311577}, "properties": {}, "sites": [{"species": [{"element": "U", "occu": 1}], "abc": [0.0, 0.0, 0.0], "properties": {"magmom": 0.028}, "label": "U", "xyz": [0.0, 0.0, 0.0]}, {"species": [{"element": "O", "occu": 1}], "abc": [0.740823, 0.091509, 0.832332], "properties": {"magmom": 0.007}, "label": "O", "xyz": [0.6145037990519997, 4.974795352644, 0.0]}, {"species": [{"element": "O", "occu": 1}], "abc": [0.259177, 0.908490999999999, 0.167667999999999], "properties": {"magmom": 0.007}, "label": "O", "xyz": [2.743110200947993, -1.6171813526439998, 2.145588]}, {"species": [{"element": "O", "occu": 1}], "abc": [0.091509, 0.259177, 0.350684999999999], "properties": {"magmom": 0.007}, "label": "O", "xyz": [1.7404292897419966, 0.6145004414379966, 2.145588002044896e-06]}, {"species": [{"element": "O", "occu": 1}], "abc": [0.908490999999999, 0.740823, 0.649315], "properties": {"magmom": 0.007}, "label": "O", "xyz": [1.617184710258003, 2.7431135585619963, 2.1455858544119977]}, {"species": [{"element": "O", "occu": 1}], "abc": [0.5, 0.5, 0.0], "properties": {"magmom": -0.002}, "label": "O", "xyz": [0.0, 0.0, 2.145588]}]}, "task_ids": null, "uncorrected_energy_per_atom": null, "energy_per_atom": -7.828327868333333, "formation_energy_per_atom": -1.823125362499999, "energy_above_hull": 0.584994179999999, "is_stable": false, "equilibrium_reaction_energy_per_atom": null, "decomposes_to": null, "xas": null, "grain_boundaries": null, "band_gap": 0.0, "cbm": null, "vbm": null, "efermi": 0.08886443000000001, "is_gap_direct": null, "is_metal": null, "es_source_calc_id": null, "bandstructure": null, "dos": null, "dos_energy_up": null, "dos_energy_down": null, "is_magnetic": null, "ordering": null, "total_magnetization": 0.0469965, "total_magnetization_normalized_vol": null, "total_magnetization_normalized_formula_units": null, "num_magnetic_sites": null, "num_unique_magnetic_sites": null, "types_of_magnetic_species": null, "bulk_modulus": null, "shear_modulus": null, "universal_anisotropy": null, "homogeneous_poisson": null, "e_total": null, "e_ionic": null, "e_electronic": null, "n": null, "e_ij_max": null, "weighted_surface_energy_EV_PER_ANG2": null, "weighted_surface_energy": null, "weighted_work_function": null, "surface_anisotropy": null, "shape_factor": null, "has_reconstructed": null, "possible_species": null, "has_props": null, "theoretical": null, "database_IDs": null, "fields_not_requested": ["builder_meta", "nsites", "elements", "nelements", "composition", "composition_reduced", "chemsys", "symmetry", "property_name", "deprecated", "deprecation_reasons", "last_updated", "origins", "warnings", "task_ids", "uncorrected_energy_per_atom", "equilibrium_reaction_energy_per_atom", "decomposes_to", "xas", "grain_boundaries", "cbm", "vbm", "is_gap_direct", "is_metal", "es_source_calc_id", "bandstructure", "dos", "dos_energy_up", "dos_energy_down", "is_magnetic", "ordering", "total_magnetization_normalized_vol", "total_magnetization_normalized_formula_units", "num_magnetic_sites", "num_unique_magnetic_sites", "types_of_magnetic_species", "bulk_modulus", "shear_modulus", "universal_anisotropy", "homogeneous_poisson", "e_total", "e_ionic", "e_electronic", "n", "e_ij_max", "weighted_surface_energy_EV_PER_ANG2", "weighted_surface_energy", "weighted_work_function", "surface_anisotropy", "shape_factor", "has_reconstructed", "possible_species", "has_props", "theoretical", "database_IDs"]}