{"builder_meta": null, "nsites": null, "elements": null, "nelements": null, "composition": null, "composition_reduced": null, "formula_pretty": "UOs2", "formula_anonymous": "AB2", "chemsys": null, "volume": 214.14458183449065, "density": 19.18376806017207, "density_atomic": 17.845381819540886, "symmetry": null, "property_name": null, "material_id": "mp-1102439", "deprecated": null, "deprecation_reasons": null, "last_updated": null, "origins": null, "warnings": null, "structure": {"@module": "pymatgen.core.structure", "@class": "Structure", "charge": 0, "lattice": {"matrix": [[5.383583, 0.0, 0.0], [-2.691791, 4.662319, 0.0], [0.0, 0.0, 8.531663]], "pbc": [true, true, true], "a": 5.383583, "b": 5.383582194546861, "c": 8.531663, "alpha": 90.0, "beta": 90.0, "gamma": 119.9999988045955, "volume": 214.14458183449065}, "properties": {}, "sites": [{"species": [{"element": "U", "occu": 1}], "abc": [0.333333, 0.666667, 0.424218999999999], "properties": {"magmom": 0.177}, "label": "U", "xyz": [-2.358458000006891e-06, 3.108214220773, 3.6192935461969915]}, {"species": [{"element": "U", "occu": 1}], "abc": [0.666667, 0.333333, 0.575781], "properties": {"magmom": 0.177}, "label": "U", "xyz": [2.691794358458, 1.554104779227, 4.912369453803]}, {"species": [{"element": "U", "occu": 1}], "abc": [0.666667, 0.333333, 0.924219], "properties": {"magmom": 0.177}, "label": "U", "xyz": [2.691794358458, 1.554104779227, 7.885125046197]}, {"species": [{"element": "U", "occu": 1}], "abc": [0.333333, 0.666667, 0.075781], "properties": {"magmom": 0.177}, "label": "U", "xyz": [-2.358458000006891e-06, 3.108214220773, 0.646537953803]}, {"species": [{"element": "Os", "occu": 1}], "abc": [0.0, 0.0, 0.5], "properties": {"magmom": -0.014}, "label": "Os", "xyz": [0.0, 0.0, 4.2658315]}, {"species": [{"element": "Os", "occu": 1}], "abc": [0.0, 0.0, 0.0], "properties": {"magmom": -0.014}, "label": "Os", "xyz": [0.0, 0.0, 0.0]}, {"species": [{"element": "Os", "occu": 1}], "abc": [0.829674999999999, 0.170325, 0.25], "properties": {"magmom": -0.003}, "label": "Os", "xyz": [4.008144923449994, 0.794109483675, 2.13291575]}, {"species": [{"element": "Os", "occu": 1}], "abc": [0.829674999999999, 0.659351, 0.25], "properties": {"magmom": -0.003}, "label": "Os", "xyz": [2.691789137883995, 3.0741046949690003, 2.13291575]}, {"species": [{"element": "Os", "occu": 1}], "abc": [0.340649, 0.170325, 0.25], "properties": {"magmom": -0.003}, "label": "Os", "xyz": [1.3754328632919999, 0.794109483675, 2.13291575]}, {"species": [{"element": "Os", "occu": 1}], "abc": [0.170325, 0.829674999999999, 0.75], "properties": {"magmom": -0.003}, "label": "Os", "xyz": [-1.3163529234499975, 3.868209516324996, 6.3987472499999996]}, {"species": [{"element": "Os", "occu": 1}], "abc": [0.170325, 0.340649, 0.75], "properties": {"magmom": -0.003}, "label": "Os", "xyz": [2.8621160000907864e-06, 1.588214305031, 6.3987472499999996]}, {"species": [{"element": "Os", "occu": 1}], "abc": [0.659351, 0.829674999999999, 0.75], "properties": {"magmom": -0.003}, "label": "Os", "xyz": [1.3163591367080025, 3.868209516324996, 6.3987472499999996]}]}, "task_ids": null, "uncorrected_energy_per_atom": null, "energy_per_atom": -11.339897431666666, "formation_energy_per_atom": -0.091182474999996, "energy_above_hull": 0.0, "is_stable": true, "equilibrium_reaction_energy_per_atom": null, "decomposes_to": null, "xas": null, "grain_boundaries": null, "band_gap": 0.0, "cbm": null, "vbm": null, "efermi": 10.208953319999999, "is_gap_direct": null, "is_metal": null, "es_source_calc_id": null, "bandstructure": null, "dos": null, "dos_energy_up": null, "dos_energy_down": null, "is_magnetic": null, "ordering": null, "total_magnetization": 0.4585066, "total_magnetization_normalized_vol": null, "total_magnetization_normalized_formula_units": null, "num_magnetic_sites": null, "num_unique_magnetic_sites": null, "types_of_magnetic_species": null, "bulk_modulus": null, "shear_modulus": null, "universal_anisotropy": null, "homogeneous_poisson": null, "e_total": null, "e_ionic": null, "e_electronic": null, "n": null, "e_ij_max": null, "weighted_surface_energy_EV_PER_ANG2": null, "weighted_surface_energy": null, "weighted_work_function": null, "surface_anisotropy": null, "shape_factor": null, "has_reconstructed": null, "possible_species": null, "has_props": null, "theoretical": null, "database_IDs": null, "fields_not_requested": ["builder_meta", "nsites", "elements", "nelements", "composition", "composition_reduced", "chemsys", "symmetry", "property_name", "deprecated", "deprecation_reasons", "last_updated", "origins", "warnings", "task_ids", "uncorrected_energy_per_atom", "equilibrium_reaction_energy_per_atom", "decomposes_to", "xas", "grain_boundaries", "cbm", "vbm", "is_gap_direct", "is_metal", "es_source_calc_id", "bandstructure", "dos", "dos_energy_up", "dos_energy_down", "is_magnetic", "ordering", "total_magnetization_normalized_vol", "total_magnetization_normalized_formula_units", "num_magnetic_sites", "num_unique_magnetic_sites", "types_of_magnetic_species", "bulk_modulus", "shear_modulus", "universal_anisotropy", "homogeneous_poisson", "e_total", "e_ionic", "e_electronic", "n", "e_ij_max", "weighted_surface_energy_EV_PER_ANG2", "weighted_surface_energy", "weighted_work_function", "surface_anisotropy", "shape_factor", "has_reconstructed", "possible_species", "has_props", "theoretical", "database_IDs"]}