{"builder_meta": null, "nsites": null, "elements": null, "nelements": null, "composition": null, "composition_reduced": null, "formula_pretty": "UP2", "formula_anonymous": "AB2", "chemsys": null, "volume": 231.7465868214535, "density": 8.597711742786172, "density_atomic": 19.31221556845446, "symmetry": null, "property_name": null, "material_id": "mp-569147", "deprecated": null, "deprecation_reasons": null, "last_updated": null, "origins": null, "warnings": null, "structure": {"@module": "pymatgen.core.structure", "@class": "Structure", "charge": 0, "lattice": {"matrix": [[5.21229682, 0.00202837, -1.70767914], [-0.54834604, 5.09374464, -1.67798519], [-0.0323153, 0.01443854, 8.73360087]], "pbc": [true, true, true], "a": 5.484907501431369, "b": 5.390969498612633, "c": 8.733672589839635, "alpha": 108.01810782568126, "beta": 108.35202896802433, "gamma": 89.96579963013346, "volume": 231.74658682145352}, "properties": {}, "sites": [{"species": [{"element": "U", "occu": 1}], "abc": [0.21784607, 0.71759311, 0.43565687000000003], "properties": {"magmom": 1.807}, "label": "U", "xyz": [0.727910655259602, 3.661968179340206, 2.2287314183574565]}, {"species": [{"element": "U", "occu": 1}], "abc": [0.71829909, 0.21863384, 0.43682987], "properties": {"magmom": 1.673}, "label": "U", "xyz": [3.6099847739438893, 1.1214291124989906, 2.221609014847175]}, {"species": [{"element": "U", "occu": 1}], "abc": [0.51059279, 0.51057922, 0.02083271], "properties": {"magmom": 1.553}, "label": "U", "xyz": [2.3807138669651757, 2.602096630184476, -1.5467284518186946]}, {"species": [{"element": "U", "occu": 1}], "abc": [0.9951679600000001, 0.99520052, 0.990211], "properties": {"magmom": 1.865}, "label": "U", "xyz": [4.609397563597646, 5.085613084442178, 5.278748351354915]}, {"species": [{"element": "P", "occu": 1}], "abc": [0.54040734, 0.04055132, 0.08060574], "properties": {"magmom": -0.111}, "label": "P", "xyz": [2.791922505378064, 0.2088180441323802, -0.2869084950248447]}, {"species": [{"element": "P", "occu": 1}], "abc": [0.6849340700000001, 0.68505965, 0.36984859000000003], "properties": {"magmom": -0.112}, "label": "P", "xyz": [3.182478160588944, 3.4962482936480006, 0.9109423968113903]}, {"species": [{"element": "P", "occu": 1}], "abc": [0.14077272, 0.14883021, 0.72147165], "properties": {"magmom": -0.034}, "label": "P", "xyz": [0.6288241717016368, 0.7688056208970317, 5.8109159044906855]}, {"species": [{"element": "P", "occu": 1}], "abc": [0.58071539, 0.14853658, 0.72148681], "properties": {"magmom": -0.034}, "label": "P", "xyz": [2.922096472472724, 0.7682025300602028, 5.060260092316311]}, {"species": [{"element": "P", "occu": 1}], "abc": [0.14028829, 0.5724968, 0.72145096], "properties": {"magmom": -0.034}, "label": "P", "xyz": [0.39398395044987783, 2.9268537615199377, 5.100656193776672]}, {"species": [{"element": "P", "occu": 1}], "abc": [0.58080424, 0.5725684600000001, 0.72142596], "properties": {"magmom": -0.035}, "label": "P", "xyz": [2.6900453491994303, 2.9281119476348416, 4.348057710683925]}, {"species": [{"element": "P", "occu": 1}], "abc": [0.0395137, 0.53943949, 0.07860844], "properties": {"magmom": -0.116}, "label": "P", "xyz": [-0.09238263062581761, 2.7489821503007805, -0.28611345638202834]}, {"species": [{"element": "P", "occu": 1}], "abc": [0.17555832, 0.17541281, 0.35137439], "properties": {"magmom": -0.11900000000000001}, "label": "P", "xyz": [0.807520384506603, 0.8989374911393674, 2.4746262999659905]}]}, "task_ids": null, "uncorrected_energy_per_atom": null, "energy_per_atom": -33.61489133833333, "formation_energy_per_atom": -0.966161588650791, "energy_above_hull": 0.0, "is_stable": true, "equilibrium_reaction_energy_per_atom": null, "decomposes_to": null, "xas": null, "grain_boundaries": null, "band_gap": 0.0, "cbm": null, "vbm": null, "efermi": 10.07066773, "is_gap_direct": null, "is_metal": null, "es_source_calc_id": null, "bandstructure": null, "dos": null, "dos_energy_up": null, "dos_energy_down": null, "is_magnetic": null, "ordering": null, "total_magnetization": 6.62472, "total_magnetization_normalized_vol": null, "total_magnetization_normalized_formula_units": null, "num_magnetic_sites": null, "num_unique_magnetic_sites": null, "types_of_magnetic_species": null, "bulk_modulus": null, "shear_modulus": null, "universal_anisotropy": null, "homogeneous_poisson": null, "e_total": null, "e_ionic": null, "e_electronic": null, "n": null, "e_ij_max": null, "weighted_surface_energy_EV_PER_ANG2": null, "weighted_surface_energy": null, "weighted_work_function": null, "surface_anisotropy": null, "shape_factor": null, "has_reconstructed": null, "possible_species": null, "has_props": null, "theoretical": null, "database_IDs": null, "fields_not_requested": ["builder_meta", "nsites", "elements", "nelements", "composition", "composition_reduced", "chemsys", "symmetry", "property_name", "deprecated", "deprecation_reasons", "last_updated", "origins", "warnings", "task_ids", "uncorrected_energy_per_atom", "equilibrium_reaction_energy_per_atom", "decomposes_to", "xas", "grain_boundaries", "cbm", "vbm", "is_gap_direct", "is_metal", "es_source_calc_id", "bandstructure", "dos", "dos_energy_up", "dos_energy_down", "is_magnetic", "ordering", "total_magnetization_normalized_vol", "total_magnetization_normalized_formula_units", "num_magnetic_sites", "num_unique_magnetic_sites", "types_of_magnetic_species", "bulk_modulus", "shear_modulus", "universal_anisotropy", "homogeneous_poisson", "e_total", "e_ionic", "e_electronic", "n", "e_ij_max", "weighted_surface_energy_EV_PER_ANG2", "weighted_surface_energy", "weighted_work_function", "surface_anisotropy", "shape_factor", "has_reconstructed", "possible_species", "has_props", "theoretical", "database_IDs"]}