{
  "builder_meta": null,
  "nsites": null,
  "elements": null,
  "nelements": null,
  "composition": null,
  "composition_reduced": null,
  "formula_pretty": "UP3",
  "formula_anonymous": "AB3",
  "chemsys": null,
  "volume": 134.12019883498223,
  "density": 8.194973379559109,
  "density_atomic": 16.76502485437278,
  "symmetry": null,
  "property_name": null,
  "material_id": "mp-865428",
  "deprecated": null,
  "deprecation_reasons": null,
  "last_updated": null,
  "origins": null,
  "warnings": null,
  "structure": {
    "@module": "pymatgen.core.structure",
    "@class": "Structure",
    "charge": 0,
    "lattice": {
      "matrix": [
        [5.42118207, -3e-7, -1e-7],
        [-2.71059079, 4.69488785, 9e-8],
        [-1.1e-7, 4e-8, 5.26956768]
      ],
      "pbc": [true, true, true],
      "a": 5.421182070000009,
      "b": 5.421187541019998,
      "c": 5.2695676800000015,
      "alpha": 89.99999807414014,
      "beta": 90.00000225291242,
      "gamma": 119.99996679691202,
      "volume": 134.12019883498223
    },
    "properties": {},
    "sites": [
      {
        "species": [{ "element": "U", "occu": 1 }],
        "abc": [0.333333, 0.66666697, 0.7499985],
        "properties": { "magmom": -0.0 },
        "label": "U",
        "xyz": [-2.5484397310569234e-6, 3.1299265874493543, 3.9521678823152073]
      },
      {
        "species": [{ "element": "U", "occu": 1 }],
        "abc": [0.66666588, 0.33333245, 0.25000019],
        "properties": { "magmom": 0.0 },
        "label": "U",
        "xyz": [2.7105892188586154, 1.564958279515976, 1.3173928845511917]
      },
      {
        "species": [{ "element": "P", "occu": 1 }],
        "abc": [0.18604411, 0.37208883, 0.24999973],
        "properties": { "magmom": -0.0 },
        "label": "P",
        "xyz": [-1.5897987382098089e-6, 1.7469152812744717, 1.31739051210031]
      },
      {
        "species": [{ "element": "P", "occu": 1 }],
        "abc": [0.62791042, 0.8139547500000001, 0.2499997],
        "properties": { "magmom": -0.0 },
        "label": "P",
        "xyz": [1.19771843414345, 3.8214260878516497, 1.3173903495945813]
      },
      {
        "species": [{ "element": "P", "occu": 1 }],
        "abc": [0.186043699999999, 0.8139547500000001, 0.24999972],
        "properties": { "magmom": -0.0 },
        "label": "P",
        "xyz": [-1.197721505650268, 3.8214262204116665, 1.317390499172607]
      },
      {
        "species": [{ "element": "P", "occu": 1 }],
        "abc": [0.81393984, 0.62788049, 0.74999936],
        "properties": { "magmom": 0.0 },
        "label": "P",
        "xyz": [2.710588910752052, 2.947828269571069, 3.9521723625919445]
      },
      {
        "species": [{ "element": "P", "occu": 1 }],
        "abc": [0.37211889000000004, 0.18605994, 0.7499994],
        "properties": { "magmom": 0.0 },
        "label": "P",
        "xyz": [1.5129918121244161, 0.8735304700420379, 3.9521725777928975]
      },
      {
        "species": [{ "element": "P", "occu": 1 }],
        "abc": [0.81394016, 0.18605982000000001, 0.74999939],
        "properties": { "magmom": 0.0 },
        "label": "P",
        "xyz": [3.908185684463941, 0.8735297741091146, 3.952172480915083]
      }
    ]
  },
  "task_ids": null,
  "uncorrected_energy_per_atom": null,
  "energy_per_atom": -27.34918602375,
  "formation_energy_per_atom": -0.612119633482144,
  "energy_above_hull": 0.11250155800594501,
  "is_stable": false,
  "equilibrium_reaction_energy_per_atom": null,
  "decomposes_to": null,
  "xas": null,
  "grain_boundaries": null,
  "band_gap": 0.0,
  "cbm": null,
  "vbm": null,
  "efermi": 10.73724795,
  "is_gap_direct": null,
  "is_metal": null,
  "es_source_calc_id": null,
  "bandstructure": null,
  "dos": null,
  "dos_energy_up": null,
  "dos_energy_down": null,
  "is_magnetic": null,
  "ordering": null,
  "total_magnetization": 0.0,
  "total_magnetization_normalized_vol": null,
  "total_magnetization_normalized_formula_units": null,
  "num_magnetic_sites": null,
  "num_unique_magnetic_sites": null,
  "types_of_magnetic_species": null,
  "bulk_modulus": null,
  "shear_modulus": null,
  "universal_anisotropy": null,
  "homogeneous_poisson": null,
  "e_total": null,
  "e_ionic": null,
  "e_electronic": null,
  "n": null,
  "e_ij_max": null,
  "weighted_surface_energy_EV_PER_ANG2": null,
  "weighted_surface_energy": null,
  "weighted_work_function": null,
  "surface_anisotropy": null,
  "shape_factor": null,
  "has_reconstructed": null,
  "possible_species": null,
  "has_props": null,
  "theoretical": null,
  "database_IDs": null,
  "fields_not_requested": [
    "builder_meta",
    "nsites",
    "elements",
    "nelements",
    "composition",
    "composition_reduced",
    "chemsys",
    "symmetry",
    "property_name",
    "deprecated",
    "deprecation_reasons",
    "last_updated",
    "origins",
    "warnings",
    "task_ids",
    "uncorrected_energy_per_atom",
    "equilibrium_reaction_energy_per_atom",
    "decomposes_to",
    "xas",
    "grain_boundaries",
    "cbm",
    "vbm",
    "is_gap_direct",
    "is_metal",
    "es_source_calc_id",
    "bandstructure",
    "dos",
    "dos_energy_up",
    "dos_energy_down",
    "is_magnetic",
    "ordering",
    "total_magnetization_normalized_vol",
    "total_magnetization_normalized_formula_units",
    "num_magnetic_sites",
    "num_unique_magnetic_sites",
    "types_of_magnetic_species",
    "bulk_modulus",
    "shear_modulus",
    "universal_anisotropy",
    "homogeneous_poisson",
    "e_total",
    "e_ionic",
    "e_electronic",
    "n",
    "e_ij_max",
    "weighted_surface_energy_EV_PER_ANG2",
    "weighted_surface_energy",
    "weighted_work_function",
    "surface_anisotropy",
    "shape_factor",
    "has_reconstructed",
    "possible_species",
    "has_props",
    "theoretical",
    "database_IDs"
  ]
}
