{"builder_meta": null, "nsites": null, "elements": null, "nelements": null, "composition": null, "composition_reduced": null, "formula_pretty": "UP4", "formula_anonymous": "AB4", "chemsys": null, "volume": 1171.3982125347889, "density": 0.513052576797959, "density_atomic": 234.27964250695777, "symmetry": null, "property_name": null, "material_id": "mp-1208168", "deprecated": null, "deprecation_reasons": null, "last_updated": null, "origins": null, "warnings": null, "structure": {"@module": "pymatgen.core.structure", "@class": "Structure", "charge": 0, "lattice": {"matrix": [[6.6851009999999995, 0.0, 0.0], [0.0, 6.6851009999999995, 0.0], [0.0, 0.0, 26.211303]], "pbc": [true, true, true], "a": 6.6851009999999995, "b": 6.6851009999999995, "c": 26.211303, "alpha": 90.0, "beta": 90.0, "gamma": 90.0, "volume": 1171.3982125347886}, "properties": {}, "sites": [{"species": [{"element": "U", "occu": 1}], "abc": [0.5, 0.5, 0.0], "properties": {"magmom": 3.856}, "label": "U", "xyz": [3.3425504999999998, 3.3425504999999998, 0.0]}, {"species": [{"element": "P", "occu": 1}], "abc": [0.5, 0.5, 0.645704], "properties": {"magmom": 0.007}, "label": "P", "xyz": [3.3425504999999998, 3.3425504999999998, 16.924743192312]}, {"species": [{"element": "P", "occu": 1}], "abc": [0.5, 0.5, 0.354296], "properties": {"magmom": 0.007}, "label": "P", "xyz": [3.3425504999999998, 3.3425504999999998, 9.286559807688]}, {"species": [{"element": "P", "occu": 1}], "abc": [0.5, 0.5, 0.281659], "properties": {"magmom": 0.007}, "label": "P", "xyz": [3.3425504999999998, 3.3425504999999998, 7.382649391677]}, {"species": [{"element": "P", "occu": 1}], "abc": [0.5, 0.5, 0.718341], "properties": {"magmom": 0.007}, "label": "P", "xyz": [3.3425504999999998, 3.3425504999999998, 18.828653608323002]}]}, "task_ids": null, "uncorrected_energy_per_atom": null, "energy_per_atom": -21.22999117947618, "formation_energy_per_atom": 1.960077195142866, "energy_above_hull": 2.539774148333332, "is_stable": false, "equilibrium_reaction_energy_per_atom": null, "decomposes_to": null, "xas": null, "grain_boundaries": null, "band_gap": 0.0, "cbm": null, "vbm": null, "efermi": -2.43648879, "is_gap_direct": null, "is_metal": null, "es_source_calc_id": null, "bandstructure": null, "dos": null, "dos_energy_up": null, "dos_energy_down": null, "is_magnetic": null, "ordering": null, "total_magnetization": 4.0, "total_magnetization_normalized_vol": null, "total_magnetization_normalized_formula_units": null, "num_magnetic_sites": null, "num_unique_magnetic_sites": null, "types_of_magnetic_species": null, "bulk_modulus": null, "shear_modulus": null, "universal_anisotropy": null, "homogeneous_poisson": null, "e_total": null, "e_ionic": null, "e_electronic": null, "n": null, "e_ij_max": null, "weighted_surface_energy_EV_PER_ANG2": null, "weighted_surface_energy": null, "weighted_work_function": null, "surface_anisotropy": null, "shape_factor": null, "has_reconstructed": null, "possible_species": null, "has_props": null, "theoretical": null, "database_IDs": null, "fields_not_requested": ["builder_meta", "nsites", "elements", "nelements", "composition", "composition_reduced", "chemsys", "symmetry", "property_name", "deprecated", "deprecation_reasons", "last_updated", "origins", "warnings", "task_ids", "uncorrected_energy_per_atom", "equilibrium_reaction_energy_per_atom", "decomposes_to", "xas", "grain_boundaries", "cbm", "vbm", "is_gap_direct", "is_metal", "es_source_calc_id", "bandstructure", "dos", "dos_energy_up", "dos_energy_down", "is_magnetic", "ordering", "total_magnetization_normalized_vol", "total_magnetization_normalized_formula_units", "num_magnetic_sites", "num_unique_magnetic_sites", "types_of_magnetic_species", "bulk_modulus", "shear_modulus", "universal_anisotropy", "homogeneous_poisson", "e_total", "e_ionic", "e_electronic", "n", "e_ij_max", "weighted_surface_energy_EV_PER_ANG2", "weighted_surface_energy", "weighted_work_function", "surface_anisotropy", "shape_factor", "has_reconstructed", "possible_species", "has_props", "theoretical", "database_IDs"]}