{"builder_meta": null, "nsites": null, "elements": null, "nelements": null, "composition": null, "composition_reduced": null, "formula_pretty": "UPb2", "formula_anonymous": "AB2", "chemsys": null, "volume": 173.27499745113212, "density": 12.504789602317514, "density_atomic": 28.879166241855355, "symmetry": null, "property_name": null, "material_id": "mp-1077277", "deprecated": null, "deprecation_reasons": null, "last_updated": null, "origins": null, "warnings": null, "structure": {"@module": "pymatgen.core.structure", "@class": "Structure", "charge": 0, "lattice": {"matrix": [[3.724011, 0.0, 0.0], [0.32919000000000004, 5.474152, 0.0], [1.026128, 1.6976200000000001, 8.499788]], "pbc": [true, true, true], "a": 3.724011, "b": 5.484041044266901, "c": 8.728187004282619, "alpha": 78.39257234622666, "beta": 83.24841607687792, "gamma": 86.5586430188273, "volume": 173.27499745113212}, "properties": {}, "sites": [{"species": [{"element": "U", "occu": 1}], "abc": [0.744278, 0.653473, 0.972986999999999], "properties": {"magmom": 0.004}, "label": "U", "xyz": [3.985225440263999, 5.228972720835999, 8.270183226755993]}, {"species": [{"element": "U", "occu": 1}], "abc": [0.255722, 0.346527, 0.027013], "properties": {"magmom": 0.004}, "label": "U", "xyz": [1.0941035597359998, 1.9427992791639999, 0.229604773244]}, {"species": [{"element": "Pb", "occu": 1}], "abc": [0.852634, 0.206043999999999, 0.736663], "properties": {"magmom": -0.0}, "label": "Pb", "xyz": [3.9989565501979993, 2.3784900167479948, 6.261479327444]}, {"species": [{"element": "Pb", "occu": 1}], "abc": [0.147366, 0.793956, 0.263337], "properties": {"magmom": -0.0}, "label": "Pb", "xyz": [1.080372449802, 4.793281983252, 2.238308672556]}, {"species": [{"element": "Pb", "occu": 1}], "abc": [0.350153999999999, 0.714171999999999, 0.636595999999999], "properties": {"magmom": 0.0}, "label": "Pb", "xyz": [2.192304608661995, 4.9901841836639935, 5.410931041647992]}, {"species": [{"element": "Pb", "occu": 1}], "abc": [0.649845999999999, 0.285827999999999, 0.363404], "properties": {"magmom": 0.0}, "label": "Pb", "xyz": [2.887024391337996, 2.1815878163359947, 3.0888569583520002]}]}, "task_ids": null, "uncorrected_energy_per_atom": null, "energy_per_atom": -63.961360758333335, "formation_energy_per_atom": 0.209407523333339, "energy_above_hull": 0.209407523333332, "is_stable": false, "equilibrium_reaction_energy_per_atom": null, "decomposes_to": null, "xas": null, "grain_boundaries": null, "band_gap": 0.0, "cbm": null, "vbm": null, "efermi": 8.40547826, "is_gap_direct": null, "is_metal": null, "es_source_calc_id": null, "bandstructure": null, "dos": null, "dos_energy_up": null, "dos_energy_down": null, "is_magnetic": null, "ordering": null, "total_magnetization": 0.0080103, "total_magnetization_normalized_vol": null, "total_magnetization_normalized_formula_units": null, "num_magnetic_sites": null, "num_unique_magnetic_sites": null, "types_of_magnetic_species": null, "bulk_modulus": null, "shear_modulus": null, "universal_anisotropy": null, "homogeneous_poisson": null, "e_total": null, "e_ionic": null, "e_electronic": null, "n": null, "e_ij_max": null, "weighted_surface_energy_EV_PER_ANG2": null, "weighted_surface_energy": null, "weighted_work_function": null, "surface_anisotropy": null, "shape_factor": null, "has_reconstructed": null, "possible_species": null, "has_props": null, "theoretical": null, "database_IDs": null, "fields_not_requested": ["builder_meta", "nsites", "elements", "nelements", "composition", "composition_reduced", "chemsys", "symmetry", "property_name", "deprecated", "deprecation_reasons", "last_updated", "origins", "warnings", "task_ids", "uncorrected_energy_per_atom", "equilibrium_reaction_energy_per_atom", "decomposes_to", "xas", "grain_boundaries", "cbm", "vbm", "is_gap_direct", "is_metal", "es_source_calc_id", "bandstructure", "dos", "dos_energy_up", "dos_energy_down", "is_magnetic", "ordering", "total_magnetization_normalized_vol", "total_magnetization_normalized_formula_units", "num_magnetic_sites", "num_unique_magnetic_sites", "types_of_magnetic_species", "bulk_modulus", "shear_modulus", "universal_anisotropy", "homogeneous_poisson", "e_total", "e_ionic", "e_electronic", "n", "e_ij_max", "weighted_surface_energy_EV_PER_ANG2", "weighted_surface_energy", "weighted_work_function", "surface_anisotropy", "shape_factor", "has_reconstructed", "possible_species", "has_props", "theoretical", "database_IDs"]}