{"builder_meta": null, "nsites": null, "elements": null, "nelements": null, "composition": null, "composition_reduced": null, "formula_pretty": "UPd3", "formula_anonymous": "AB3", "chemsys": null, "volume": 283.23915705476577, "density": 13.068814581438685, "density_atomic": 17.70244731592286, "symmetry": null, "property_name": null, "material_id": "mp-30841", "deprecated": null, "deprecation_reasons": null, "last_updated": null, "origins": null, "warnings": null, "structure": {"@module": "pymatgen.core.structure", "@class": "Structure", "charge": 0, "lattice": {"matrix": [[5.84316533, -0.0, 0.0], [-2.92158266, 5.0603309, -0.0], [0.0, 0.0, 9.57913297]], "pbc": [true, true, true], "a": 5.84316533, "b": 5.843166440955407, "c": 9.57913297, "alpha": 90.0, "beta": 90.0, "gamma": 119.99999365397072, "volume": 283.23915705476577}, "properties": {}, "sites": [{"species": [{"element": "U", "occu": 1}], "abc": [0.0, 0.0, -0.0], "properties": {"magmom": 2.214}, "label": "U", "xyz": [0.0, 0.0, 0.0]}, {"species": [{"element": "U", "occu": 1}], "abc": [0.0, 0.0, 0.5], "properties": {"magmom": 2.214}, "label": "U", "xyz": [0.0, 0.0, 4.789566485]}, {"species": [{"element": "U", "occu": 1}], "abc": [0.333333, 0.666667, 0.25], "properties": {"magmom": 2.27}, "label": "U", "xyz": [-2.918249330186029e-06, 3.3735556201103, 2.3947832425]}, {"species": [{"element": "U", "occu": 1}], "abc": [0.666667, 0.333333, 0.75], "properties": {"magmom": 2.27}, "label": "U", "xyz": [2.92158558824933, 1.6867752798897, 7.1843497275]}, {"species": [{"element": "Pd", "occu": 1}], "abc": [0.5, -0.0, -0.0], "properties": {"magmom": 0.006}, "label": "Pd", "xyz": [2.921582665, 0.0, 0.0]}, {"species": [{"element": "Pd", "occu": 1}], "abc": [0.5, 0.5, 0.5], "properties": {"magmom": 0.006}, "label": "Pd", "xyz": [1.460791335, 2.53016545, 4.789566485]}, {"species": [{"element": "Pd", "occu": 1}], "abc": [0.0, 0.5, 0.5], "properties": {"magmom": 0.006}, "label": "Pd", "xyz": [-1.46079133, 2.53016545, 4.789566485]}, {"species": [{"element": "Pd", "occu": 1}], "abc": [0.0, 0.5, -0.0], "properties": {"magmom": 0.006}, "label": "Pd", "xyz": [-1.46079133, 2.53016545, 0.0]}, {"species": [{"element": "Pd", "occu": 1}], "abc": [0.5, 0.5, -0.0], "properties": {"magmom": 0.006}, "label": "Pd", "xyz": [1.460791335, 2.53016545, 0.0]}, {"species": [{"element": "Pd", "occu": 1}], "abc": [0.5, 0.0, 0.5], "properties": {"magmom": 0.006}, "label": "Pd", "xyz": [2.921582665, 0.0, 4.789566485]}, {"species": [{"element": "Pd", "occu": 1}], "abc": [0.8262289700000001, 0.65245793, 0.25], "properties": {"magmom": -0.006}, "label": "Pd", "xyz": [2.921582697478117, 3.301653024129037, 2.3947832425]}, {"species": [{"element": "Pd", "occu": 1}], "abc": [0.17377103, 0.8262289700000001, 0.75], "properties": {"magmom": -0.006}, "label": "Pd", "xyz": [-1.3985233740872705, 4.180991987366173, 7.1843497275]}, {"species": [{"element": "Pd", "occu": 1}], "abc": [0.65245793, 0.8262289700000001, 0.75], "properties": {"magmom": -0.006}, "label": "Pd", "xyz": [1.3985233239179062, 4.180991987366173, 7.1843497275]}, {"species": [{"element": "Pd", "occu": 1}], "abc": [0.34754207, 0.17377103, 0.25], "properties": {"magmom": -0.006}, "label": "Pd", "xyz": [1.523059346082093, 0.879338912633827, 2.3947832425]}, {"species": [{"element": "Pd", "occu": 1}], "abc": [0.8262289700000001, 0.17377103, 0.25], "properties": {"magmom": -0.006}, "label": "Pd", "xyz": [4.320106044087271, 0.879338912633827, 2.3947832425]}, {"species": [{"element": "Pd", "occu": 1}], "abc": [0.17377103, 0.34754207, 0.75], "properties": {"magmom": -0.006}, "label": "Pd", "xyz": [-2.7478116226831162e-08, 1.758677875870963, 7.1843497275]}]}, "task_ids": null, "uncorrected_energy_per_atom": null, "energy_per_atom": -37.880811199375, "formation_energy_per_atom": -0.674961835624998, "energy_above_hull": 0.0, "is_stable": true, "equilibrium_reaction_energy_per_atom": null, "decomposes_to": null, "xas": null, "grain_boundaries": null, "band_gap": 0.0, "cbm": null, "vbm": null, "efermi": 7.8279145, "is_gap_direct": null, "is_metal": null, "es_source_calc_id": null, "bandstructure": null, "dos": null, "dos_energy_up": null, "dos_energy_down": null, "is_magnetic": null, "ordering": null, "total_magnetization": 9.3308092, "total_magnetization_normalized_vol": null, "total_magnetization_normalized_formula_units": null, "num_magnetic_sites": null, "num_unique_magnetic_sites": null, "types_of_magnetic_species": null, "bulk_modulus": null, "shear_modulus": null, "universal_anisotropy": null, "homogeneous_poisson": null, "e_total": null, "e_ionic": null, "e_electronic": null, "n": null, "e_ij_max": null, "weighted_surface_energy_EV_PER_ANG2": null, "weighted_surface_energy": null, "weighted_work_function": null, "surface_anisotropy": null, "shape_factor": null, "has_reconstructed": null, "possible_species": null, "has_props": null, "theoretical": null, "database_IDs": null, "fields_not_requested": ["builder_meta", "nsites", "elements", "nelements", "composition", "composition_reduced", "chemsys", "symmetry", "property_name", "deprecated", "deprecation_reasons", "last_updated", "origins", "warnings", "task_ids", "uncorrected_energy_per_atom", "equilibrium_reaction_energy_per_atom", "decomposes_to", "xas", "grain_boundaries", "cbm", "vbm", "is_gap_direct", "is_metal", "es_source_calc_id", "bandstructure", "dos", "dos_energy_up", "dos_energy_down", "is_magnetic", "ordering", "total_magnetization_normalized_vol", "total_magnetization_normalized_formula_units", "num_magnetic_sites", "num_unique_magnetic_sites", "types_of_magnetic_species", "bulk_modulus", "shear_modulus", "universal_anisotropy", "homogeneous_poisson", "e_total", "e_ionic", "e_electronic", "n", "e_ij_max", "weighted_surface_energy_EV_PER_ANG2", "weighted_surface_energy", "weighted_work_function", "surface_anisotropy", "shape_factor", "has_reconstructed", "possible_species", "has_props", "theoretical", "database_IDs"]}