{"builder_meta": null, "nsites": null, "elements": null, "nelements": null, "composition": null, "composition_reduced": null, "formula_pretty": "UPt", "formula_anonymous": "AB", "chemsys": null, "volume": 91.30193651137576, "density": 15.754340702602752, "density_atomic": 22.82548412784394, "symmetry": null, "property_name": null, "material_id": "mp-569752", "deprecated": null, "deprecation_reasons": null, "last_updated": null, "origins": null, "warnings": null, "structure": {"@module": "pymatgen.core.structure", "@class": "Structure", "charge": 0, "lattice": {"matrix": [[3.75465699, 0.0, -1.28831556], [0.0, 4.28283076, 0.0], [-0.13435129, -0.0, 5.72388248]], "pbc": [true, true, true], "a": 3.969534745369282, "b": 4.28283076, "c": 5.725459013387103, "alpha": 90.0, "beta": 110.28296363184407, "gamma": 90.0, "volume": 91.30193651137576}, "properties": {}, "sites": [{"species": [{"element": "U", "occu": 1}], "abc": [0.13326354, 0.75, 0.26652507000000003], "properties": {"magmom": 2.472}, "label": "U", "xyz": [0.4645508950013043, 3.2121230700000005, 1.3538726864910915]}, {"species": [{"element": "U", "occu": 1}], "abc": [0.86673846, 0.25, 0.7334779300000001], "properties": {"magmom": 2.472}, "label": "U", "xyz": [3.155761911258806, 1.07070769, 3.0817088285252288]}, {"species": [{"element": "Pt", "occu": 1}], "abc": [0.5977362900000001, 0.25, 0.19547258], "properties": {"magmom": -0.041}, "label": "Pt", "xyz": [2.2180327461425393, 1.07070769, 0.34878911279872593]}, {"species": [{"element": "Pt", "occu": 1}], "abc": [0.40226171, 0.75, 0.80452442], "properties": {"magmom": -0.041}, "label": "Pt", "xyz": [1.402265847597351, 3.2121230700000005, 4.086763212184954]}]}, "task_ids": null, "uncorrected_energy_per_atom": null, "energy_per_atom": -66.5887017475, "formation_energy_per_atom": -0.8738249849999981, "energy_above_hull": 0.0, "is_stable": true, "equilibrium_reaction_energy_per_atom": null, "decomposes_to": null, "xas": null, "grain_boundaries": null, "band_gap": 0.0, "cbm": null, "vbm": null, "efermi": 9.56426471, "is_gap_direct": null, "is_metal": null, "es_source_calc_id": null, "bandstructure": null, "dos": null, "dos_energy_up": null, "dos_energy_down": null, "is_magnetic": null, "ordering": null, "total_magnetization": 5.3750679, "total_magnetization_normalized_vol": null, "total_magnetization_normalized_formula_units": null, "num_magnetic_sites": null, "num_unique_magnetic_sites": null, "types_of_magnetic_species": null, "bulk_modulus": null, "shear_modulus": null, "universal_anisotropy": null, "homogeneous_poisson": null, "e_total": null, "e_ionic": null, "e_electronic": null, "n": null, "e_ij_max": null, "weighted_surface_energy_EV_PER_ANG2": null, "weighted_surface_energy": null, "weighted_work_function": null, "surface_anisotropy": null, "shape_factor": null, "has_reconstructed": null, "possible_species": null, "has_props": null, "theoretical": null, "database_IDs": null, "fields_not_requested": ["builder_meta", "nsites", "elements", "nelements", "composition", "composition_reduced", "chemsys", "symmetry", "property_name", "deprecated", "deprecation_reasons", "last_updated", "origins", "warnings", "task_ids", "uncorrected_energy_per_atom", "equilibrium_reaction_energy_per_atom", "decomposes_to", "xas", "grain_boundaries", "cbm", "vbm", "is_gap_direct", "is_metal", "es_source_calc_id", "bandstructure", "dos", "dos_energy_up", "dos_energy_down", "is_magnetic", "ordering", "total_magnetization_normalized_vol", "total_magnetization_normalized_formula_units", "num_magnetic_sites", "num_unique_magnetic_sites", "types_of_magnetic_species", "bulk_modulus", "shear_modulus", "universal_anisotropy", "homogeneous_poisson", "e_total", "e_ionic", "e_electronic", "n", "e_ij_max", "weighted_surface_energy_EV_PER_ANG2", "weighted_surface_energy", "weighted_work_function", "surface_anisotropy", "shape_factor", "has_reconstructed", "possible_species", "has_props", "theoretical", "database_IDs"]}