{"builder_meta": null, "nsites": null, "elements": null, "nelements": null, "composition": null, "composition_reduced": null, "formula_pretty": "UPt2", "formula_anonymous": "AB2", "chemsys": null, "volume": 118.26961662473963, "density": 17.640126692592986, "density_atomic": 19.711602770789938, "symmetry": null, "property_name": null, "material_id": "mp-30854", "deprecated": null, "deprecation_reasons": null, "last_updated": null, "origins": null, "warnings": null, "structure": {"@module": "pymatgen.core.structure", "@class": "Structure", "charge": 0, "lattice": {"matrix": [[4.15475694, -1e-08, 0.0], [-2.07737899, 4.98379069, -0.0], [0.0, 0.0, 5.71173136]], "pbc": [true, true, true], "a": 4.15475694, "b": 5.399414145055378, "c": 5.71173136, "alpha": 90.0, "beta": 90.0, "gamma": 112.62769670979186, "volume": 118.26961662473963}, "properties": {}, "sites": [{"species": [{"element": "U", "occu": 1}], "abc": [0.32490233, 0.64980366, 0.75], "properties": {"magmom": -2.033}, "label": "U", "xyz": [1.739480566920193e-06, 3.238485427786902, 4.2837985199999995]}, {"species": [{"element": "U", "occu": 1}], "abc": [0.67509767, 0.35019634, 0.25], "properties": {"magmom": -2.033}, "label": "U", "xyz": [2.077376210519433, 1.745305252213098, 1.42793284]}, {"species": [{"element": "Pt", "occu": 1}], "abc": [0.0, -0.0, -0.0], "properties": {"magmom": 0.053}, "label": "Pt", "xyz": [0.0, 0.0, 0.0]}, {"species": [{"element": "Pt", "occu": 1}], "abc": [0.0, -0.0, 0.5], "properties": {"magmom": 0.053}, "label": "Pt", "xyz": [0.0, 0.0, 2.85586568]}, {"species": [{"element": "Pt", "occu": 1}], "abc": [0.62958878, 0.25917757, 0.75], "properties": {"magmom": 0.046}, "label": "Pt", "xyz": [2.0773783144538793, 1.2916867541269357, 4.2837985199999995]}, {"species": [{"element": "Pt", "occu": 1}], "abc": [0.37041122, 0.74082243, 0.25], "properties": {"magmom": 0.046}, "label": "Pt", "xyz": [-3.644538788538654e-07, 3.692103925873065, 1.42793284]}]}, "task_ids": null, "uncorrected_energy_per_atom": null, "energy_per_atom": -61.915076379999995, "formation_energy_per_atom": -0.9425862383333291, "energy_above_hull": 0.0, "is_stable": true, "equilibrium_reaction_energy_per_atom": null, "decomposes_to": null, "xas": null, "grain_boundaries": null, "band_gap": 0.0, "cbm": null, "vbm": null, "efermi": 9.45923214, "is_gap_direct": null, "is_metal": null, "es_source_calc_id": null, "bandstructure": null, "dos": null, "dos_energy_up": null, "dos_energy_down": null, "is_magnetic": null, "ordering": null, "total_magnetization": 4.1332735, "total_magnetization_normalized_vol": null, "total_magnetization_normalized_formula_units": null, "num_magnetic_sites": null, "num_unique_magnetic_sites": null, "types_of_magnetic_species": null, "bulk_modulus": null, "shear_modulus": null, "universal_anisotropy": null, "homogeneous_poisson": null, "e_total": null, "e_ionic": null, "e_electronic": null, "n": null, "e_ij_max": null, "weighted_surface_energy_EV_PER_ANG2": null, "weighted_surface_energy": null, "weighted_work_function": null, "surface_anisotropy": null, "shape_factor": null, "has_reconstructed": null, "possible_species": null, "has_props": null, "theoretical": null, "database_IDs": null, "fields_not_requested": ["builder_meta", "nsites", "elements", "nelements", "composition", "composition_reduced", "chemsys", "symmetry", "property_name", "deprecated", "deprecation_reasons", "last_updated", "origins", "warnings", "task_ids", "uncorrected_energy_per_atom", "equilibrium_reaction_energy_per_atom", "decomposes_to", "xas", "grain_boundaries", "cbm", "vbm", "is_gap_direct", "is_metal", "es_source_calc_id", "bandstructure", "dos", "dos_energy_up", "dos_energy_down", "is_magnetic", "ordering", "total_magnetization_normalized_vol", "total_magnetization_normalized_formula_units", "num_magnetic_sites", "num_unique_magnetic_sites", "types_of_magnetic_species", "bulk_modulus", "shear_modulus", "universal_anisotropy", "homogeneous_poisson", "e_total", "e_ionic", "e_electronic", "n", "e_ij_max", "weighted_surface_energy_EV_PER_ANG2", "weighted_surface_energy", "weighted_work_function", "surface_anisotropy", "shape_factor", "has_reconstructed", "possible_species", "has_props", "theoretical", "database_IDs"]}