{"builder_meta": null, "nsites": null, "elements": null, "nelements": null, "composition": null, "composition_reduced": null, "formula_pretty": "UPt3", "formula_anonymous": "AB3", "chemsys": null, "volume": 142.81488759087995, "density": 19.144924410923945, "density_atomic": 17.851860948859994, "symmetry": null, "property_name": null, "material_id": "mp-30855", "deprecated": null, "deprecation_reasons": null, "last_updated": null, "origins": null, "warnings": null, "structure": {"@module": "pymatgen.core.structure", "@class": "Structure", "charge": 0, "lattice": {"matrix": [[5.79871005, 2.149999999999999e-06, 0.0], [-2.8993528900000003, 5.02178538, 1e-06], [0.0, 1.04e-06, 4.90437701]], "pbc": [true, true, true], "a": 5.798710050000399, "b": 5.798670156469853, "c": 4.90437701000011, "alpha": 89.99997959706535, "beta": 89.9999999999955, "gamma": 120.00018197845218, "volume": 142.81488759087995}, "properties": {}, "sites": [{"species": [{"element": "U", "occu": 1}], "abc": [0.33333739, 0.66667379, 0.25], "properties": {"magmom": -1.899}, "label": "U", "xyz": [4.293710016201047e-06, 3.347893668526579, 1.22609491917379]}, {"species": [{"element": "U", "occu": 1}], "abc": [0.66666788, 0.33334076, 0.75], "properties": {"magmom": -1.899}, "label": "U", "xyz": [2.8993412399073977, 1.6739679684620308, 3.6782830908407598]}, {"species": [{"element": "Pt", "occu": 1}], "abc": [0.83746564, 0.67493328, 0.25], "properties": {"magmom": -0.016}, "label": "Pt", "xyz": [2.899350667272503, 3.389372138530572, 1.22609492743328]}, {"species": [{"element": "Pt", "occu": 1}], "abc": [0.1625627, 0.83743173, 0.75], "properties": {"magmom": -0.016}, "label": "Pt", "xyz": [-1.485356144308065, 4.205403547971912, 3.67828359493173]}, {"species": [{"element": "Pt", "occu": 1}], "abc": [0.67486503, 0.83742773, 0.75], "properties": {"magmom": -0.016}, "label": "Pt", "xyz": [1.4853481227129115, 4.205384562280401, 3.6782835949277297]}, {"species": [{"element": "Pt", "occu": 1}], "abc": [0.32506839, 0.16253332, 0.25], "properties": {"magmom": -0.016}, "label": "Pt", "xyz": [1.4137358889670248, 0.8162084090359001, 1.22609441503332]}, {"species": [{"element": "Pt", "occu": 1}], "abc": [0.8374649200000001, 0.16253232, 0.25], "properties": {"magmom": -0.016}, "label": "Pt", "xyz": [4.384977696416041, 0.8162044889030596, 1.22609441503232]}, {"species": [{"element": "Pt", "occu": 1}], "abc": [0.16256704, 0.32513109, 0.75], "properties": {"magmom": -0.016}, "label": "Pt", "xyz": [9.363226401881697e-06, 1.6327396838646002, 3.67828308263109]}]}, "task_ids": null, "uncorrected_energy_per_atom": null, "energy_per_atom": -59.51262561375, "formation_energy_per_atom": -0.9113287825, "energy_above_hull": 0.0, "is_stable": true, "equilibrium_reaction_energy_per_atom": null, "decomposes_to": null, "xas": null, "grain_boundaries": null, "band_gap": 0.0, "cbm": null, "vbm": null, "efermi": 9.26467047, "is_gap_direct": null, "is_metal": null, "es_source_calc_id": null, "bandstructure": null, "dos": null, "dos_energy_up": null, "dos_energy_down": null, "is_magnetic": null, "ordering": null, "total_magnetization": 4.0654203, "total_magnetization_normalized_vol": null, "total_magnetization_normalized_formula_units": null, "num_magnetic_sites": null, "num_unique_magnetic_sites": null, "types_of_magnetic_species": null, "bulk_modulus": null, "shear_modulus": null, "universal_anisotropy": null, "homogeneous_poisson": null, "e_total": null, "e_ionic": null, "e_electronic": null, "n": null, "e_ij_max": null, "weighted_surface_energy_EV_PER_ANG2": null, "weighted_surface_energy": null, "weighted_work_function": null, "surface_anisotropy": null, "shape_factor": null, "has_reconstructed": null, "possible_species": null, "has_props": null, "theoretical": null, "database_IDs": null, "fields_not_requested": ["builder_meta", "nsites", "elements", "nelements", "composition", "composition_reduced", "chemsys", "symmetry", "property_name", "deprecated", "deprecation_reasons", "last_updated", "origins", "warnings", "task_ids", "uncorrected_energy_per_atom", "equilibrium_reaction_energy_per_atom", "decomposes_to", "xas", "grain_boundaries", "cbm", "vbm", "is_gap_direct", "is_metal", "es_source_calc_id", "bandstructure", "dos", "dos_energy_up", "dos_energy_down", "is_magnetic", "ordering", "total_magnetization_normalized_vol", "total_magnetization_normalized_formula_units", "num_magnetic_sites", "num_unique_magnetic_sites", "types_of_magnetic_species", "bulk_modulus", "shear_modulus", "universal_anisotropy", "homogeneous_poisson", "e_total", "e_ionic", "e_electronic", "n", "e_ij_max", "weighted_surface_energy_EV_PER_ANG2", "weighted_surface_energy", "weighted_work_function", "surface_anisotropy", "shape_factor", "has_reconstructed", "possible_species", "has_props", "theoretical", "database_IDs"]}