{"builder_meta": null, "nsites": null, "elements": null, "nelements": null, "composition": null, "composition_reduced": null, "formula_pretty": "UPt5", "formula_anonymous": "AB5", "chemsys": null, "volume": 103.89629127150054, "density": 19.394140981535784, "density_atomic": 17.31604854525009, "symmetry": null, "property_name": null, "material_id": "mp-1072444", "deprecated": null, "deprecation_reasons": null, "last_updated": null, "origins": null, "warnings": null, "structure": {"@module": "pymatgen.core.structure", "@class": "Structure", "charge": 0, "lattice": {"matrix": [[-3.73126937, -3.73126937, -1e-08], [-3.73127246, 2.069999999999999e-06, -3.73126628], [2.069999999999999e-06, -3.73127246, -3.73126628]], "pbc": [true, true, true], "a": 5.276811747921315, "b": 5.276811747923529, "c": 5.276811747923529, "alpha": 60.000091492410014, "beta": 59.99999086850295, "gamma": 59.99999086850295, "volume": 103.89629127150054}, "properties": {}, "sites": [{"species": [{"element": "U", "occu": 1}], "abc": [-0.0, 0.0, 0.0], "properties": {"magmom": -1.593}, "label": "U", "xyz": [0.0, 0.0, 0.0]}, {"species": [{"element": "Pt", "occu": 1}], "abc": [0.75, 0.75, 0.75], "properties": {"magmom": 0.076}, "label": "Pt", "xyz": [-5.596904820000001, -5.596904820000001, -5.5968994275]}, {"species": [{"element": "Pt", "occu": 1}], "abc": [0.87373972, 0.37541976, 0.37541976], "properties": {"magmom": 0.114}, "label": "Pt", "xyz": [-4.660950888897283, -4.6609508888972835, -2.8015821914047825]}, {"species": [{"element": "Pt", "occu": 1}], "abc": [0.37541976, 0.87373872, 0.37541976], "properties": {"magmom": 0.114}, "label": "Pt", "xyz": [-4.660948697433499, -2.8015838541694102, -4.660942918554252]}, {"species": [{"element": "Pt", "occu": 1}], "abc": [0.37541976, 0.37541976, 0.87373872], "properties": {"magmom": 0.114}, "label": "Pt", "xyz": [-2.8015838541694102, -4.660948697433499, -4.660942918554252]}, {"species": [{"element": "Pt", "occu": 1}], "abc": [0.37541976, 0.37541976, 0.37541976], "properties": {"magmom": 0.114}, "label": "Pt", "xyz": [-2.8015848856896577, -2.8015848856896577, -2.801582186421583]}]}, "task_ids": null, "uncorrected_energy_per_atom": null, "energy_per_atom": -56.848882014999994, "formation_energy_per_atom": -0.6187784941666621, "energy_above_hull": 0.0, "is_stable": true, "equilibrium_reaction_energy_per_atom": null, "decomposes_to": null, "xas": null, "grain_boundaries": null, "band_gap": 0.0, "cbm": null, "vbm": null, "efermi": 8.39164606, "is_gap_direct": null, "is_metal": null, "es_source_calc_id": null, "bandstructure": null, "dos": null, "dos_energy_up": null, "dos_energy_down": null, "is_magnetic": null, "ordering": null, "total_magnetization": 1.1711862, "total_magnetization_normalized_vol": null, "total_magnetization_normalized_formula_units": null, "num_magnetic_sites": null, "num_unique_magnetic_sites": null, "types_of_magnetic_species": null, "bulk_modulus": null, "shear_modulus": null, "universal_anisotropy": null, "homogeneous_poisson": null, "e_total": null, "e_ionic": null, "e_electronic": null, "n": null, "e_ij_max": null, "weighted_surface_energy_EV_PER_ANG2": null, "weighted_surface_energy": null, "weighted_work_function": null, "surface_anisotropy": null, "shape_factor": null, "has_reconstructed": null, "possible_species": null, "has_props": null, "theoretical": null, "database_IDs": null, "fields_not_requested": ["builder_meta", "nsites", "elements", "nelements", "composition", "composition_reduced", "chemsys", "symmetry", "property_name", "deprecated", "deprecation_reasons", "last_updated", "origins", "warnings", "task_ids", "uncorrected_energy_per_atom", "equilibrium_reaction_energy_per_atom", "decomposes_to", "xas", "grain_boundaries", "cbm", "vbm", "is_gap_direct", "is_metal", "es_source_calc_id", "bandstructure", "dos", "dos_energy_up", "dos_energy_down", "is_magnetic", "ordering", "total_magnetization_normalized_vol", "total_magnetization_normalized_formula_units", "num_magnetic_sites", "num_unique_magnetic_sites", "types_of_magnetic_species", "bulk_modulus", "shear_modulus", "universal_anisotropy", "homogeneous_poisson", "e_total", "e_ionic", "e_electronic", "n", "e_ij_max", "weighted_surface_energy_EV_PER_ANG2", "weighted_surface_energy", "weighted_work_function", "surface_anisotropy", "shape_factor", "has_reconstructed", "possible_species", "has_props", "theoretical", "database_IDs"]}