{"builder_meta": null, "nsites": null, "elements": null, "nelements": null, "composition": null, "composition_reduced": null, "formula_pretty": "URe2", "formula_anonymous": "AB2", "chemsys": null, "volume": 208.5988304751001, "density": 19.43758356986543, "density_atomic": 17.38323587292501, "symmetry": null, "property_name": null, "material_id": "mp-569480", "deprecated": null, "deprecation_reasons": null, "last_updated": null, "origins": null, "warnings": null, "structure": {"@module": "pymatgen.core.structure", "@class": "Structure", "charge": 0, "lattice": {"matrix": [[5.25774678, 0.20480991, 0.00053549], [-2.22346366, 4.76873544, 0.00028444], [0.00080431, 0.00085116, 8.1713129]], "pbc": [true, true, true], "a": 5.261734370773967, "b": 5.261618422591922, "c": 8.171312983914785, "alpha": 89.99387673753755, "beta": 89.98830126141088, "gamma": 112.76692017276052, "volume": 208.59883047510007}, "properties": {}, "sites": [{"species": [{"element": "U", "occu": 1}], "abc": [0.33734883, 0.6626054, 0.58776447], "properties": {"magmom": -0.037}, "label": "U", "xyz": [0.30088844169036877, 3.2293825188325664, 4.803176514277616]}, {"species": [{"element": "U", "occu": 1}], "abc": [0.66268195, 0.33738541, 0.08769897], "properties": {"magmom": -0.037}, "label": "U", "xyz": [2.7341202273859806, 1.7447002379993601, 0.717066550341139]}, {"species": [{"element": "U", "occu": 1}], "abc": [0.6626511700000001, 0.3373946, 0.41223553], "properties": {"magmom": -0.037}, "label": "U", "xyz": [2.7341989883096307, 1.7450139911674334, 3.3689563157223845]}, {"species": [{"element": "U", "occu": 1}], "abc": [0.33731805, 0.66261459, 0.9123010300000001], "properties": {"magmom": -0.037}, "label": "U", "xyz": [0.30096720261401855, 3.2296962720006404, 7.455066279658862]}, {"species": [{"element": "Re", "occu": 1}], "abc": [0.17631191000000002, 0.823634499999999, 0.24989824], "properties": {"magmom": 0.001}, "label": "Re", "xyz": [-0.9041170071407039, 3.964018159561662, 2.042325400061162]}, {"species": [{"element": "Re", "occu": 1}], "abc": [0.16785269, 0.33987798, 0.24991054000000001], "properties": {"magmom": 0.003}, "label": "Re", "xyz": [0.1270216085440586, 1.6553787766889958, 2.0422837776775653]}, {"species": [{"element": "Re", "occu": 1}], "abc": [0.83214731, 0.66012202, 0.75008946], "properties": {"magmom": 0.003}, "label": "Re", "xyz": [2.9080658214559403, 3.3190177333110045, 6.1298490523224345]}, {"species": [{"element": "Re", "occu": 1}], "abc": [-0.0, 0.0, 0.0], "properties": {"magmom": 0.001}, "label": "Re", "xyz": [0.0, 0.0, 0.0]}, {"species": [{"element": "Re", "occu": 1}], "abc": [0.66013993, 0.8321423, 0.24992957000000002], "properties": {"magmom": 0.003}, "label": "Re", "xyz": [1.620811448160554, 4.10368240683662, 2.0428429123193808]}, {"species": [{"element": "Re", "occu": 1}], "abc": [0.33986007, 0.1678577, 0.7500704300000001], "properties": {"magmom": 0.003}, "label": "Re", "xyz": [1.414275981839446, 0.8707141031633805, 6.1292899176806195]}, {"species": [{"element": "Re", "occu": 1}], "abc": [0.82368809, 0.176365499999999, 0.7501017600000001], "properties": {"magmom": 0.001}, "label": "Re", "xyz": [3.9392044371407073, 1.0103783504383288, 6.129807429938839]}, {"species": [{"element": "Re", "occu": 1}], "abc": [-0.0, 0.0, 0.5], "properties": {"magmom": 0.001}, "label": "Re", "xyz": [0.000402155, 0.00042558, 4.08565645]}]}, "task_ids": null, "uncorrected_energy_per_atom": null, "energy_per_atom": -12.079117435, "formation_energy_per_atom": -0.016571293333332, "energy_above_hull": 0.0, "is_stable": true, "equilibrium_reaction_energy_per_atom": null, "decomposes_to": null, "xas": null, "grain_boundaries": null, "band_gap": 0.0, "cbm": null, "vbm": null, "efermi": 9.53080555, "is_gap_direct": null, "is_metal": null, "es_source_calc_id": null, "bandstructure": null, "dos": null, "dos_energy_up": null, "dos_energy_down": null, "is_magnetic": null, "ordering": null, "total_magnetization": 1.2701376, "total_magnetization_normalized_vol": null, "total_magnetization_normalized_formula_units": null, "num_magnetic_sites": null, "num_unique_magnetic_sites": null, "types_of_magnetic_species": null, "bulk_modulus": null, "shear_modulus": null, "universal_anisotropy": null, "homogeneous_poisson": null, "e_total": null, "e_ionic": null, "e_electronic": null, "n": null, "e_ij_max": null, "weighted_surface_energy_EV_PER_ANG2": null, "weighted_surface_energy": null, "weighted_work_function": null, "surface_anisotropy": null, "shape_factor": null, "has_reconstructed": null, "possible_species": null, "has_props": null, "theoretical": null, "database_IDs": null, "fields_not_requested": ["builder_meta", "nsites", "elements", "nelements", "composition", "composition_reduced", "chemsys", "symmetry", "property_name", "deprecated", "deprecation_reasons", "last_updated", "origins", "warnings", "task_ids", "uncorrected_energy_per_atom", "equilibrium_reaction_energy_per_atom", "decomposes_to", "xas", "grain_boundaries", "cbm", "vbm", "is_gap_direct", "is_metal", "es_source_calc_id", "bandstructure", "dos", "dos_energy_up", "dos_energy_down", "is_magnetic", "ordering", "total_magnetization_normalized_vol", "total_magnetization_normalized_formula_units", "num_magnetic_sites", "num_unique_magnetic_sites", "types_of_magnetic_species", "bulk_modulus", "shear_modulus", "universal_anisotropy", "homogeneous_poisson", "e_total", "e_ionic", "e_electronic", "n", "e_ij_max", "weighted_surface_energy_EV_PER_ANG2", "weighted_surface_energy", "weighted_work_function", "surface_anisotropy", "shape_factor", "has_reconstructed", "possible_species", "has_props", "theoretical", "database_IDs"]}