{"builder_meta": null, "nsites": null, "elements": null, "nelements": null, "composition": null, "composition_reduced": null, "formula_pretty": "US2", "formula_anonymous": "AB2", "chemsys": null, "volume": 186.60893743082156, "density": 8.066280446438064, "density_atomic": 20.734326381202393, "symmetry": null, "property_name": null, "material_id": "mp-2849", "deprecated": null, "deprecation_reasons": null, "last_updated": null, "origins": null, "warnings": null, "structure": {"@module": "pymatgen.core.structure", "@class": "Structure", "charge": 0.0, "lattice": {"matrix": [[3.6460855, -6.30929878, 0.0], [3.64097036, 6.31225201, -0.0], [0.0, -0.0, 4.05786455]], "pbc": [true, true, true], "a": 7.287056371994094, "b": 7.287056374157371, "c": 4.05786455, "alpha": 90.0, "beta": 90.0, "gamma": 119.9999992250769, "volume": 186.60893743082156}, "properties": {}, "sites": [{"species": [{"element": "U", "occu": 1}], "abc": [0.666667, 0.333333, 0.5], "properties": {"magmom": 2.065}, "label": "U", "xyz": [3.6443804550383803, -2.10211939051693, 2.028932275]}, {"species": [{"element": "U", "occu": 1}], "abc": [0.333333, 0.666667, 0.5], "properties": {"magmom": 2.064}, "label": "U", "xyz": [3.6426754049616203, 2.10507262051693, 2.028932275]}, {"species": [{"element": "U", "occu": 1}], "abc": [0.0, -0.0, 0.0], "properties": {"magmom": 1.972999999999999}, "label": "U", "xyz": [0.0, 0.0, 0.0]}, {"species": [{"element": "S", "occu": 1}], "abc": [0.00014251000000000002, 0.59429971, 0.0], "properties": {"magmom": -0.059000000000000004}, "label": "S", "xyz": [2.1643472327112008, 3.750470400820779, 0.0]}, {"species": [{"element": "S", "occu": 1}], "abc": [0.40570029, 0.4058428, 0.0], "properties": {"magmom": -0.059000000000000004}, "label": "S", "xyz": [2.956879550334203, 0.0020976853013818797, 0.0]}, {"species": [{"element": "S", "occu": 1}], "abc": [0.594157199999999, -0.00014251000000000002, -0.0], "properties": {"magmom": -0.059000000000000004}, "label": "S", "xyz": [2.165829076954593, -3.7496148561221547, 0.0]}, {"species": [{"element": "S", "occu": 1}], "abc": [0.2594222, 0.00010196, 0.5], "properties": {"magmom": -0.058}, "label": "S", "xyz": [0.9462467551360055, -1.6361285727499761, 2.028932275]}, {"species": [{"element": "S", "occu": 1}], "abc": [0.74067976, 0.7405778, 0.5], "properties": {"magmom": -0.058}, "label": "S", "xyz": [5.397003552153487, 0.0015438004726853194, 2.028932275]}, {"species": [{"element": "S", "occu": 1}], "abc": [-0.00010196, 0.25932024, 0.5], "properties": {"magmom": -0.058}, "label": "S", "xyz": [0.9438055527105063, 1.637538002277291, 2.028932275]}]}, "task_ids": null, "uncorrected_energy_per_atom": null, "energy_per_atom": -33.787700651111116, "formation_energy_per_atom": -1.783689054652781, "energy_above_hull": 0.0, "is_stable": true, "equilibrium_reaction_energy_per_atom": null, "decomposes_to": null, "xas": null, "grain_boundaries": null, "band_gap": 0.0, "cbm": null, "vbm": null, "efermi": 9.35922096, "is_gap_direct": null, "is_metal": null, "es_source_calc_id": null, "bandstructure": null, "dos": null, "dos_energy_up": null, "dos_energy_down": null, "is_magnetic": null, "ordering": null, "total_magnetization": 5.9999778, "total_magnetization_normalized_vol": null, "total_magnetization_normalized_formula_units": null, "num_magnetic_sites": null, "num_unique_magnetic_sites": null, "types_of_magnetic_species": null, "bulk_modulus": null, "shear_modulus": null, "universal_anisotropy": null, "homogeneous_poisson": null, "e_total": null, "e_ionic": null, "e_electronic": null, "n": null, "e_ij_max": null, "weighted_surface_energy_EV_PER_ANG2": null, "weighted_surface_energy": null, "weighted_work_function": null, "surface_anisotropy": null, "shape_factor": null, "has_reconstructed": null, "possible_species": null, "has_props": null, "theoretical": null, "database_IDs": null, "fields_not_requested": ["builder_meta", "nsites", "elements", "nelements", "composition", "composition_reduced", "chemsys", "symmetry", "property_name", "deprecated", "deprecation_reasons", "last_updated", "origins", "warnings", "task_ids", "uncorrected_energy_per_atom", "equilibrium_reaction_energy_per_atom", "decomposes_to", "xas", "grain_boundaries", "cbm", "vbm", "is_gap_direct", "is_metal", "es_source_calc_id", "bandstructure", "dos", "dos_energy_up", "dos_energy_down", "is_magnetic", "ordering", "total_magnetization_normalized_vol", "total_magnetization_normalized_formula_units", "num_magnetic_sites", "num_unique_magnetic_sites", "types_of_magnetic_species", "bulk_modulus", "shear_modulus", "universal_anisotropy", "homogeneous_poisson", "e_total", "e_ionic", "e_electronic", "n", "e_ij_max", "weighted_surface_energy_EV_PER_ANG2", "weighted_surface_energy", "weighted_work_function", "surface_anisotropy", "shape_factor", "has_reconstructed", "possible_species", "has_props", "theoretical", "database_IDs"]}