{
  "builder_meta": null,
  "nsites": null,
  "elements": null,
  "nelements": null,
  "composition": null,
  "composition_reduced": null,
  "formula_pretty": "US3",
  "formula_anonymous": "AB3",
  "chemsys": null,
  "volume": 200.24877825552522,
  "density": 5.543023676664944,
  "density_atomic": 25.031097281940653,
  "symmetry": null,
  "property_name": null,
  "material_id": "mp-12406",
  "deprecated": null,
  "deprecation_reasons": null,
  "last_updated": null,
  "origins": null,
  "warnings": null,
  "structure": {
    "@module": "pymatgen.core.structure",
    "@class": "Structure",
    "charge": 0,
    "lattice": {
      "matrix": [
        [3.97434356, 0.0, 0.0],
        [0.0, 5.39729417, -0.80842907],
        [0.0, 0.14062525, 9.31423872]
      ],
      "pbc": [true, true, true],
      "a": 3.97434356,
      "b": 5.457503267863158,
      "c": 9.315300231022338,
      "alpha": 97.65369052699384,
      "beta": 90.0,
      "gamma": 90.0,
      "volume": 200.24877825552522
    },
    "properties": {},
    "sites": [
      {
        "species": [{ "element": "U", "occu": 1 }],
        "abc": [0.25, 0.28512757, 0.1497058],
        "properties": { "magmom": 2.06 },
        "label": "U",
        "xyz": [0.99358589, 1.559969786818717, 1.1638901427221162]
      },
      {
        "species": [{ "element": "U", "occu": 1 }],
        "abc": [0.75, 0.71487243, 0.8502942],
        "properties": { "magmom": 2.06 },
        "label": "U",
        "xyz": [2.98075767, 3.9779496331812836, 7.3419195072778844]
      },
      {
        "species": [{ "element": "S", "occu": 1 }],
        "abc": [0.25, 0.86329687, 0.67308262],
        "properties": { "magmom": -0.041 },
        "label": "S",
        "xyz": [0.99358589, 4.754119575138403, 5.571337915215035]
      },
      {
        "species": [{ "element": "S", "occu": 1 }],
        "abc": [0.75, 0.13670313, 0.32691738],
        "properties": { "magmom": -0.041 },
        "label": "S",
        "xyz": [2.98075767, 0.7837998448615972, 2.9344717347849647]
      },
      {
        "species": [{ "element": "S", "occu": 1 }],
        "abc": [0.75, 0.51499113, 0.3265017],
        "properties": { "magmom": -0.04 },
        "label": "S",
        "xyz": [2.98075767, 2.8254730067386373, 2.6247809760016754]
      },
      {
        "species": [{ "element": "S", "occu": 1 }],
        "abc": [0.25, 0.48500887000000004, 0.6734983],
        "properties": { "magmom": -0.04 },
        "label": "S",
        "xyz": [0.99358589, 2.7124464132613633, 5.881028673998325]
      },
      {
        "species": [{ "element": "S", "occu": 1 }],
        "abc": [0.75, 0.23651308000000001, 0.9416480700000001],
        "properties": { "magmom": -0.055 },
        "label": "S",
        "xyz": [2.98075767, 1.4089501630685113, 8.579530864900034]
      },
      {
        "species": [{ "element": "S", "occu": 1 }],
        "abc": [0.25, 0.7634869200000001, 0.05835193],
        "properties": { "magmom": -0.055 },
        "label": "S",
        "xyz": [0.99358589, 4.12896925693149, -0.0737212149000348]
      }
    ]
  },
  "task_ids": null,
  "uncorrected_energy_per_atom": null,
  "energy_per_atom": -27.43336763625,
  "formation_energy_per_atom": -1.4216091683593741,
  "energy_above_hull": 0.0,
  "is_stable": true,
  "equilibrium_reaction_energy_per_atom": null,
  "decomposes_to": null,
  "xas": null,
  "grain_boundaries": null,
  "band_gap": 0.0,
  "cbm": null,
  "vbm": null,
  "efermi": 5.41753827,
  "is_gap_direct": null,
  "is_metal": null,
  "es_source_calc_id": null,
  "bandstructure": null,
  "dos": null,
  "dos_energy_up": null,
  "dos_energy_down": null,
  "is_magnetic": null,
  "ordering": null,
  "total_magnetization": 3.9999998,
  "total_magnetization_normalized_vol": null,
  "total_magnetization_normalized_formula_units": null,
  "num_magnetic_sites": null,
  "num_unique_magnetic_sites": null,
  "types_of_magnetic_species": null,
  "bulk_modulus": null,
  "shear_modulus": null,
  "universal_anisotropy": null,
  "homogeneous_poisson": null,
  "e_total": null,
  "e_ionic": null,
  "e_electronic": null,
  "n": null,
  "e_ij_max": null,
  "weighted_surface_energy_EV_PER_ANG2": null,
  "weighted_surface_energy": null,
  "weighted_work_function": null,
  "surface_anisotropy": null,
  "shape_factor": null,
  "has_reconstructed": null,
  "possible_species": null,
  "has_props": null,
  "theoretical": null,
  "database_IDs": null,
  "fields_not_requested": [
    "builder_meta",
    "nsites",
    "elements",
    "nelements",
    "composition",
    "composition_reduced",
    "chemsys",
    "symmetry",
    "property_name",
    "deprecated",
    "deprecation_reasons",
    "last_updated",
    "origins",
    "warnings",
    "task_ids",
    "uncorrected_energy_per_atom",
    "equilibrium_reaction_energy_per_atom",
    "decomposes_to",
    "xas",
    "grain_boundaries",
    "cbm",
    "vbm",
    "is_gap_direct",
    "is_metal",
    "es_source_calc_id",
    "bandstructure",
    "dos",
    "dos_energy_up",
    "dos_energy_down",
    "is_magnetic",
    "ordering",
    "total_magnetization_normalized_vol",
    "total_magnetization_normalized_formula_units",
    "num_magnetic_sites",
    "num_unique_magnetic_sites",
    "types_of_magnetic_species",
    "bulk_modulus",
    "shear_modulus",
    "universal_anisotropy",
    "homogeneous_poisson",
    "e_total",
    "e_ionic",
    "e_electronic",
    "n",
    "e_ij_max",
    "weighted_surface_energy_EV_PER_ANG2",
    "weighted_surface_energy",
    "weighted_work_function",
    "surface_anisotropy",
    "shape_factor",
    "has_reconstructed",
    "possible_species",
    "has_props",
    "theoretical",
    "database_IDs"
  ]
}
