{"builder_meta": null, "nsites": null, "elements": null, "nelements": null, "composition": null, "composition_reduced": null, "formula_pretty": "USb2", "formula_anonymous": "AB2", "chemsys": null, "volume": 167.34719339303473, "density": 9.556548410771606, "density_atomic": 27.89119889883912, "symmetry": null, "property_name": null, "material_id": "mp-2707", "deprecated": null, "deprecation_reasons": null, "last_updated": null, "origins": null, "warnings": null, "structure": {"@module": "pymatgen.core.structure", "@class": "Structure", "charge": 0, "lattice": {"matrix": [[4.32634442, 0.0, -0.0], [-0.0, 4.32634442, -0.0], [-0.0, -0.0, 8.94079736]], "pbc": [true, true, true], "a": 4.32634442, "b": 4.32634442, "c": 8.94079736, "alpha": 90.0, "beta": 90.0, "gamma": 90.0, "volume": 167.34719339303473}, "properties": {}, "sites": [{"species": [{"element": "U", "occu": 1}], "abc": [0.75, 0.75, 0.27721011], "properties": {"magmom": 2.105}, "label": "U", "xyz": [3.244758315, 3.244758315, 2.4784794196533095]}, {"species": [{"element": "U", "occu": 1}], "abc": [0.25, 0.25, 0.72278989], "properties": {"magmom": 2.105}, "label": "U", "xyz": [1.081586105, 1.081586105, 6.462317940346691]}, {"species": [{"element": "Sb", "occu": 1}], "abc": [0.25, 0.75, -0.0], "properties": {"magmom": -0.039}, "label": "Sb", "xyz": [1.081586105, 3.244758315, 0.0]}, {"species": [{"element": "Sb", "occu": 1}], "abc": [0.75, 0.25, -0.0], "properties": {"magmom": -0.039}, "label": "Sb", "xyz": [3.244758315, 1.081586105, 0.0]}, {"species": [{"element": "Sb", "occu": 1}], "abc": [0.75, 0.75, 0.6399864200000001], "properties": {"magmom": -0.082}, "label": "Sb", "xyz": [3.244758315, 3.244758315, 5.721988894371852]}, {"species": [{"element": "Sb", "occu": 1}], "abc": [0.25, 0.25, 0.36001358], "properties": {"magmom": -0.082}, "label": "Sb", "xyz": [1.081586105, 1.081586105, 3.2188084656281486]}]}, "task_ids": null, "uncorrected_energy_per_atom": null, "energy_per_atom": -44.29938961166667, "formation_energy_per_atom": -0.514500249999997, "energy_above_hull": 0.0, "is_stable": true, "equilibrium_reaction_energy_per_atom": null, "decomposes_to": null, "xas": null, "grain_boundaries": null, "band_gap": 0.0, "cbm": null, "vbm": null, "efermi": 9.30222744, "is_gap_direct": null, "is_metal": null, "es_source_calc_id": null, "bandstructure": null, "dos": null, "dos_energy_up": null, "dos_energy_down": null, "is_magnetic": null, "ordering": null, "total_magnetization": 4.0361828, "total_magnetization_normalized_vol": null, "total_magnetization_normalized_formula_units": null, "num_magnetic_sites": null, "num_unique_magnetic_sites": null, "types_of_magnetic_species": null, "bulk_modulus": null, "shear_modulus": null, "universal_anisotropy": null, "homogeneous_poisson": null, "e_total": null, "e_ionic": null, "e_electronic": null, "n": null, "e_ij_max": null, "weighted_surface_energy_EV_PER_ANG2": null, "weighted_surface_energy": null, "weighted_work_function": null, "surface_anisotropy": null, "shape_factor": null, "has_reconstructed": null, "possible_species": null, "has_props": null, "theoretical": null, "database_IDs": null, "fields_not_requested": ["builder_meta", "nsites", "elements", "nelements", "composition", "composition_reduced", "chemsys", "symmetry", "property_name", "deprecated", "deprecation_reasons", "last_updated", "origins", "warnings", "task_ids", "uncorrected_energy_per_atom", "equilibrium_reaction_energy_per_atom", "decomposes_to", "xas", "grain_boundaries", "cbm", "vbm", "is_gap_direct", "is_metal", "es_source_calc_id", "bandstructure", "dos", "dos_energy_up", "dos_energy_down", "is_magnetic", "ordering", "total_magnetization_normalized_vol", "total_magnetization_normalized_formula_units", "num_magnetic_sites", "num_unique_magnetic_sites", "types_of_magnetic_species", "bulk_modulus", "shear_modulus", "universal_anisotropy", "homogeneous_poisson", "e_total", "e_ionic", "e_electronic", "n", "e_ij_max", "weighted_surface_energy_EV_PER_ANG2", "weighted_surface_energy", "weighted_work_function", "surface_anisotropy", "shape_factor", "has_reconstructed", "possible_species", "has_props", "theoretical", "database_IDs"]}