{
  "builder_meta": null,
  "nsites": null,
  "elements": null,
  "nelements": null,
  "composition": null,
  "composition_reduced": null,
  "formula_pretty": "USb3",
  "formula_anonymous": "AB3",
  "chemsys": null,
  "volume": 214.4299806343632,
  "density": 9.344010677230068,
  "density_atomic": 26.8037475792954,
  "symmetry": null,
  "property_name": null,
  "material_id": "mp-1187807",
  "deprecated": null,
  "deprecation_reasons": null,
  "last_updated": null,
  "origins": null,
  "warnings": null,
  "structure": {
    "@module": "pymatgen.core.structure",
    "@class": "Structure",
    "charge": 0,
    "lattice": {
      "matrix": [
        [3.24547926, -5.62131875, -1.83e-6],
        [3.24552706, 5.6213702, 7.862e-5],
        [6.316e-5, 2.39e-5, 5.87669667]
      ],
      "pbc": [true, true, true],
      "a": 6.490944470275112,
      "b": 6.491012927796508,
      "c": 5.876696670388007,
      "alpha": 89.99879633181384,
      "beta": 89.99991005695519,
      "gamma": 119.99971846846353,
      "volume": 214.4299806343632
    },
    "properties": {},
    "sites": [
      {
        "species": [{ "element": "U", "occu": 1 }],
        "abc": [0.33333559, 0.66667309, 0.7500014700000001],
        "properties": { "magmom": -2.379 },
        "label": "U",
        "xyz": [3.245586667826524, 1.8738485641937384, 4.407582945078312]
      },
      {
        "species": [{ "element": "U", "occu": 1 }],
        "abc": [0.66666829, 0.33333479, 0.25000073],
        "properties": { "magmom": -2.437 },
        "label": "U",
        "xyz": [3.2455209795251894, -1.8737507284607329, 1.4692034442667883]
      },
      {
        "species": [{ "element": "Sb", "occu": 1 }],
        "abc": [0.17487438, 0.34974441, 0.2500019],
        "properties": { "magmom": 0.053 },
        "label": "Sb",
        "xyz": [1.7026719102540975, 0.9830241478473671, 1.4692125101090718]
      },
      {
        "species": [{ "element": "Sb", "occu": 1 }],
        "abc": [0.65026186, 0.82513066, 0.25000049],
        "properties": { "magmom": 0.053 },
        "label": "Sb",
        "xyz": [4.788411055295631, 0.9830416922141685, 1.4692407288746538]
      },
      {
        "species": [{ "element": "Sb", "occu": 1 }],
        "abc": [0.17487261, 0.82512936, 0.25000314],
        "properties": { "magmom": 0.053 },
        "label": "Sb",
        "xyz": [3.245540884975873, 3.6553488890696806, 1.4692571719809508]
      },
      {
        "species": [{ "element": "Sb", "occu": 1 }],
        "abc": [0.82549195, 0.6509870600000001, 0.74998819],
        "properties": { "magmom": 0.059000000000000004 },
        "label": "Sb",
        "xyz": [4.791960491215882, -0.980896192121709, 4.407502768664716]
      },
      {
        "species": [{ "element": "Sb", "occu": 1 }],
        "abc": [0.34898607, 0.1745002, 0.75000165],
        "properties": { "magmom": 0.059000000000000004 },
        "label": "Sb",
        "xyz": [1.6990195433935342, -0.9808137895663374, 4.407545279610721]
      },
      {
        "species": [{ "element": "Sb", "occu": 1 }],
        "abc": [0.82550924, 0.17450043, 0.75000243],
        "properties": { "magmom": 0.059000000000000004 },
        "label": "Sb",
        "xyz": [3.2455663550584775, -3.659501126962988, 4.407548991414806]
      }
    ]
  },
  "task_ids": null,
  "uncorrected_energy_per_atom": null,
  "energy_per_atom": -39.519614765,
  "formation_energy_per_atom": -0.25436881125000305,
  "energy_above_hull": 0.131506376250001,
  "is_stable": false,
  "equilibrium_reaction_energy_per_atom": null,
  "decomposes_to": null,
  "xas": null,
  "grain_boundaries": null,
  "band_gap": 0.0,
  "cbm": null,
  "vbm": null,
  "efermi": 9.89721939,
  "is_gap_direct": null,
  "is_metal": null,
  "es_source_calc_id": null,
  "bandstructure": null,
  "dos": null,
  "dos_energy_up": null,
  "dos_energy_down": null,
  "is_magnetic": null,
  "ordering": null,
  "total_magnetization": 4.476243,
  "total_magnetization_normalized_vol": null,
  "total_magnetization_normalized_formula_units": null,
  "num_magnetic_sites": null,
  "num_unique_magnetic_sites": null,
  "types_of_magnetic_species": null,
  "bulk_modulus": null,
  "shear_modulus": null,
  "universal_anisotropy": null,
  "homogeneous_poisson": null,
  "e_total": null,
  "e_ionic": null,
  "e_electronic": null,
  "n": null,
  "e_ij_max": null,
  "weighted_surface_energy_EV_PER_ANG2": null,
  "weighted_surface_energy": null,
  "weighted_work_function": null,
  "surface_anisotropy": null,
  "shape_factor": null,
  "has_reconstructed": null,
  "possible_species": null,
  "has_props": null,
  "theoretical": null,
  "database_IDs": null,
  "fields_not_requested": [
    "builder_meta",
    "nsites",
    "elements",
    "nelements",
    "composition",
    "composition_reduced",
    "chemsys",
    "symmetry",
    "property_name",
    "deprecated",
    "deprecation_reasons",
    "last_updated",
    "origins",
    "warnings",
    "task_ids",
    "uncorrected_energy_per_atom",
    "equilibrium_reaction_energy_per_atom",
    "decomposes_to",
    "xas",
    "grain_boundaries",
    "cbm",
    "vbm",
    "is_gap_direct",
    "is_metal",
    "es_source_calc_id",
    "bandstructure",
    "dos",
    "dos_energy_up",
    "dos_energy_down",
    "is_magnetic",
    "ordering",
    "total_magnetization_normalized_vol",
    "total_magnetization_normalized_formula_units",
    "num_magnetic_sites",
    "num_unique_magnetic_sites",
    "types_of_magnetic_species",
    "bulk_modulus",
    "shear_modulus",
    "universal_anisotropy",
    "homogeneous_poisson",
    "e_total",
    "e_ionic",
    "e_electronic",
    "n",
    "e_ij_max",
    "weighted_surface_energy_EV_PER_ANG2",
    "weighted_surface_energy",
    "weighted_work_function",
    "surface_anisotropy",
    "shape_factor",
    "has_reconstructed",
    "possible_species",
    "has_props",
    "theoretical",
    "database_IDs"
  ]
}
