{"builder_meta": null, "nsites": null, "elements": null, "nelements": null, "composition": null, "composition_reduced": null, "formula_pretty": "USe2", "formula_anonymous": "AB2", "chemsys": null, "volume": 770.5452987083843, "density": 8.532770682460763, "density_atomic": 25.684843290279478, "symmetry": null, "property_name": null, "material_id": "mp-684555", "deprecated": null, "deprecation_reasons": null, "last_updated": null, "origins": null, "warnings": null, "structure": {"@module": "pymatgen.core.structure", "@class": "Structure", "charge": 0, "lattice": {"matrix": [[10.77498654, 0.01173195, 0.0008918999999990001], [-0.01279357, 10.7759838, -0.00330785], [0.00020234000000000002, 0.00291151, 6.6362676]], "pbc": [true, true, true], "a": 10.774992963863948, "b": 10.775991902148379, "c": 6.636268241763719, "alpha": 89.99245267268041, "beta": 89.9934830239707, "gamma": 90.00564029598301, "volume": 770.5452987083843}, "properties": {}, "sites": [{"species": [{"element": "U", "occu": 1}], "abc": [0.84102765, 0.15346736, 0.24760266], "properties": {"magmom": 2.136}, "label": "U", "xyz": [9.060148313027181, 1.664349577147802, 1.6433999757860742]}, {"species": [{"element": "U", "occu": 1}], "abc": [0.65093506, 0.66098977, 0.24653609], "properties": {"magmom": 2.145}, "label": "U", "xyz": [7.005409975134764, 7.13116958335429, 1.634473580267003]}, {"species": [{"element": "U", "occu": 1}], "abc": [0.34883511, 0.3387058, 0.24586078], "properties": {"magmom": 2.145}, "label": "U", "xyz": [3.7544101060379385, 3.6546965559543825, 1.6307886664788065]}, {"species": [{"element": "U", "occu": 1}], "abc": [0.15880567, 0.84657805, 0.25057767000000003], "properties": {"magmom": 2.133}, "label": "U", "xyz": [1.7003489030682915, 9.125304011807728, 1.6602417582788727]}, {"species": [{"element": "U", "occu": 1}], "abc": [0.50014541, 0.00042549, 0.85065183], "properties": {"magmom": 2.035}, "label": "U", "xyz": [5.389226738147965, 0.0129294355994748, 5.64559785054379]}, {"species": [{"element": "U", "occu": 1}], "abc": [0.33894934, 0.65113608, 0.75475417], "properties": {"magmom": 2.148}, "label": "U", "xyz": [3.6439969381816355, 7.022805860698414, 5.00689909277001]}, {"species": [{"element": "U", "occu": 1}], "abc": [0.15321222, 0.15865843000000002, 0.7501754900000001], "properties": {"magmom": 2.1310000000000002}, "label": "U", "xyz": [1.6489815910418704, 1.713682292958753, 4.977977130292467]}, {"species": [{"element": "U", "occu": 1}], "abc": [0.84630525, 0.84097291, 0.75097507], "properties": {"magmom": 2.136}, "label": "U", "xyz": [9.108320583984812, 9.07442573670265, 4.981644532860862]}, {"species": [{"element": "U", "occu": 1}], "abc": [0.66108619, 0.34880714, 0.75172266], "properties": {"magmom": 2.138}, "label": "U", "xyz": [7.118884414030818, 3.7686845681329193, 4.988068553818628]}, {"species": [{"element": "U", "occu": 1}], "abc": [0.00037838, 0.50032281, 0.14975566], "properties": {"magmom": 2.028}, "label": "U", "xyz": [-0.002293573925082101, 5.391910949567365, 0.9921639790446796]}, {"species": [{"element": "Se", "occu": 1}], "abc": [0.71062388, 0.09263138, 0.62029161], "properties": {"magmom": -0.08700000000000001}, "label": "Se", "xyz": [7.655903165762716, 1.008337239306041, 4.116748508723074]}, {"species": [{"element": "Se", "occu": 1}], "abc": [0.5911594, 0.79037869, 0.62077602], "properties": {"magmom": -0.08600000000000001}, "label": "Se", "xyz": [6.35974842071734, 8.525850807418044, 4.117548589302094]}, {"species": [{"element": "Se", "occu": 1}], "abc": [0.40857977, 0.20897607, 0.61954078], "properties": {"magmom": -0.088}, "label": "Se", "xyz": [4.399893330167852, 2.2585199815166956, 4.111111555996441]}, {"species": [{"element": "Se", "occu": 1}], "abc": [0.289327699999999, 0.90751788, 0.62057324], "properties": {"magmom": -0.088}, "label": "Se", "xyz": [3.1060172464144977, 9.78459915639435, 4.1155462043952955]}, {"species": [{"element": "Se", "occu": 1}], "abc": [0.706612, 0.912837399999999, 0.10691527], "properties": {"magmom": -0.083}, "label": "Se", "xyz": [7.602077973062694, 9.845322255965266, 0.7071290402954614]}, {"species": [{"element": "Se", "occu": 1}], "abc": [0.5897494, 0.20856703000000001, 0.10621034], "properties": {"magmom": -0.078}, "label": "Se", "xyz": [6.351895020675274, 2.2547430794344576, 0.704676327166658]}, {"species": [{"element": "Se", "occu": 1}], "abc": [0.41040729000000004, 0.79180702, 0.1069523], "properties": {"magmom": -0.081}, "label": "Se", "xyz": [4.412024627859398, 8.537625890743165, 0.7075109466463236]}, {"species": [{"element": "Se", "occu": 1}], "abc": [0.29339109, 0.08699711, 0.10671215], "properties": {"magmom": -0.079}, "label": "Se", "xyz": [3.1601936342257773, 0.9412321910969901, 0.7081442856941972]}, {"species": [{"element": "Se", "occu": 1}], "abc": [0.50029555, 0.49988041, -0.00032185], "properties": {"magmom": -0.08700000000000001}, "label": "Se", "xyz": [5.384282497131805, 5.392571705405688, -0.0033431985402340002]}, {"species": [{"element": "Se", "occu": 1}], "abc": [0.00015966, -0.00012877, -1.6e-06], "properties": {"magmom": -0.079}, "label": "Se", "xyz": [0.0017219814552413002, -0.001385754969205, -1.004967556150016e-05]}, {"species": [{"element": "Se", "occu": 1}], "abc": [0.20839666, 0.41029451, 0.89327055], "properties": {"magmom": -0.08}, "label": "Se", "xyz": [2.2404028193097427, 4.426372658323255, 5.926811085285331]}, {"species": [{"element": "Se", "occu": 1}], "abc": [0.08711713, 0.70678262, 0.89383192], "properties": {"magmom": -0.081}, "label": "Se", "xyz": [0.9298244881803697, 7.619902517628259, 5.929447579420472]}, {"species": [{"element": "Se", "occu": 1}], "abc": [0.91298271, 0.29366036, 0.89283886], "properties": {"magmom": -0.081}, "label": "Se", "xyz": [9.833800104145771, 3.1777898588360314, 5.924960503496158]}, {"species": [{"element": "Se", "occu": 1}], "abc": [0.791864, 0.58939956, 0.893921699999999], "properties": {"magmom": -0.079}, "label": "Se", "xyz": [8.524964293098508, 6.363252881110696, 5.931060232813967]}, {"species": [{"element": "Se", "occu": 1}], "abc": [0.49974105, 0.50004563, 0.49989915], "properties": {"magmom": -0.083}, "label": "Se", "xyz": [5.37840686805888, 5.395802006526559, 3.316256175517839]}, {"species": [{"element": "Se", "occu": 1}], "abc": [-0.00033366, 9.528000000000001e-05, 0.50001362], "properties": {"magmom": -0.08700000000000001}, "label": "Se", "xyz": [-0.0034952282244152, 0.0024786159087932004, 3.3182235732014105]}, {"species": [{"element": "Se", "occu": 1}], "abc": [0.20932041, 0.591357999999999, 0.38015839], "properties": {"magmom": -0.08700000000000001}, "label": "Se", "xyz": [2.2479359415778544, 6.376026799538558, 2.5210633757385428]}, {"species": [{"element": "Se", "occu": 1}], "abc": [0.09255515, 0.28945466000000003, 0.379447], "properties": {"magmom": -0.08700000000000001}, "label": "Se", "xyz": [0.9936541143091249, 3.1213493431215213, 2.5172369093584037]}, {"species": [{"element": "Se", "occu": 1}], "abc": [0.90731255, 0.71061432, 0.37999462], "properties": {"magmom": -0.088}, "label": "Se", "xyz": [9.767266107888567, 7.669319303975065, 2.5202046113652443]}, {"species": [{"element": "Se", "occu": 1}], "abc": [0.79105598, 0.40876499, 0.38036284000000004], "properties": {"magmom": -0.08700000000000001}, "label": "Se", "xyz": [8.518464935990442, 4.415232969664011, 2.5235430008923743]}]}, "task_ids": null, "uncorrected_energy_per_atom": null, "energy_per_atom": -7.54611768766667, "formation_energy_per_atom": -1.451706699229167, "energy_above_hull": 0.0, "is_stable": true, "equilibrium_reaction_energy_per_atom": null, "decomposes_to": null, "xas": null, "grain_boundaries": null, "band_gap": 0.0, "cbm": null, "vbm": null, "efermi": 6.57306698, "is_gap_direct": null, "is_metal": null, "es_source_calc_id": null, "bandstructure": null, "dos": null, "dos_energy_up": null, "dos_energy_down": null, "is_magnetic": null, "ordering": null, "total_magnetization": 20.0000001, "total_magnetization_normalized_vol": null, "total_magnetization_normalized_formula_units": null, "num_magnetic_sites": null, "num_unique_magnetic_sites": null, "types_of_magnetic_species": null, "bulk_modulus": null, "shear_modulus": null, "universal_anisotropy": null, "homogeneous_poisson": null, "e_total": null, "e_ionic": null, "e_electronic": null, "n": null, "e_ij_max": null, "weighted_surface_energy_EV_PER_ANG2": null, "weighted_surface_energy": null, "weighted_work_function": null, "surface_anisotropy": null, "shape_factor": null, "has_reconstructed": null, "possible_species": null, "has_props": null, "theoretical": null, "database_IDs": null, "fields_not_requested": ["builder_meta", "nsites", "elements", "nelements", "composition", "composition_reduced", "chemsys", "symmetry", "property_name", "deprecated", "deprecation_reasons", "last_updated", "origins", "warnings", "task_ids", "uncorrected_energy_per_atom", "equilibrium_reaction_energy_per_atom", "decomposes_to", "xas", "grain_boundaries", "cbm", "vbm", "is_gap_direct", "is_metal", "es_source_calc_id", "bandstructure", "dos", "dos_energy_up", "dos_energy_down", "is_magnetic", "ordering", "total_magnetization_normalized_vol", "total_magnetization_normalized_formula_units", "num_magnetic_sites", "num_unique_magnetic_sites", "types_of_magnetic_species", "bulk_modulus", "shear_modulus", "universal_anisotropy", "homogeneous_poisson", "e_total", "e_ionic", "e_electronic", "n", "e_ij_max", "weighted_surface_energy_EV_PER_ANG2", "weighted_surface_energy", "weighted_work_function", "surface_anisotropy", "shape_factor", "has_reconstructed", "possible_species", "has_props", "theoretical", "database_IDs"]}