{"builder_meta": null, "nsites": null, "elements": null, "nelements": null, "composition": null, "composition_reduced": null, "formula_pretty": "USe3", "formula_anonymous": "AB3", "chemsys": null, "volume": 213.97120750584207, "density": 7.371130044306471, "density_atomic": 26.74640093823026, "symmetry": null, "property_name": null, "material_id": "mp-9429", "deprecated": null, "deprecation_reasons": null, "last_updated": null, "origins": null, "warnings": null, "structure": {"@module": "pymatgen.core.structure", "@class": "Structure", "charge": 0, "lattice": {"matrix": [[4.0987686, 0.0, 0.0], [0.0, 5.42291361, -0.43337773], [0.0, -0.44156035, 9.66180628]], "pbc": [true, true, true], "a": 4.0987686, "b": 5.44020296297695, "c": 9.671891032002975, "alpha": 97.18583080809631, "beta": 90.0, "gamma": 90.0, "volume": 213.97120750584207}, "properties": {}, "sites": [{"species": [{"element": "U", "occu": 1}], "abc": [0.75, 0.21102043, 0.83670102], "properties": {"magmom": 1.892}, "label": "U", "xyz": [3.0740764499999997, 0.7748915665984955, 7.992591614581382]}, {"species": [{"element": "U", "occu": 1}], "abc": [0.25, 0.78897957, 0.16329898], "properties": {"magmom": 1.892}, "label": "U", "xyz": [1.02469215, 4.206461693401504, 1.2358369354186185]}, {"species": [{"element": "Se", "occu": 1}], "abc": [0.75, 0.59133248, 0.32866856], "properties": {"magmom": -0.06}, "label": "Se", "xyz": [3.0740764499999997, 3.0616179494394573, 2.9192616291888864]}, {"species": [{"element": "Se", "occu": 1}], "abc": [0.25, 0.40866752, 0.67133144], "properties": {"magmom": -0.06}, "label": "Se", "xyz": [1.02469215, 1.9197353105605433, 6.309166920811114]}, {"species": [{"element": "Se", "occu": 1}], "abc": [0.25, 0.26186595, 0.05311926], "properties": {"magmom": -0.093}, "label": "Se", "xyz": [1.02469215, 1.3966210652132387, 0.39974112888165936]}, {"species": [{"element": "Se", "occu": 1}], "abc": [0.75, 0.73813405, 0.94688074], "properties": {"magmom": -0.093}, "label": "Se", "xyz": [3.0740764499999997, 3.5847321947867616, 8.82868742111834]}, {"species": [{"element": "Se", "occu": 1}], "abc": [0.25, 0.93474145, 0.67331856], "properties": {"magmom": -0.074}, "label": "Se", "xyz": [1.02469215, 4.771711352021038, 6.100377363710648]}, {"species": [{"element": "Se", "occu": 1}], "abc": [0.75, 0.06525855, 0.32668144], "properties": {"magmom": -0.074}, "label": "Se", "xyz": [3.0740764499999997, 0.20964190797896154, 3.1280511862893516]}]}, "task_ids": null, "uncorrected_energy_per_atom": null, "energy_per_atom": -6.731092797500001, "formation_energy_per_atom": -1.286306686757811, "energy_above_hull": 0.0, "is_stable": true, "equilibrium_reaction_energy_per_atom": null, "decomposes_to": null, "xas": null, "grain_boundaries": null, "band_gap": 0.0, "cbm": null, "vbm": null, "efermi": 4.60302631, "is_gap_direct": null, "is_metal": null, "es_source_calc_id": null, "bandstructure": null, "dos": null, "dos_energy_up": null, "dos_energy_down": null, "is_magnetic": null, "ordering": null, "total_magnetization": 3.332343, "total_magnetization_normalized_vol": null, "total_magnetization_normalized_formula_units": null, "num_magnetic_sites": null, "num_unique_magnetic_sites": null, "types_of_magnetic_species": null, "bulk_modulus": null, "shear_modulus": null, "universal_anisotropy": null, "homogeneous_poisson": null, "e_total": null, "e_ionic": null, "e_electronic": null, "n": null, "e_ij_max": null, "weighted_surface_energy_EV_PER_ANG2": null, "weighted_surface_energy": null, "weighted_work_function": null, "surface_anisotropy": null, "shape_factor": null, "has_reconstructed": null, "possible_species": null, "has_props": null, "theoretical": null, "database_IDs": null, "fields_not_requested": ["builder_meta", "nsites", "elements", "nelements", "composition", "composition_reduced", "chemsys", "symmetry", "property_name", "deprecated", "deprecation_reasons", "last_updated", "origins", "warnings", "task_ids", "uncorrected_energy_per_atom", "equilibrium_reaction_energy_per_atom", "decomposes_to", "xas", "grain_boundaries", "cbm", "vbm", "is_gap_direct", "is_metal", "es_source_calc_id", "bandstructure", "dos", "dos_energy_up", "dos_energy_down", "is_magnetic", "ordering", "total_magnetization_normalized_vol", "total_magnetization_normalized_formula_units", "num_magnetic_sites", "num_unique_magnetic_sites", "types_of_magnetic_species", "bulk_modulus", "shear_modulus", "universal_anisotropy", "homogeneous_poisson", "e_total", "e_ionic", "e_electronic", "n", "e_ij_max", "weighted_surface_energy_EV_PER_ANG2", "weighted_surface_energy", "weighted_work_function", "surface_anisotropy", "shape_factor", "has_reconstructed", "possible_species", "has_props", "theoretical", "database_IDs"]}