{
  "builder_meta": null,
  "nsites": null,
  "elements": null,
  "nelements": null,
  "composition": null,
  "composition_reduced": null,
  "formula_pretty": "USn2",
  "formula_anonymous": "AB2",
  "chemsys": null,
  "volume": 153.11645577123633,
  "density": 10.312431609662413,
  "density_atomic": 25.519409295206056,
  "symmetry": null,
  "property_name": null,
  "material_id": "mp-1207038",
  "deprecated": null,
  "deprecation_reasons": null,
  "last_updated": null,
  "origins": null,
  "warnings": null,
  "structure": {
    "@module": "pymatgen.core.structure",
    "@class": "Structure",
    "charge": 0,
    "lattice": {
      "matrix": [
        [2.220793, -7.406735, 0.0],
        [2.220793, 7.406735, 0.0],
        [0.0, 0.0, 4.654328]
      ],
      "pbc": [true, true, true],
      "a": 7.732505732883358,
      "b": 7.732505732883358,
      "c": 4.654328,
      "alpha": 90.0,
      "beta": 90.0,
      "gamma": 146.61893524188557,
      "volume": 153.11645577123633
    },
    "properties": {},
    "sites": [
      {
        "species": [{ "element": "U", "occu": 1 }],
        "abc": [0.846314, 0.153686, 0.5],
        "properties": { "magmom": 2.343 },
        "label": "U",
        "xyz": [2.220793, -5.13011204958, 2.327164]
      },
      {
        "species": [{ "element": "U", "occu": 1 }],
        "abc": [0.153686, 0.846314, 0.5],
        "properties": { "magmom": 2.343 },
        "label": "U",
        "xyz": [2.220793, 5.13011204958, 2.327164]
      },
      {
        "species": [{ "element": "Sn", "occu": 1 }],
        "abc": [0.677470999999999, 0.322529, 0.0],
        "properties": { "magmom": -0.022 },
        "label": "Sn",
        "xyz": [2.220792999999998, -2.6289613343699925, 0.0]
      },
      {
        "species": [{ "element": "Sn", "occu": 1 }],
        "abc": [0.322529, 0.677470999999999, 0.0],
        "properties": { "magmom": -0.022 },
        "label": "Sn",
        "xyz": [2.220792999999998, 2.6289613343699925, 0.0]
      },
      {
        "species": [{ "element": "Sn", "occu": 1 }],
        "abc": [0.5, 0.5, 0.5],
        "properties": { "magmom": -0.0 },
        "label": "Sn",
        "xyz": [2.220793, 0.0, 2.327164]
      },
      {
        "species": [{ "element": "Sn", "occu": 1 }],
        "abc": [0.0, 0.0, 0.0],
        "properties": { "magmom": -0.011 },
        "label": "Sn",
        "xyz": [0.0, 0.0, 0.0]
      }
    ]
  },
  "task_ids": null,
  "uncorrected_energy_per_atom": null,
  "energy_per_atom": -6.537693973333333,
  "formation_energy_per_atom": -0.10084273333333,
  "energy_above_hull": 0.01968060047619,
  "is_stable": false,
  "equilibrium_reaction_energy_per_atom": null,
  "decomposes_to": null,
  "xas": null,
  "grain_boundaries": null,
  "band_gap": 0.0,
  "cbm": null,
  "vbm": null,
  "efermi": 9.84617377,
  "is_gap_direct": null,
  "is_metal": null,
  "es_source_calc_id": null,
  "bandstructure": null,
  "dos": null,
  "dos_energy_up": null,
  "dos_energy_down": null,
  "is_magnetic": null,
  "ordering": null,
  "total_magnetization": 5.1783132,
  "total_magnetization_normalized_vol": null,
  "total_magnetization_normalized_formula_units": null,
  "num_magnetic_sites": null,
  "num_unique_magnetic_sites": null,
  "types_of_magnetic_species": null,
  "bulk_modulus": null,
  "shear_modulus": null,
  "universal_anisotropy": null,
  "homogeneous_poisson": null,
  "e_total": null,
  "e_ionic": null,
  "e_electronic": null,
  "n": null,
  "e_ij_max": null,
  "weighted_surface_energy_EV_PER_ANG2": null,
  "weighted_surface_energy": null,
  "weighted_work_function": null,
  "surface_anisotropy": null,
  "shape_factor": null,
  "has_reconstructed": null,
  "possible_species": null,
  "has_props": null,
  "theoretical": null,
  "database_IDs": null,
  "fields_not_requested": [
    "builder_meta",
    "nsites",
    "elements",
    "nelements",
    "composition",
    "composition_reduced",
    "chemsys",
    "symmetry",
    "property_name",
    "deprecated",
    "deprecation_reasons",
    "last_updated",
    "origins",
    "warnings",
    "task_ids",
    "uncorrected_energy_per_atom",
    "equilibrium_reaction_energy_per_atom",
    "decomposes_to",
    "xas",
    "grain_boundaries",
    "cbm",
    "vbm",
    "is_gap_direct",
    "is_metal",
    "es_source_calc_id",
    "bandstructure",
    "dos",
    "dos_energy_up",
    "dos_energy_down",
    "is_magnetic",
    "ordering",
    "total_magnetization_normalized_vol",
    "total_magnetization_normalized_formula_units",
    "num_magnetic_sites",
    "num_unique_magnetic_sites",
    "types_of_magnetic_species",
    "bulk_modulus",
    "shear_modulus",
    "universal_anisotropy",
    "homogeneous_poisson",
    "e_total",
    "e_ionic",
    "e_electronic",
    "n",
    "e_ij_max",
    "weighted_surface_energy_EV_PER_ANG2",
    "weighted_surface_energy",
    "weighted_work_function",
    "surface_anisotropy",
    "shape_factor",
    "has_reconstructed",
    "possible_species",
    "has_props",
    "theoretical",
    "database_IDs"
  ]
}
