{"builder_meta": null, "nsites": null, "elements": null, "nelements": null, "composition": null, "composition_reduced": null, "formula_pretty": "USn3", "formula_anonymous": "AB3", "chemsys": null, "volume": 102.30647756955129, "density": 9.643808537467573, "density_atomic": 25.576619392387823, "symmetry": null, "property_name": null, "material_id": "mp-20336", "deprecated": null, "deprecation_reasons": null, "last_updated": null, "origins": null, "warnings": null, "structure": {"@module": "pymatgen.core.structure", "@class": "Structure", "charge": 0, "lattice": {"matrix": [[4.67700367, -0.0, -0.0], [-0.0, 4.67700367, 0.0], [0.0, -0.0, 4.67700367]], "pbc": [true, true, true], "a": 4.67700367, "b": 4.67700367, "c": 4.67700367, "alpha": 90.0, "beta": 90.0, "gamma": 90.0, "volume": 102.30647756955129}, "properties": {}, "sites": [{"species": [{"element": "U", "occu": 1}], "abc": [0.0, -0.0, -0.0], "properties": {"magmom": 2.477}, "label": "U", "xyz": [0.0, 0.0, 0.0]}, {"species": [{"element": "Sn", "occu": 1}], "abc": [-0.0, 0.5, 0.5], "properties": {"magmom": -0.023}, "label": "Sn", "xyz": [0.0, 2.338501835, 2.338501835]}, {"species": [{"element": "Sn", "occu": 1}], "abc": [0.5, 0.5, -0.0], "properties": {"magmom": -0.023}, "label": "Sn", "xyz": [2.338501835, 2.338501835, 0.0]}, {"species": [{"element": "Sn", "occu": 1}], "abc": [0.5, -0.0, 0.5], "properties": {"magmom": -0.023}, "label": "Sn", "xyz": [2.338501835, 0.0, 2.338501835]}]}, "task_ids": null, "uncorrected_energy_per_atom": null, "energy_per_atom": -5.9550013974999985, "formation_energy_per_atom": -0.124970003749996, "energy_above_hull": 0.0, "is_stable": true, "equilibrium_reaction_energy_per_atom": null, "decomposes_to": null, "xas": null, "grain_boundaries": null, "band_gap": 0.0, "cbm": null, "vbm": null, "efermi": 10.16079155, "is_gap_direct": null, "is_metal": null, "es_source_calc_id": null, "bandstructure": null, "dos": null, "dos_energy_up": null, "dos_energy_down": null, "is_magnetic": null, "ordering": null, "total_magnetization": 2.5321645, "total_magnetization_normalized_vol": null, "total_magnetization_normalized_formula_units": null, "num_magnetic_sites": null, "num_unique_magnetic_sites": null, "types_of_magnetic_species": null, "bulk_modulus": null, "shear_modulus": null, "universal_anisotropy": null, "homogeneous_poisson": null, "e_total": null, "e_ionic": null, "e_electronic": null, "n": null, "e_ij_max": null, "weighted_surface_energy_EV_PER_ANG2": null, "weighted_surface_energy": null, "weighted_work_function": null, "surface_anisotropy": null, "shape_factor": null, "has_reconstructed": null, "possible_species": null, "has_props": null, "theoretical": null, "database_IDs": null, "fields_not_requested": ["builder_meta", "nsites", "elements", "nelements", "composition", "composition_reduced", "chemsys", "symmetry", "property_name", "deprecated", "deprecation_reasons", "last_updated", "origins", "warnings", "task_ids", "uncorrected_energy_per_atom", "equilibrium_reaction_energy_per_atom", "decomposes_to", "xas", "grain_boundaries", "cbm", "vbm", "is_gap_direct", "is_metal", "es_source_calc_id", "bandstructure", "dos", "dos_energy_up", "dos_energy_down", "is_magnetic", "ordering", "total_magnetization_normalized_vol", "total_magnetization_normalized_formula_units", "num_magnetic_sites", "num_unique_magnetic_sites", "types_of_magnetic_species", "bulk_modulus", "shear_modulus", "universal_anisotropy", "homogeneous_poisson", "e_total", "e_ionic", "e_electronic", "n", "e_ij_max", "weighted_surface_energy_EV_PER_ANG2", "weighted_surface_energy", "weighted_work_function", "surface_anisotropy", "shape_factor", "has_reconstructed", "possible_species", "has_props", "theoretical", "database_IDs"]}