{"builder_meta": null, "nsites": null, "elements": null, "nelements": null, "composition": null, "composition_reduced": null, "formula_pretty": "UTc3", "formula_anonymous": "AB3", "chemsys": null, "volume": 132.64584051256202, "density": 13.320504980809392, "density_atomic": 16.580730064070252, "symmetry": null, "property_name": null, "material_id": "mp-1187817", "deprecated": null, "deprecation_reasons": null, "last_updated": null, "origins": null, "warnings": null, "structure": {"@module": "pymatgen.core.structure", "@class": "Structure", "charge": 0, "lattice": {"matrix": [[6.001236, 0.0, 0.0], [-3.000619, 5.197224, 0.0], [0.0, 0.0, 4.252864]], "pbc": [true, true, true], "a": 6.001236, "b": 6.001237513158182, "c": 4.252864, "alpha": 90.0, "beta": 90.0, "gamma": 120.00000268354617, "volume": 132.64584051256202}, "properties": {}, "sites": [{"species": [{"element": "U", "occu": 1}], "abc": [0.333333, 0.666666, 0.75], "properties": {"magmom": 0.0}, "label": "U", "xyz": [-6.66666000181948e-07, 3.464812535184, 3.189648]}, {"species": [{"element": "U", "occu": 1}], "abc": [0.666665, 0.333331, 0.250001], "properties": {"magmom": 0.0}, "label": "U", "xyz": [3.000614666050999, 1.7323958731440001, 1.0632202528639998]}, {"species": [{"element": "Tc", "occu": 1}], "abc": [0.17143000000000003, 0.342860999999999, 0.250001], "properties": {"magmom": -0.002}, "label": "Tc", "xyz": [-3.3434789969977174e-06, 1.781925417863995, 1.0632202528639998]}, {"species": [{"element": "Tc", "occu": 1}], "abc": [0.6571400000000001, 0.828569, 0.250001], "properties": {"magmom": 0.001}, "label": "Tc", "xyz": [1.457432340829, 4.306258692456001, 1.0632202528639998]}, {"species": [{"element": "Tc", "occu": 1}], "abc": [0.171429, 0.828569, 0.250001], "properties": {"magmom": 0.001}, "label": "Tc", "xyz": [-1.4574339979670001, 4.306258692456001, 1.0632202528639998]}, {"species": [{"element": "Tc", "occu": 1}], "abc": [0.828569, 0.657138999999999, 0.75], "properties": {"magmom": -0.002}, "label": "Tc", "xyz": [3.0006143422430025, 3.4152985821359954, 3.189648]}, {"species": [{"element": "Tc", "occu": 1}], "abc": [0.342860999999999, 0.17143000000000003, 0.75], "properties": {"magmom": 0.001}, "label": "Tc", "xyz": [1.5431936610259938, 0.8909601103200002, 3.189648]}, {"species": [{"element": "Tc", "occu": 1}], "abc": [0.82857, 0.17143000000000003, 0.75], "properties": {"magmom": 0.001}, "label": "Tc", "xyz": [4.45804799735, 0.8909601103200002, 3.189648]}]}, "task_ids": null, "uncorrected_energy_per_atom": null, "energy_per_atom": -39.42096064, "formation_energy_per_atom": 0.038045053750003, "energy_above_hull": 0.038045053750003, "is_stable": false, "equilibrium_reaction_energy_per_atom": null, "decomposes_to": null, "xas": null, "grain_boundaries": null, "band_gap": 0.0, "cbm": null, "vbm": null, "efermi": 9.93884181, "is_gap_direct": null, "is_metal": null, "es_source_calc_id": null, "bandstructure": null, "dos": null, "dos_energy_up": null, "dos_energy_down": null, "is_magnetic": null, "ordering": null, "total_magnetization": 6.560000000000002e-05, "total_magnetization_normalized_vol": null, "total_magnetization_normalized_formula_units": null, "num_magnetic_sites": null, "num_unique_magnetic_sites": null, "types_of_magnetic_species": null, "bulk_modulus": null, "shear_modulus": null, "universal_anisotropy": null, "homogeneous_poisson": null, "e_total": null, "e_ionic": null, "e_electronic": null, "n": null, "e_ij_max": null, "weighted_surface_energy_EV_PER_ANG2": null, "weighted_surface_energy": null, "weighted_work_function": null, "surface_anisotropy": null, "shape_factor": null, "has_reconstructed": null, "possible_species": null, "has_props": null, "theoretical": null, "database_IDs": null, "fields_not_requested": ["builder_meta", "nsites", "elements", "nelements", "composition", "composition_reduced", "chemsys", "symmetry", "property_name", "deprecated", "deprecation_reasons", "last_updated", "origins", "warnings", "task_ids", "uncorrected_energy_per_atom", "equilibrium_reaction_energy_per_atom", "decomposes_to", "xas", "grain_boundaries", "cbm", "vbm", "is_gap_direct", "is_metal", "es_source_calc_id", "bandstructure", "dos", "dos_energy_up", "dos_energy_down", "is_magnetic", "ordering", "total_magnetization_normalized_vol", "total_magnetization_normalized_formula_units", "num_magnetic_sites", "num_unique_magnetic_sites", "types_of_magnetic_species", "bulk_modulus", "shear_modulus", "universal_anisotropy", "homogeneous_poisson", "e_total", "e_ionic", "e_electronic", "n", "e_ij_max", "weighted_surface_energy_EV_PER_ANG2", "weighted_surface_energy", "weighted_work_function", "surface_anisotropy", "shape_factor", "has_reconstructed", "possible_species", "has_props", "theoretical", "database_IDs"]}