{
  "builder_meta": null,
  "nsites": null,
  "elements": null,
  "nelements": null,
  "composition": null,
  "composition_reduced": null,
  "formula_pretty": "UTe2",
  "formula_anonymous": "AB2",
  "chemsys": null,
  "volume": 188.41462237164745,
  "density": 8.693867424111154,
  "density_atomic": 31.402437061941242,
  "symmetry": null,
  "property_name": null,
  "material_id": "mp-666",
  "deprecated": null,
  "deprecation_reasons": null,
  "last_updated": null,
  "origins": null,
  "warnings": null,
  "structure": {
    "@module": "pymatgen.core.structure",
    "@class": "Structure",
    "charge": 0,
    "lattice": {
      "matrix": [
        [-2.123456, 3.08790211, 7.18369396],
        [2.123456, -3.08790211, 7.18369396],
        [2.123456, 3.08790211, -7.18369396]
      ],
      "pbc": [true, true, true],
      "a": 8.102448008831587,
      "b": 8.102448008831587,
      "c": 8.102448008831587,
      "alpha": 149.6134563266461,
      "beta": 135.19542311527283,
      "gamma": 55.09992563141775,
      "volume": 188.41462237164745
    },
    "properties": {},
    "sites": [
      {
        "species": [{ "element": "U", "occu": 1 }],
        "abc": [0.136605299999999, 0.136605299999999, -0.0],
        "properties": { "magmom": 2.597 },
        "label": "U",
        "xyz": [0.0, 0.0, 1.962661337027962]
      },
      {
        "species": [{ "element": "U", "occu": 1 }],
        "abc": [0.8633947, 0.8633947, -0.0],
        "properties": { "magmom": 2.597 },
        "label": "U",
        "xyz": [0.0, 0.0, 12.404726582972025]
      },
      {
        "species": [{ "element": "Te", "occu": 1 }],
        "abc": [0.75161655, 0.5, 0.25161655],
        "properties": { "magmom": -0.085 },
        "label": "Te",
        "xyz": [-1.1102230246251565e-16, 1.5539345513118412, 7.183693960000001]
      },
      {
        "species": [{ "element": "Te", "occu": 1 }],
        "abc": [0.24838345, 0.5, 0.7483834500000001],
        "properties": { "magmom": -0.085 },
        "label": "Te",
        "xyz": [2.123456, 1.5339675586881591, -8.881784197001252e-16]
      },
      {
        "species": [{ "element": "Te", "occu": 1 }],
        "abc": [0.70505778, 0.20505778, 0.5],
        "properties": { "magmom": -0.098 },
        "label": "Te",
        "xyz": [0.0, 3.08790211, 2.9461446712740176]
      },
      {
        "species": [{ "element": "Te", "occu": 1 }],
        "abc": [0.29494222000000003, 0.79494222, 0.5],
        "properties": { "magmom": -0.098 },
        "label": "Te",
        "xyz": [2.123456, 2.220446049250313e-16, 4.237549288725983]
      }
    ]
  },
  "task_ids": null,
  "uncorrected_energy_per_atom": null,
  "energy_per_atom": -44.670650376666664,
  "formation_energy_per_atom": -1.078488628333332,
  "energy_above_hull": 0.0,
  "is_stable": true,
  "equilibrium_reaction_energy_per_atom": null,
  "decomposes_to": null,
  "xas": null,
  "grain_boundaries": null,
  "band_gap": 0.0,
  "cbm": null,
  "vbm": null,
  "efermi": 8.37809506,
  "is_gap_direct": null,
  "is_metal": null,
  "es_source_calc_id": null,
  "bandstructure": null,
  "dos": null,
  "dos_energy_up": null,
  "dos_energy_down": null,
  "is_magnetic": null,
  "ordering": null,
  "total_magnetization": 5.2180722,
  "total_magnetization_normalized_vol": null,
  "total_magnetization_normalized_formula_units": null,
  "num_magnetic_sites": null,
  "num_unique_magnetic_sites": null,
  "types_of_magnetic_species": null,
  "bulk_modulus": null,
  "shear_modulus": null,
  "universal_anisotropy": null,
  "homogeneous_poisson": null,
  "e_total": null,
  "e_ionic": null,
  "e_electronic": null,
  "n": null,
  "e_ij_max": null,
  "weighted_surface_energy_EV_PER_ANG2": null,
  "weighted_surface_energy": null,
  "weighted_work_function": null,
  "surface_anisotropy": null,
  "shape_factor": null,
  "has_reconstructed": null,
  "possible_species": null,
  "has_props": null,
  "theoretical": null,
  "database_IDs": null,
  "fields_not_requested": [
    "builder_meta",
    "nsites",
    "elements",
    "nelements",
    "composition",
    "composition_reduced",
    "chemsys",
    "symmetry",
    "property_name",
    "deprecated",
    "deprecation_reasons",
    "last_updated",
    "origins",
    "warnings",
    "task_ids",
    "uncorrected_energy_per_atom",
    "equilibrium_reaction_energy_per_atom",
    "decomposes_to",
    "xas",
    "grain_boundaries",
    "cbm",
    "vbm",
    "is_gap_direct",
    "is_metal",
    "es_source_calc_id",
    "bandstructure",
    "dos",
    "dos_energy_up",
    "dos_energy_down",
    "is_magnetic",
    "ordering",
    "total_magnetization_normalized_vol",
    "total_magnetization_normalized_formula_units",
    "num_magnetic_sites",
    "num_unique_magnetic_sites",
    "types_of_magnetic_species",
    "bulk_modulus",
    "shear_modulus",
    "universal_anisotropy",
    "homogeneous_poisson",
    "e_total",
    "e_ionic",
    "e_electronic",
    "n",
    "e_ij_max",
    "weighted_surface_energy_EV_PER_ANG2",
    "weighted_surface_energy",
    "weighted_work_function",
    "surface_anisotropy",
    "shape_factor",
    "has_reconstructed",
    "possible_species",
    "has_props",
    "theoretical",
    "database_IDs"
  ]
}
