{"builder_meta": null, "nsites": null, "elements": null, "nelements": null, "composition": null, "composition_reduced": null, "formula_pretty": "UTe3", "formula_anonymous": "AB3", "chemsys": null, "volume": 252.30843950559242, "density": 8.171828582110074, "density_atomic": 31.538554938199052, "symmetry": null, "property_name": null, "material_id": "mp-22231", "deprecated": null, "deprecation_reasons": null, "last_updated": null, "origins": null, "warnings": null, "structure": {"@module": "pymatgen.core.structure", "@class": "Structure", "charge": 0, "lattice": {"matrix": [[2.18322409, -12.9574731, 0.0], [2.18322409, 12.9574731, -0.0], [0.0, -0.0, 4.45946902]], "pbc": [true, true, true], "a": 13.140113262996628, "b": 13.140113262996628, "c": 4.45946902, "alpha": 90.0, "beta": 90.0, "gamma": 160.87195702941779, "volume": 252.30843950559242}, "properties": {}, "sites": [{"species": [{"element": "U", "occu": 1}], "abc": [0.83213847, 0.16786153, 0.75], "properties": {"magmom": 2.594}, "label": "U", "xyz": [2.18322409, -8.607350581000313, 3.344601765]}, {"species": [{"element": "U", "occu": 1}], "abc": [0.16786153, 0.83213847, 0.25], "properties": {"magmom": 2.594}, "label": "U", "xyz": [2.18322409, 8.607350581000313, 1.114867255]}, {"species": [{"element": "Te", "occu": 1}], "abc": [0.29437181, 0.70562819, 0.25], "properties": {"magmom": -0.089}, "label": "Te", "xyz": [2.18322409, 5.328843481053378, 1.114867255]}, {"species": [{"element": "Te", "occu": 1}], "abc": [0.9246935, 0.0753065, 0.25], "properties": {"magmom": -0.045}, "label": "Te", "xyz": [2.1832240899999995, -11.005909203989699, 1.114867255]}, {"species": [{"element": "Te", "occu": 1}], "abc": [0.70562819, 0.29437181, 0.75], "properties": {"magmom": -0.089}, "label": "Te", "xyz": [2.18322409, -5.328843481053378, 3.344601765]}, {"species": [{"element": "Te", "occu": 1}], "abc": [0.0753065, 0.9246935, 0.75], "properties": {"magmom": -0.045}, "label": "Te", "xyz": [2.1832240899999995, 11.005909203989699, 3.344601765]}, {"species": [{"element": "Te", "occu": 1}], "abc": [0.57523737, 0.42476263000000003, 0.25], "properties": {"magmom": -0.061}, "label": "Te", "xyz": [2.18322409, -1.949772395779494, 1.114867255]}, {"species": [{"element": "Te", "occu": 1}], "abc": [0.42476263000000003, 0.57523737, 0.75], "properties": {"magmom": -0.061}, "label": "Te", "xyz": [2.18322409, 1.949772395779494, 3.344601765]}]}, "task_ids": null, "uncorrected_energy_per_atom": null, "energy_per_atom": -39.88759041125, "formation_energy_per_atom": -0.8391630225000021, "energy_above_hull": 0.0, "is_stable": true, "equilibrium_reaction_energy_per_atom": null, "decomposes_to": null, "xas": null, "grain_boundaries": null, "band_gap": 0.0, "cbm": null, "vbm": null, "efermi": 8.08391432, "is_gap_direct": null, "is_metal": null, "es_source_calc_id": null, "bandstructure": null, "dos": null, "dos_energy_up": null, "dos_energy_down": null, "is_magnetic": null, "ordering": null, "total_magnetization": 5.0279463, "total_magnetization_normalized_vol": null, "total_magnetization_normalized_formula_units": null, "num_magnetic_sites": null, "num_unique_magnetic_sites": null, "types_of_magnetic_species": null, "bulk_modulus": null, "shear_modulus": null, "universal_anisotropy": null, "homogeneous_poisson": null, "e_total": null, "e_ionic": null, "e_electronic": null, "n": null, "e_ij_max": null, "weighted_surface_energy_EV_PER_ANG2": null, "weighted_surface_energy": null, "weighted_work_function": null, "surface_anisotropy": null, "shape_factor": null, "has_reconstructed": null, "possible_species": null, "has_props": null, "theoretical": null, "database_IDs": null, "fields_not_requested": ["builder_meta", "nsites", "elements", "nelements", "composition", "composition_reduced", "chemsys", "symmetry", "property_name", "deprecated", "deprecation_reasons", "last_updated", "origins", "warnings", "task_ids", "uncorrected_energy_per_atom", "equilibrium_reaction_energy_per_atom", "decomposes_to", "xas", "grain_boundaries", "cbm", "vbm", "is_gap_direct", "is_metal", "es_source_calc_id", "bandstructure", "dos", "dos_energy_up", "dos_energy_down", "is_magnetic", "ordering", "total_magnetization_normalized_vol", "total_magnetization_normalized_formula_units", "num_magnetic_sites", "num_unique_magnetic_sites", "types_of_magnetic_species", "bulk_modulus", "shear_modulus", "universal_anisotropy", "homogeneous_poisson", "e_total", "e_ionic", "e_electronic", "n", "e_ij_max", "weighted_surface_energy_EV_PER_ANG2", "weighted_surface_energy", "weighted_work_function", "surface_anisotropy", "shape_factor", "has_reconstructed", "possible_species", "has_props", "theoretical", "database_IDs"]}