{
  "builder_meta": null,
  "nsites": null,
  "elements": null,
  "nelements": null,
  "composition": null,
  "composition_reduced": null,
  "formula_pretty": "UTe5",
  "formula_anonymous": "AB5",
  "chemsys": null,
  "volume": 852.5232695601132,
  "density": 6.825292777177117,
  "density_atomic": 35.52180289833805,
  "symmetry": null,
  "property_name": null,
  "material_id": "mp-651772",
  "deprecated": null,
  "deprecation_reasons": null,
  "last_updated": null,
  "origins": null,
  "warnings": null,
  "structure": {
    "@module": "pymatgen.core.structure",
    "@class": "Structure",
    "charge": 0,
    "lattice": {
      "matrix": [
        [4.31822816, 0.0, 0.0],
        [0.0, 10.34175867, 0.0],
        [0.0, 0.0, 19.09001447]
      ],
      "pbc": [true, true, true],
      "a": 4.31822816,
      "b": 10.34175867,
      "c": 19.09001447,
      "alpha": 90.0,
      "beta": 90.0,
      "gamma": 90.0,
      "volume": 852.5232695601132
    },
    "properties": {},
    "sites": [
      {
        "species": [{ "element": "U", "occu": 1 }],
        "abc": [0.39628351, 0.24598888, 0.59184638],
        "properties": { "magmom": 2.241 },
        "label": "U",
        "xyz": [1.7112426122256417, 2.5439576324635897, 11.298355958217119]
      },
      {
        "species": [{ "element": "U", "occu": 1 }],
        "abc": [0.60371649, 0.74598888, 0.40815362],
        "properties": { "magmom": 2.241 },
        "label": "U",
        "xyz": [2.6069855477743586, 7.71483696746359, 7.791658511782881]
      },
      {
        "species": [{ "element": "U", "occu": 1 }],
        "abc": [0.8962835100000001, 0.74598888, 0.90815362],
        "properties": { "magmom": 2.241 },
        "label": "U",
        "xyz": [3.8703566922256423, 7.71483696746359, 17.33666574678288]
      },
      {
        "species": [{ "element": "U", "occu": 1 }],
        "abc": [0.10371649000000001, 0.24598888, 0.09184638],
        "properties": { "magmom": 2.241 },
        "label": "U",
        "xyz": [0.4478714677743585, 2.5439576324635897, 1.7533487232171188]
      },
      {
        "species": [{ "element": "Te", "occu": 1 }],
        "abc": [0.60777359, 0.43532626, 0.15886447],
        "properties": { "magmom": -0.056 },
        "label": "Te",
        "xyz": [2.6245050312422946, 4.502039123633675, 3.032725031068881]
      },
      {
        "species": [{ "element": "Te", "occu": 1 }],
        "abc": [0.37676698000000003, 0.75919239, 0.03200755],
        "properties": { "magmom": -0.066 },
        "label": "Te",
        "xyz": [1.626965782794157, 7.8513844814805225, 0.6110245926492486]
      },
      {
        "species": [{ "element": "Te", "occu": 1 }],
        "abc": [0.12323302, 0.75919239, 0.53200755],
        "properties": { "magmom": -0.066 },
        "label": "Te",
        "xyz": [0.5321482972058432, 7.8513844814805225, 10.15603182764925]
      },
      {
        "species": [{ "element": "Te", "occu": 1 }],
        "abc": [0.10777359, 0.93532626, 0.34113553],
        "properties": { "magmom": -0.056 },
        "label": "Te",
        "xyz": [0.46539095124229446, 9.672918458633674, 6.512282203931119]
      },
      {
        "species": [{ "element": "Te", "occu": 1 }],
        "abc": [0.05727115, 0.9935697, -0.00078035],
        "properties": { "magmom": -0.045 },
        "label": "Te",
        "xyz": [0.247309892685584, 10.2752580592243, -0.0148968927916645]
      },
      {
        "species": [{ "element": "Te", "occu": 1 }],
        "abc": [0.64553375, 0.75175686, 0.74904178],
        "properties": { "magmom": -0.031 },
        "label": "Te",
        "xyz": [2.7875620174804, 7.774488024636977, 14.299218418834556]
      },
      {
        "species": [{ "element": "Te", "occu": 1 }],
        "abc": [0.62323302, 0.25919239, 0.96799245],
        "properties": { "magmom": -0.066 },
        "label": "Te",
        "xyz": [2.6912623772058435, 2.6805051464805216, 18.478989877350752]
      },
      {
        "species": [{ "element": "Te", "occu": 1 }],
        "abc": [0.14553375, 0.25175686, 0.75095822],
        "properties": { "magmom": -0.031 },
        "label": "Te",
        "xyz": [0.6284479374804, 2.603608689636977, 14.335803286165444]
      },
      {
        "species": [{ "element": "Te", "occu": 1 }],
        "abc": [0.55727115, 0.4935697, 0.50078035],
        "properties": { "magmom": -0.045 },
        "label": "Te",
        "xyz": [2.4064239726855843, 5.1043787242243, 9.559904127791665]
      },
      {
        "species": [{ "element": "Te", "occu": 1 }],
        "abc": [0.44272885, 0.9935697, 0.49921965],
        "properties": { "magmom": -0.045 },
        "label": "Te",
        "xyz": [1.9118041873144163, 10.2752580592243, 9.530110342208335]
      },
      {
        "species": [{ "element": "Te", "occu": 1 }],
        "abc": [0.39136594, 0.5628639, 0.8358092500000001],
        "properties": { "magmom": -0.061 },
        "label": "Te",
        "xyz": [1.6900074229728705, 5.821002617855013, 15.955610676659848]
      },
      {
        "species": [{ "element": "Te", "occu": 1 }],
        "abc": [0.9427288500000001, 0.4935697, 0.00078035],
        "properties": { "magmom": -0.045 },
        "label": "Te",
        "xyz": [4.070918267314417, 5.1043787242243, 0.0148968927916645]
      },
      {
        "species": [{ "element": "Te", "occu": 1 }],
        "abc": [0.10863406, 0.5628639, 0.33580925],
        "properties": { "magmom": -0.061 },
        "label": "Te",
        "xyz": [0.46910665702712967, 5.821002617855013, 6.410603441659847]
      },
      {
        "species": [{ "element": "Te", "occu": 1 }],
        "abc": [0.39222641, 0.93532626, 0.84113553],
        "properties": { "magmom": -0.056 },
        "label": "Te",
        "xyz": [1.693723128757706, 9.672918458633674, 16.057289438931118]
      },
      {
        "species": [{ "element": "Te", "occu": 1 }],
        "abc": [0.89136594, 0.0628639, 0.66419075],
        "properties": { "magmom": -0.061 },
        "label": "Te",
        "xyz": [3.8491215029728707, 0.6501232828550131, 12.679411028340153]
      },
      {
        "species": [{ "element": "Te", "occu": 1 }],
        "abc": [0.85446625, 0.75175686, 0.24904178000000002],
        "properties": { "magmom": -0.031 },
        "label": "Te",
        "xyz": [3.6897802225196004, 7.774488024636977, 4.754211183834557]
      },
      {
        "species": [{ "element": "Te", "occu": 1 }],
        "abc": [0.60863406, 0.0628639, 0.16419075],
        "properties": { "magmom": -0.061 },
        "label": "Te",
        "xyz": [2.6282207370271298, 0.6501232828550131, 3.1344037933401525]
      },
      {
        "species": [{ "element": "Te", "occu": 1 }],
        "abc": [0.89222641, 0.43532626, 0.65886447],
        "properties": { "magmom": -0.056 },
        "label": "Te",
        "xyz": [3.852837208757706, 4.502039123633675, 12.577732266068882]
      },
      {
        "species": [{ "element": "Te", "occu": 1 }],
        "abc": [0.87676698, 0.25919239, 0.46799245],
        "properties": { "magmom": -0.066 },
        "label": "Te",
        "xyz": [3.786079862794157, 2.6805051464805216, 8.93398264235075]
      },
      {
        "species": [{ "element": "Te", "occu": 1 }],
        "abc": [0.35446625, 0.25175686, 0.25095822],
        "properties": { "magmom": -0.031 },
        "label": "Te",
        "xyz": [1.5306661425196, 2.603608689636977, 4.790796051165444]
      }
    ]
  },
  "task_ids": null,
  "uncorrected_energy_per_atom": null,
  "energy_per_atom": -35.05447151958334,
  "formation_energy_per_atom": -0.54977849041667,
  "energy_above_hull": 0.009663524583324,
  "is_stable": false,
  "equilibrium_reaction_energy_per_atom": null,
  "decomposes_to": null,
  "xas": null,
  "grain_boundaries": null,
  "band_gap": 0.0,
  "cbm": null,
  "vbm": null,
  "efermi": 6.2288135,
  "is_gap_direct": null,
  "is_metal": null,
  "es_source_calc_id": null,
  "bandstructure": null,
  "dos": null,
  "dos_energy_up": null,
  "dos_energy_down": null,
  "is_magnetic": null,
  "ordering": null,
  "total_magnetization": 7.9918632,
  "total_magnetization_normalized_vol": null,
  "total_magnetization_normalized_formula_units": null,
  "num_magnetic_sites": null,
  "num_unique_magnetic_sites": null,
  "types_of_magnetic_species": null,
  "bulk_modulus": null,
  "shear_modulus": null,
  "universal_anisotropy": null,
  "homogeneous_poisson": null,
  "e_total": null,
  "e_ionic": null,
  "e_electronic": null,
  "n": null,
  "e_ij_max": null,
  "weighted_surface_energy_EV_PER_ANG2": null,
  "weighted_surface_energy": null,
  "weighted_work_function": null,
  "surface_anisotropy": null,
  "shape_factor": null,
  "has_reconstructed": null,
  "possible_species": null,
  "has_props": null,
  "theoretical": null,
  "database_IDs": null,
  "fields_not_requested": [
    "builder_meta",
    "nsites",
    "elements",
    "nelements",
    "composition",
    "composition_reduced",
    "chemsys",
    "symmetry",
    "property_name",
    "deprecated",
    "deprecation_reasons",
    "last_updated",
    "origins",
    "warnings",
    "task_ids",
    "uncorrected_energy_per_atom",
    "equilibrium_reaction_energy_per_atom",
    "decomposes_to",
    "xas",
    "grain_boundaries",
    "cbm",
    "vbm",
    "is_gap_direct",
    "is_metal",
    "es_source_calc_id",
    "bandstructure",
    "dos",
    "dos_energy_up",
    "dos_energy_down",
    "is_magnetic",
    "ordering",
    "total_magnetization_normalized_vol",
    "total_magnetization_normalized_formula_units",
    "num_magnetic_sites",
    "num_unique_magnetic_sites",
    "types_of_magnetic_species",
    "bulk_modulus",
    "shear_modulus",
    "universal_anisotropy",
    "homogeneous_poisson",
    "e_total",
    "e_ionic",
    "e_electronic",
    "n",
    "e_ij_max",
    "weighted_surface_energy_EV_PER_ANG2",
    "weighted_surface_energy",
    "weighted_work_function",
    "surface_anisotropy",
    "shape_factor",
    "has_reconstructed",
    "possible_species",
    "has_props",
    "theoretical",
    "database_IDs"
  ]
}
