{
  "builder_meta": null,
  "nsites": null,
  "elements": null,
  "nelements": null,
  "composition": null,
  "composition_reduced": null,
  "formula_pretty": "UZn3",
  "formula_anonymous": "AB3",
  "chemsys": null,
  "volume": 151.92762653787986,
  "density": 9.492663314622943,
  "density_atomic": 18.990953317234982,
  "symmetry": null,
  "property_name": null,
  "material_id": "mp-972147",
  "deprecated": null,
  "deprecation_reasons": null,
  "last_updated": null,
  "origins": null,
  "warnings": null,
  "structure": {
    "@module": "pymatgen.core.structure",
    "@class": "Structure",
    "charge": 0,
    "lattice": {
      "matrix": [
        [3.161853, -5.47649, 0.0],
        [3.161853, 5.47649, 0.0],
        [0.0, 0.0, 4.386951]
      ],
      "pbc": [true, true, true],
      "a": 6.323705963571441,
      "b": 6.323705963571441,
      "c": 4.386951,
      "alpha": 90.0,
      "beta": 90.0,
      "gamma": 119.9999996188795,
      "volume": 151.92762653787986
    },
    "properties": {},
    "sites": [
      {
        "species": [{ "element": "U", "occu": 1 }],
        "abc": [0.333333, 0.666667, 0.75],
        "properties": { "magmom": 2.292 },
        "label": "U",
        "xyz": [3.161853, 1.8255003176600002, 3.29021325]
      },
      {
        "species": [{ "element": "U", "occu": 1 }],
        "abc": [0.666667, 0.333333, 0.25],
        "properties": { "magmom": 2.293 },
        "label": "U",
        "xyz": [3.161853, -1.8255003176600002, 1.09673775]
      },
      {
        "species": [{ "element": "Zn", "occu": 1 }],
        "abc": [0.150138, 0.300276999999999, 0.25],
        "properties": { "magmom": 0.019 },
        "label": "Zn",
        "xyz": [1.4241460189949968, 0.8222347321099948, 1.09673775]
      },
      {
        "species": [{ "element": "Zn", "occu": 1 }],
        "abc": [0.699723, 0.849862, 0.25],
        "properties": { "magmom": 0.019 },
        "label": "Zn",
        "xyz": [4.899559981005, 0.8222347321100001, 1.09673775]
      },
      {
        "species": [{ "element": "Zn", "occu": 1 }],
        "abc": [0.150138, 0.849862, 0.25],
        "properties": { "magmom": 0.019 },
        "label": "Zn",
        "xyz": [3.161853, 3.83203148876, 1.09673775]
      },
      {
        "species": [{ "element": "Zn", "occu": 1 }],
        "abc": [0.849862, 0.699723, 0.75],
        "properties": { "magmom": 0.019 },
        "label": "Zn",
        "xyz": [4.899559981005, -0.8222347321100001, 3.29021325]
      },
      {
        "species": [{ "element": "Zn", "occu": 1 }],
        "abc": [0.300276999999999, 0.150138, 0.75],
        "properties": { "magmom": 0.018000000000000002 },
        "label": "Zn",
        "xyz": [1.4241460189949968, -0.8222347321099948, 3.29021325]
      },
      {
        "species": [{ "element": "Zn", "occu": 1 }],
        "abc": [0.849862, 0.150138, 0.75],
        "properties": { "magmom": 0.019 },
        "label": "Zn",
        "xyz": [3.161853, -3.83203148876, 3.29021325]
      }
    ]
  },
  "task_ids": null,
  "uncorrected_energy_per_atom": null,
  "energy_per_atom": -3.61937096125,
  "formation_energy_per_atom": 0.14828924875000102,
  "energy_above_hull": 0.20262742352941202,
  "is_stable": false,
  "equilibrium_reaction_energy_per_atom": null,
  "decomposes_to": null,
  "xas": null,
  "grain_boundaries": null,
  "band_gap": 0.0,
  "cbm": null,
  "vbm": null,
  "efermi": 5.30641481,
  "is_gap_direct": null,
  "is_metal": null,
  "es_source_calc_id": null,
  "bandstructure": null,
  "dos": null,
  "dos_energy_up": null,
  "dos_energy_down": null,
  "is_magnetic": null,
  "ordering": null,
  "total_magnetization": 5.2340997,
  "total_magnetization_normalized_vol": null,
  "total_magnetization_normalized_formula_units": null,
  "num_magnetic_sites": null,
  "num_unique_magnetic_sites": null,
  "types_of_magnetic_species": null,
  "bulk_modulus": null,
  "shear_modulus": null,
  "universal_anisotropy": null,
  "homogeneous_poisson": null,
  "e_total": null,
  "e_ionic": null,
  "e_electronic": null,
  "n": null,
  "e_ij_max": null,
  "weighted_surface_energy_EV_PER_ANG2": null,
  "weighted_surface_energy": null,
  "weighted_work_function": null,
  "surface_anisotropy": null,
  "shape_factor": null,
  "has_reconstructed": null,
  "possible_species": null,
  "has_props": null,
  "theoretical": null,
  "database_IDs": null,
  "fields_not_requested": [
    "builder_meta",
    "nsites",
    "elements",
    "nelements",
    "composition",
    "composition_reduced",
    "chemsys",
    "symmetry",
    "property_name",
    "deprecated",
    "deprecation_reasons",
    "last_updated",
    "origins",
    "warnings",
    "task_ids",
    "uncorrected_energy_per_atom",
    "equilibrium_reaction_energy_per_atom",
    "decomposes_to",
    "xas",
    "grain_boundaries",
    "cbm",
    "vbm",
    "is_gap_direct",
    "is_metal",
    "es_source_calc_id",
    "bandstructure",
    "dos",
    "dos_energy_up",
    "dos_energy_down",
    "is_magnetic",
    "ordering",
    "total_magnetization_normalized_vol",
    "total_magnetization_normalized_formula_units",
    "num_magnetic_sites",
    "num_unique_magnetic_sites",
    "types_of_magnetic_species",
    "bulk_modulus",
    "shear_modulus",
    "universal_anisotropy",
    "homogeneous_poisson",
    "e_total",
    "e_ionic",
    "e_electronic",
    "n",
    "e_ij_max",
    "weighted_surface_energy_EV_PER_ANG2",
    "weighted_surface_energy",
    "weighted_work_function",
    "surface_anisotropy",
    "shape_factor",
    "has_reconstructed",
    "possible_species",
    "has_props",
    "theoretical",
    "database_IDs"
  ]
}
