{"builder_meta": null, "nsites": null, "elements": null, "nelements": null, "composition": null, "composition_reduced": null, "formula_pretty": "V2B3", "formula_anonymous": "A2B3", "chemsys": null, "volume": 82.55917414505952, "density": 5.403081306931714, "density_atomic": 8.255917414505952, "symmetry": null, "property_name": null, "material_id": "mp-9208", "deprecated": null, "deprecation_reasons": null, "last_updated": null, "origins": null, "warnings": null, "structure": {"@module": "pymatgen.core.structure", "@class": "Structure", "charge": 0, "lattice": {"matrix": [[2.9729110800000003, 0.0, 0.0], [0.0, 2.98466385, -0.49556504], [0.0, 0.01109738, 9.30254933]], "pbc": [true, true, true], "a": 2.9729110800000003, "b": 3.025525244708268, "c": 9.302555949249987, "alpha": 99.35887369929111, "beta": 90.0, "gamma": 90.0, "volume": 82.55917414505953}, "properties": {}, "sites": [{"species": [{"element": "V", "occu": 1}], "abc": [0.25, 0.29477725, 0.5895545], "properties": {"magmom": -0.0}, "label": "V", "xyz": [0.7432277700000001, 0.8863535121946224, 5.338278519286145]}, {"species": [{"element": "V", "occu": 1}], "abc": [0.75, 0.70522275, 0.410445499999999], "properties": {"magmom": -0.0}, "label": "V", "xyz": [2.2296833100000004, 2.1094077178053774, 3.468705770713846]}, {"species": [{"element": "V", "occu": 1}], "abc": [0.25, 0.57067312, 0.14134425], "properties": {"magmom": -0.0}, "label": "V", "xyz": [0.7432277700000001, 1.704835982283777, 1.0320562105971276]}, {"species": [{"element": "V", "occu": 1}], "abc": [0.75, 0.42932688, 0.85865575], "properties": {"magmom": -0.0}, "label": "V", "xyz": [2.2296833100000004, 1.2909252477162232, 7.774928079402873]}, {"species": [{"element": "B", "occu": 1}], "abc": [0.25, 0.16892867, 0.33785734], "properties": {"magmom": 0.0}, "label": "B", "xyz": [0.7432277700000001, 0.5079446258653487, 3.0592194287468852]}, {"species": [{"element": "B", "occu": 1}], "abc": [0.75, 0.83107133, 0.66214266], "properties": {"magmom": 0.0}, "label": "B", "xyz": [2.2296833100000004, 2.487816604134651, 5.747764861253114]}, {"species": [{"element": "B", "occu": 1}], "abc": [0.25, 0.88230054, 0.76459908], "properties": {"magmom": 0.0}, "label": "B", "xyz": [0.7432277700000001, 2.6418555731118896, 6.675483356975495]}, {"species": [{"element": "B", "occu": 1}], "abc": [0.75, 0.11769946, 0.23540092], "properties": {"magmom": 0.0}, "label": "B", "xyz": [2.2296833100000004, 0.35390565688811065, 2.131500933024505]}, {"species": [{"element": "B", "occu": 1}], "abc": [0.75, 0.02364477, 0.047288540000000004], "properties": {"magmom": 0.0}, "label": "B", "xyz": [2.2296833100000004, 0.07109646915858969, 0.4281864547028374]}, {"species": [{"element": "B", "occu": 1}], "abc": [0.25, 0.97635523, 0.9527114600000001], "properties": {"magmom": 0.0}, "label": "B", "xyz": [0.7432277700000001, 2.9246647608414102, 8.378797835297162]}]}, "task_ids": null, "uncorrected_energy_per_atom": null, "energy_per_atom": -10.876815062999999, "formation_energy_per_atom": -0.833172252499998, "energy_above_hull": 0.0, "is_stable": true, "equilibrium_reaction_energy_per_atom": null, "decomposes_to": null, "xas": null, "grain_boundaries": null, "band_gap": 0.0, "cbm": null, "vbm": null, "efermi": 8.4520879, "is_gap_direct": null, "is_metal": null, "es_source_calc_id": null, "bandstructure": null, "dos": null, "dos_energy_up": null, "dos_energy_down": null, "is_magnetic": null, "ordering": null, "total_magnetization": 0.0, "total_magnetization_normalized_vol": null, "total_magnetization_normalized_formula_units": null, "num_magnetic_sites": null, "num_unique_magnetic_sites": null, "types_of_magnetic_species": null, "bulk_modulus": null, "shear_modulus": null, "universal_anisotropy": null, "homogeneous_poisson": null, "e_total": null, "e_ionic": null, "e_electronic": null, "n": null, "e_ij_max": null, "weighted_surface_energy_EV_PER_ANG2": null, "weighted_surface_energy": null, "weighted_work_function": null, "surface_anisotropy": null, "shape_factor": null, "has_reconstructed": null, "possible_species": null, "has_props": null, "theoretical": null, "database_IDs": null, "fields_not_requested": ["builder_meta", "nsites", "elements", "nelements", "composition", "composition_reduced", "chemsys", "symmetry", "property_name", "deprecated", "deprecation_reasons", "last_updated", "origins", "warnings", "task_ids", "uncorrected_energy_per_atom", "equilibrium_reaction_energy_per_atom", "decomposes_to", "xas", "grain_boundaries", "cbm", "vbm", "is_gap_direct", "is_metal", "es_source_calc_id", "bandstructure", "dos", "dos_energy_up", "dos_energy_down", "is_magnetic", "ordering", "total_magnetization_normalized_vol", "total_magnetization_normalized_formula_units", "num_magnetic_sites", "num_unique_magnetic_sites", "types_of_magnetic_species", "bulk_modulus", "shear_modulus", "universal_anisotropy", "homogeneous_poisson", "e_total", "e_ionic", "e_electronic", "n", "e_ij_max", "weighted_surface_energy_EV_PER_ANG2", "weighted_surface_energy", "weighted_work_function", "surface_anisotropy", "shape_factor", "has_reconstructed", "possible_species", "has_props", "theoretical", "database_IDs"]}