{"builder_meta": null, "nsites": null, "elements": null, "nelements": null, "composition": null, "composition_reduced": null, "formula_pretty": "V2C", "formula_anonymous": "AB2", "chemsys": null, "volume": 130.07509514040711, "density": 5.8158693048957, "density_atomic": 10.839591261700592, "symmetry": null, "property_name": null, "material_id": "mp-20648", "deprecated": null, "deprecation_reasons": null, "last_updated": null, "origins": null, "warnings": null, "structure": {"@module": "pymatgen.core.structure", "@class": "Structure", "charge": 0, "lattice": {"matrix": [[4.5106573999999995, 0.0, 0.0], [0.0, 5.01469382, 0.0], [0.0, 0.0, 5.75055668]], "pbc": [true, true, true], "a": 4.5106573999999995, "b": 5.01469382, "c": 5.75055668, "alpha": 90.0, "beta": 90.0, "gamma": 90.0, "volume": 130.0750951404071}, "properties": {}, "sites": [{"species": [{"element": "V", "occu": 1}], "abc": [0.24208699, 0.07555798, 0.11672783], "properties": {"magmom": 0.0}, "label": "V", "xyz": [1.0919714728872258, 0.3789001353576836, 0.6712500025484044]}, {"species": [{"element": "V", "occu": 1}], "abc": [0.74208699, 0.92444202, 0.38327217], "properties": {"magmom": 0.0}, "label": "V", "xyz": [3.3473001728872256, 4.635793684642316, 2.2040283374515957]}, {"species": [{"element": "V", "occu": 1}], "abc": [0.25791301, 0.57555798, 0.38327217], "properties": {"magmom": 0.0}, "label": "V", "xyz": [1.163357227112774, 2.8862470453576834, 2.2040283374515957]}, {"species": [{"element": "V", "occu": 1}], "abc": [0.75791301, 0.42444202000000003, 0.11672783], "properties": {"magmom": 0.0}, "label": "V", "xyz": [3.4186859271127736, 2.1284467746423164, 0.6712500025484044]}, {"species": [{"element": "V", "occu": 1}], "abc": [0.24208699, 0.57555798, 0.88327217], "properties": {"magmom": 0.0}, "label": "V", "xyz": [1.0919714728872258, 2.8862470453576834, 5.079306677451596]}, {"species": [{"element": "V", "occu": 1}], "abc": [0.74208699, 0.42444202000000003, 0.61672783], "properties": {"magmom": 0.0}, "label": "V", "xyz": [3.3473001728872256, 2.1284467746423164, 3.546528342548404]}, {"species": [{"element": "V", "occu": 1}], "abc": [0.25791301, 0.07555798, 0.61672783], "properties": {"magmom": 0.0}, "label": "V", "xyz": [1.163357227112774, 0.3789001353576836, 3.546528342548404]}, {"species": [{"element": "V", "occu": 1}], "abc": [0.75791301, 0.92444202, 0.88327217], "properties": {"magmom": 0.0}, "label": "V", "xyz": [3.4186859271127736, 4.635793684642316, 5.079306677451596]}, {"species": [{"element": "C", "occu": 1}], "abc": [0.5, 0.75, 0.12556023], "properties": {"magmom": 0.0}, "label": "C", "xyz": [2.2553286999999997, 3.761020365, 0.7220412193688364]}, {"species": [{"element": "C", "occu": 1}], "abc": [-0.0, 0.25, 0.37443977], "properties": {"magmom": 0.0}, "label": "C", "xyz": [0.0, 1.253673455, 2.1532371206311636]}, {"species": [{"element": "C", "occu": 1}], "abc": [0.5, 0.25, 0.8744397700000001], "properties": {"magmom": 0.0}, "label": "C", "xyz": [2.2553286999999997, 1.253673455, 5.028515460631164]}, {"species": [{"element": "C", "occu": 1}], "abc": [-0.0, 0.75, 0.62556023], "properties": {"magmom": 0.0}, "label": "C", "xyz": [0.0, 3.761020365, 3.5973195593688367]}]}, "task_ids": null, "uncorrected_energy_per_atom": null, "energy_per_atom": -9.603058374166666, "formation_energy_per_atom": -0.47089916333333304, "energy_above_hull": 0.0, "is_stable": true, "equilibrium_reaction_energy_per_atom": null, "decomposes_to": null, "xas": null, "grain_boundaries": null, "band_gap": 0.0, "cbm": null, "vbm": null, "efermi": 6.43580874, "is_gap_direct": null, "is_metal": null, "es_source_calc_id": null, "bandstructure": null, "dos": null, "dos_energy_up": null, "dos_energy_down": null, "is_magnetic": null, "ordering": null, "total_magnetization": 1e-07, "total_magnetization_normalized_vol": null, "total_magnetization_normalized_formula_units": null, "num_magnetic_sites": null, "num_unique_magnetic_sites": null, "types_of_magnetic_species": null, "bulk_modulus": null, "shear_modulus": null, "universal_anisotropy": null, "homogeneous_poisson": null, "e_total": null, "e_ionic": null, "e_electronic": null, "n": null, "e_ij_max": null, "weighted_surface_energy_EV_PER_ANG2": null, "weighted_surface_energy": null, "weighted_work_function": null, "surface_anisotropy": null, "shape_factor": null, "has_reconstructed": null, "possible_species": null, "has_props": null, "theoretical": null, "database_IDs": null, "fields_not_requested": ["builder_meta", "nsites", "elements", "nelements", "composition", "composition_reduced", "chemsys", "symmetry", "property_name", "deprecated", "deprecation_reasons", "last_updated", "origins", "warnings", "task_ids", "uncorrected_energy_per_atom", "equilibrium_reaction_energy_per_atom", "decomposes_to", "xas", "grain_boundaries", "cbm", "vbm", "is_gap_direct", "is_metal", "es_source_calc_id", "bandstructure", "dos", "dos_energy_up", "dos_energy_down", "is_magnetic", "ordering", "total_magnetization_normalized_vol", "total_magnetization_normalized_formula_units", "num_magnetic_sites", "num_unique_magnetic_sites", "types_of_magnetic_species", "bulk_modulus", "shear_modulus", "universal_anisotropy", "homogeneous_poisson", "e_total", "e_ionic", "e_electronic", "n", "e_ij_max", "weighted_surface_energy_EV_PER_ANG2", "weighted_surface_energy", "weighted_work_function", "surface_anisotropy", "shape_factor", "has_reconstructed", "possible_species", "has_props", "theoretical", "database_IDs"]}