{"builder_meta": null, "nsites": null, "elements": null, "nelements": null, "composition": null, "composition_reduced": null, "formula_pretty": "V2F7", "formula_anonymous": "A2B7", "chemsys": null, "volume": 250.50683001214853, "density": 3.11379802873896, "density_atomic": 13.917046111786028, "symmetry": null, "property_name": null, "material_id": "mp-759957", "deprecated": null, "deprecation_reasons": null, "last_updated": null, "origins": null, "warnings": null, "structure": {"@module": "pymatgen.core.structure", "@class": "Structure", "charge": 0, "lattice": {"matrix": [[-6.36681158, -0.00068108, -0.00925454], [-3.18682657, -6.50514178, 0.20975372], [-3.19566736, -2.22762506, 6.11748316]], "pbc": [true, true, true], "a": 6.366818342437821, "b": 7.246842746204264, "c": 7.252461892115874, "alpha": 60.40264046174841, "beta": 63.931946577724936, "gamma": 63.90841471873016, "volume": 250.50683001214853}, "properties": {}, "sites": [{"species": [{"element": "V", "occu": 1}], "abc": [0.5, 0.5, -0.0], "properties": {"magmom": 1.8250000000000002}, "label": "V", "xyz": [-4.776819075000001, -3.2529114299999997, 0.10024959]}, {"species": [{"element": "V", "occu": 1}], "abc": [0.5, -0.0, 0.5], "properties": {"magmom": 1.826}, "label": "V", "xyz": [-4.78123947, -1.11415307, 3.05411431]}, {"species": [{"element": "V", "occu": 1}], "abc": [0.5, -0.0, -0.0], "properties": {"magmom": 1.046}, "label": "V", "xyz": [-3.18340579, -0.00034054, -0.00462727]}, {"species": [{"element": "V", "occu": 1}], "abc": [-0.0, 0.5, 0.5], "properties": {"magmom": 1.046}, "label": "V", "xyz": [-3.191246965, -4.36638342, 3.16361844]}, {"species": [{"element": "F", "occu": 1}], "abc": [0.80379201, 0.96791897, 0.96117867], "properties": {"magmom": -0.04}, "label": "F", "xyz": [-11.273789471229719, -8.438143270493207, 6.07558020678404]}, {"species": [{"element": "F", "occu": 1}], "abc": [0.83102076, 0.43620582, 0.80843615], "properties": {"magmom": 0.018000000000000002}, "label": "F", "xyz": [-9.264557912352103, -4.6390393231303, 5.0293996121266344]}, {"species": [{"element": "F", "occu": 1}], "abc": [0.82779972, 0.80955731, 0.44148655000000003], "properties": {"magmom": 0.009000000000000001}, "label": "F", "xyz": [-9.261207746376492, -6.250315380851652, 2.8629332866964625]}, {"species": [{"element": "F", "occu": 1}], "abc": [0.76627561, 0.46474238, 0.46562148000000003], "properties": {"magmom": -0.04}, "label": "F", "xyz": [-7.847757157759493, -4.0609670453893845, 2.9388214775971613]}, {"species": [{"element": "F", "occu": 1}], "abc": [0.40019278, 0.7471818, 0.75270043], "properties": {"magmom": 0.001}, "label": "F", "xyz": [-7.334471034805784, -6.537530448274982, 4.757652767025834]}, {"species": [{"element": "F", "occu": 1}], "abc": [0.42560155, 0.9387078600000001, 0.30911006], "properties": {"magmom": 0.01}, "label": "F", "xyz": [-6.689036956111431, -6.795298903958169, 2.083934305696292]}, {"species": [{"element": "F", "occu": 1}], "abc": [0.4213802, 0.30859167, 0.93904149], "properties": {"magmom": 0.017}, "label": "F", "xyz": [-6.667140709458154, -4.0995519146073285, 5.805399072443714]}, {"species": [{"element": "F", "occu": 1}], "abc": [0.5786198, 0.69140833, 0.06095851], "properties": {"magmom": 0.017}, "label": "F", "xyz": [-6.082164800541846, -4.633896005392672, 0.5125832675562871]}, {"species": [{"element": "F", "occu": 1}], "abc": [0.57439845, 0.06129214, 0.69088994], "properties": {"magmom": 0.01}, "label": "F", "xyz": [-6.060268553888569, -1.9381490160418315, 4.234048034303709]}, {"species": [{"element": "F", "occu": 1}], "abc": [0.59980722, 0.2528182, 0.24729957], "properties": {"magmom": 0.001}, "label": "F", "xyz": [-5.414834475194217, -2.195917471725018, 1.5603295729741664]}, {"species": [{"element": "F", "occu": 1}], "abc": [0.23372439, 0.53525762, 0.53437852], "properties": {"magmom": -0.04}, "label": "F", "xyz": [-4.901548352240507, -4.672480874610615, 3.3791608624028386]}, {"species": [{"element": "F", "occu": 1}], "abc": [0.17220028, 0.19044269, 0.55851345], "properties": {"magmom": 0.009000000000000001}, "label": "F", "xyz": [-3.4880977636235078, -2.4831325391483476, 3.4550490533035374]}, {"species": [{"element": "F", "occu": 1}], "abc": [0.16897924, 0.56379418, 0.19156385], "properties": {"magmom": 0.018000000000000002}, "label": "F", "xyz": [-3.4847475976478983, -4.094408596869701, 1.2885827278733661]}, {"species": [{"element": "F", "occu": 1}], "abc": [0.19620799, 0.03208103, 0.03882133], "properties": {"magmom": -0.04}, "label": "F", "xyz": [-1.4755160387702801, -0.2953046495067924, 0.24240213321595983]}]}, "task_ids": null, "uncorrected_energy_per_atom": null, "energy_per_atom": -8.682754968333334, "formation_energy_per_atom": -3.120383067222223, "energy_above_hull": 0.0064417883333330005, "is_stable": false, "equilibrium_reaction_energy_per_atom": null, "decomposes_to": null, "xas": null, "grain_boundaries": null, "band_gap": 1.8102, "cbm": null, "vbm": null, "efermi": -0.21773046000000001, "is_gap_direct": null, "is_metal": null, "es_source_calc_id": null, "bandstructure": null, "dos": null, "dos_energy_up": null, "dos_energy_down": null, "is_magnetic": null, "ordering": null, "total_magnetization": 6.0000001, "total_magnetization_normalized_vol": null, "total_magnetization_normalized_formula_units": null, "num_magnetic_sites": null, "num_unique_magnetic_sites": null, "types_of_magnetic_species": null, "bulk_modulus": null, "shear_modulus": null, "universal_anisotropy": null, "homogeneous_poisson": null, "e_total": null, "e_ionic": null, "e_electronic": null, "n": null, "e_ij_max": null, "weighted_surface_energy_EV_PER_ANG2": null, "weighted_surface_energy": null, "weighted_work_function": null, "surface_anisotropy": null, "shape_factor": null, "has_reconstructed": null, "possible_species": null, "has_props": null, "theoretical": null, "database_IDs": null, "fields_not_requested": ["builder_meta", "nsites", "elements", "nelements", "composition", "composition_reduced", "chemsys", "symmetry", "property_name", "deprecated", "deprecation_reasons", "last_updated", "origins", "warnings", "task_ids", "uncorrected_energy_per_atom", "equilibrium_reaction_energy_per_atom", "decomposes_to", "xas", "grain_boundaries", "cbm", "vbm", "is_gap_direct", "is_metal", "es_source_calc_id", "bandstructure", "dos", "dos_energy_up", "dos_energy_down", "is_magnetic", "ordering", "total_magnetization_normalized_vol", "total_magnetization_normalized_formula_units", "num_magnetic_sites", "num_unique_magnetic_sites", "types_of_magnetic_species", "bulk_modulus", "shear_modulus", "universal_anisotropy", "homogeneous_poisson", "e_total", "e_ionic", "e_electronic", "n", "e_ij_max", "weighted_surface_energy_EV_PER_ANG2", "weighted_surface_energy", "weighted_work_function", "surface_anisotropy", "shape_factor", "has_reconstructed", "possible_species", "has_props", "theoretical", "database_IDs"]}