{"builder_meta": null, "nsites": null, "elements": null, "nelements": null, "composition": null, "composition_reduced": null, "formula_pretty": "V2Ga5", "formula_anonymous": "A2B5", "chemsys": null, "volume": 210.6819113762097, "density": 7.101412015285514, "density_atomic": 15.04870795544355, "symmetry": null, "property_name": null, "material_id": "mp-20405", "deprecated": null, "deprecation_reasons": null, "last_updated": null, "origins": null, "warnings": null, "structure": {"@module": "pymatgen.core.structure", "@class": "Structure", "charge": 0, "lattice": {"matrix": [[2.65706884, 0.0, -0.0], [0.0, 8.90455502, 0.0], [0.0, 0.0, 8.90455502]], "pbc": [true, true, true], "a": 2.65706884, "b": 8.90455502, "c": 8.90455502, "alpha": 90.0, "beta": 90.0, "gamma": 90.0, "volume": 210.6819113762097}, "properties": {}, "sites": [{"species": [{"element": "V", "occu": 1}], "abc": [0.5, 0.67948542, 0.17948542], "properties": {"magmom": 0.0}, "label": "V", "xyz": [1.32853442, 6.050515307677808, 1.5982377976778084]}, {"species": [{"element": "V", "occu": 1}], "abc": [0.5, 0.82051458, 0.67948542], "properties": {"magmom": 0.0}, "label": "V", "xyz": [1.32853442, 7.306317222322192, 6.050515307677808]}, {"species": [{"element": "V", "occu": 1}], "abc": [0.5, 0.17948542, 0.32051458], "properties": {"magmom": 0.0}, "label": "V", "xyz": [1.32853442, 1.5982377976778084, 2.8540397123221917]}, {"species": [{"element": "V", "occu": 1}], "abc": [0.5, 0.32051458, 0.82051458], "properties": {"magmom": 0.0}, "label": "V", "xyz": [1.32853442, 2.8540397123221917, 7.306317222322192]}, {"species": [{"element": "Ga", "occu": 1}], "abc": [-0.0, 0.56163873, 0.70686395], "properties": {"magmom": -0.0}, "label": "Ga", "xyz": [0.0, 5.001142972647925, 6.294308934429529]}, {"species": [{"element": "Ga", "occu": 1}], "abc": [0.0, 0.70686395, 0.43836127], "properties": {"magmom": -0.0}, "label": "Ga", "xyz": [0.0, 6.294308934429529, 3.9034120473520755]}, {"species": [{"element": "Ga", "occu": 1}], "abc": [0.0, 0.79313605, 0.93836127], "properties": {"magmom": -0.0}, "label": "Ga", "xyz": [0.0, 7.062523595570471, 8.355689557352076]}, {"species": [{"element": "Ga", "occu": 1}], "abc": [-0.0, 0.20686395, 0.06163873], "properties": {"magmom": -0.0}, "label": "Ga", "xyz": [0.0, 1.8420314244295288, 0.5488654626479247]}, {"species": [{"element": "Ga", "occu": 1}], "abc": [0.0, 0.06163873, 0.79313605], "properties": {"magmom": -0.0}, "label": "Ga", "xyz": [0.0, 0.5488654626479247, 7.062523595570471]}, {"species": [{"element": "Ga", "occu": 1}], "abc": [-0.0, 0.93836127, 0.20686395], "properties": {"magmom": -0.0}, "label": "Ga", "xyz": [0.0, 8.355689557352076, 1.8420314244295288]}, {"species": [{"element": "Ga", "occu": 1}], "abc": [0.0, 0.43836127, 0.29313605], "properties": {"magmom": -0.0}, "label": "Ga", "xyz": [0.0, 3.9034120473520755, 2.6102460855704708]}, {"species": [{"element": "Ga", "occu": 1}], "abc": [-0.0, 0.29313605, 0.56163873], "properties": {"magmom": -0.0}, "label": "Ga", "xyz": [0.0, 2.6102460855704708, 5.001142972647925]}, {"species": [{"element": "Ga", "occu": 1}], "abc": [-0.0, 0.5, 0.0], "properties": {"magmom": -0.0}, "label": "Ga", "xyz": [0.0, 4.45227751, 0.0]}, {"species": [{"element": "Ga", "occu": 1}], "abc": [-0.0, -0.0, 0.5], "properties": {"magmom": -0.0}, "label": "Ga", "xyz": [0.0, 0.0, 4.45227751]}]}, "task_ids": null, "uncorrected_energy_per_atom": null, "energy_per_atom": -12.46842296, "formation_energy_per_atom": -0.26941850142857104, "energy_above_hull": 0.0, "is_stable": true, "equilibrium_reaction_energy_per_atom": null, "decomposes_to": null, "xas": null, "grain_boundaries": null, "band_gap": 0.0, "cbm": null, "vbm": null, "efermi": 5.0301006, "is_gap_direct": null, "is_metal": null, "es_source_calc_id": null, "bandstructure": null, "dos": null, "dos_energy_up": null, "dos_energy_down": null, "is_magnetic": null, "ordering": null, "total_magnetization": 2.92e-05, "total_magnetization_normalized_vol": null, "total_magnetization_normalized_formula_units": null, "num_magnetic_sites": null, "num_unique_magnetic_sites": null, "types_of_magnetic_species": null, "bulk_modulus": null, "shear_modulus": null, "universal_anisotropy": null, "homogeneous_poisson": null, "e_total": null, "e_ionic": null, "e_electronic": null, "n": null, "e_ij_max": null, "weighted_surface_energy_EV_PER_ANG2": null, "weighted_surface_energy": null, "weighted_work_function": null, "surface_anisotropy": null, "shape_factor": null, "has_reconstructed": null, "possible_species": null, "has_props": null, "theoretical": null, "database_IDs": null, "fields_not_requested": ["builder_meta", "nsites", "elements", "nelements", "composition", "composition_reduced", "chemsys", "symmetry", "property_name", "deprecated", "deprecation_reasons", "last_updated", "origins", "warnings", "task_ids", "uncorrected_energy_per_atom", "equilibrium_reaction_energy_per_atom", "decomposes_to", "xas", "grain_boundaries", "cbm", "vbm", "is_gap_direct", "is_metal", "es_source_calc_id", "bandstructure", "dos", "dos_energy_up", "dos_energy_down", "is_magnetic", "ordering", "total_magnetization_normalized_vol", "total_magnetization_normalized_formula_units", "num_magnetic_sites", "num_unique_magnetic_sites", "types_of_magnetic_species", "bulk_modulus", "shear_modulus", "universal_anisotropy", "homogeneous_poisson", "e_total", "e_ionic", "e_electronic", "n", "e_ij_max", "weighted_surface_energy_EV_PER_ANG2", "weighted_surface_energy", "weighted_work_function", "surface_anisotropy", "shape_factor", "has_reconstructed", "possible_species", "has_props", "theoretical", "database_IDs"]}