{"builder_meta": null, "nsites": null, "elements": null, "nelements": null, "composition": null, "composition_reduced": null, "formula_pretty": "V2H", "formula_anonymous": "AB2", "chemsys": null, "volume": 114.21355889009482, "density": 5.983682747636155, "density_atomic": 9.517796574174568, "symmetry": null, "property_name": null, "material_id": "mp-642659", "deprecated": null, "deprecation_reasons": null, "last_updated": null, "origins": null, "warnings": null, "structure": {"@module": "pymatgen.core.structure", "@class": "Structure", "charge": 0, "lattice": {"matrix": [[-2.9255132, 2.9255132, 3.3362113], [2.9255132, -2.9255132, 3.3362113], [2.9255132, 2.9255132, -3.3362113]], "pbc": [true, true, true], "a": 5.314843441249815, "b": 5.314843441249815, "c": 5.314843441249815, "alpha": 113.20531361488625, "beta": 113.20531361488625, "gamma": 102.23639981881507, "volume": 114.21355889009482}, "properties": {}, "sites": [{"species": [{"element": "V", "occu": 1}], "abc": [0.73147779, 0.73345181, 0.50197301], "properties": {"magmom": -0.0}, "label": "V", "xyz": [1.4743036883657963, 1.4627536452316683, 3.2126266569674664]}, {"species": [{"element": "V", "occu": 1}], "abc": [0.73345181, 0.73147779, 0.00197201], "properties": {"magmom": -0.0}, "label": "V", "xyz": [-5.880281531997142e-06, 0.011544162852596, 4.880735643178767]}, {"species": [{"element": "V", "occu": 1}], "abc": [0.22950778, 0.73147779, 0.49802799000000003], "properties": {"magmom": -0.0}, "label": "V", "xyz": [2.9255073489736008, -0.011532431544664101, 1.5445243098166541]}, {"species": [{"element": "V", "occu": 1}], "abc": [0.73147779, 0.22950778, 0.9980269900000001], "properties": {"magmom": -0.0}, "label": "V", "xyz": [1.451221242942136, 4.388261023460401, -0.12357800397204599]}, {"species": [{"element": "V", "occu": 1}], "abc": [0.26852221, 0.26654819, 0.49802799000000003], "properties": {"magmom": -0.0}, "label": "V", "xyz": [1.4512124371474044, 1.462762480281532, 0.1235813068212328]}, {"species": [{"element": "V", "occu": 1}], "abc": [0.26654819, 0.26852221, 0.9980269900000001], "properties": {"magmom": -0.0}, "label": "V", "xyz": [2.9255161547683324, 2.9139661116342044, -1.5445210069674673]}, {"species": [{"element": "V", "occu": 1}], "abc": [0.7704922200000001, 0.26852221, 0.50197301], "properties": {"magmom": -0.0}, "label": "V", "xyz": [8.77653959996394e-06, 2.9370485570578646, 1.791683653972046]}, {"species": [{"element": "V", "occu": 1}], "abc": [0.26852221, 0.7704922200000001, 0.00197201], "properties": {"magmom": -0.0}, "label": "V", "xyz": [1.4742890315446644, -1.4627507489736002, 3.459792640183346]}, {"species": [{"element": "H", "occu": 1}], "abc": [0.0, 0.5, 0.0], "properties": {"magmom": 0.0}, "label": "H", "xyz": [1.4627566, -1.4627566, 1.66810565]}, {"species": [{"element": "H", "occu": 1}], "abc": [0.5, -0.0, 0.5], "properties": {"magmom": 0.0}, "label": "H", "xyz": [0.0, 2.9255132, 0.0]}, {"species": [{"element": "H", "occu": 1}], "abc": [0.0, -0.0, 0.0], "properties": {"magmom": 0.0}, "label": "H", "xyz": [0.0, 0.0, 0.0]}, {"species": [{"element": "H", "occu": 1}], "abc": [0.0, -0.0, 0.5], "properties": {"magmom": 0.0}, "label": "H", "xyz": [1.4627566, 1.4627566, -1.66810565]}]}, "task_ids": null, "uncorrected_energy_per_atom": null, "energy_per_atom": -10.715402276666666, "formation_energy_per_atom": -0.170647656249999, "energy_above_hull": 0.0, "is_stable": true, "equilibrium_reaction_energy_per_atom": null, "decomposes_to": null, "xas": null, "grain_boundaries": null, "band_gap": 0.0, "cbm": null, "vbm": null, "efermi": 6.05363014, "is_gap_direct": null, "is_metal": null, "es_source_calc_id": null, "bandstructure": null, "dos": null, "dos_energy_up": null, "dos_energy_down": null, "is_magnetic": null, "ordering": null, "total_magnetization": 2e-07, "total_magnetization_normalized_vol": null, "total_magnetization_normalized_formula_units": null, "num_magnetic_sites": null, "num_unique_magnetic_sites": null, "types_of_magnetic_species": null, "bulk_modulus": null, "shear_modulus": null, "universal_anisotropy": null, "homogeneous_poisson": null, "e_total": null, "e_ionic": null, "e_electronic": null, "n": null, "e_ij_max": null, "weighted_surface_energy_EV_PER_ANG2": null, "weighted_surface_energy": null, "weighted_work_function": null, "surface_anisotropy": null, "shape_factor": null, "has_reconstructed": null, "possible_species": null, "has_props": null, "theoretical": null, "database_IDs": null, "fields_not_requested": ["builder_meta", "nsites", "elements", "nelements", "composition", "composition_reduced", "chemsys", "symmetry", "property_name", "deprecated", "deprecation_reasons", "last_updated", "origins", "warnings", "task_ids", "uncorrected_energy_per_atom", "equilibrium_reaction_energy_per_atom", "decomposes_to", "xas", "grain_boundaries", "cbm", "vbm", "is_gap_direct", "is_metal", "es_source_calc_id", "bandstructure", "dos", "dos_energy_up", "dos_energy_down", "is_magnetic", "ordering", "total_magnetization_normalized_vol", "total_magnetization_normalized_formula_units", "num_magnetic_sites", "num_unique_magnetic_sites", "types_of_magnetic_species", "bulk_modulus", "shear_modulus", "universal_anisotropy", "homogeneous_poisson", "e_total", "e_ionic", "e_electronic", "n", "e_ij_max", "weighted_surface_energy_EV_PER_ANG2", "weighted_surface_energy", "weighted_work_function", "surface_anisotropy", "shape_factor", "has_reconstructed", "possible_species", "has_props", "theoretical", "database_IDs"]}