{"builder_meta": null, "nsites": null, "elements": null, "nelements": null, "composition": null, "composition_reduced": null, "formula_pretty": "V2N", "formula_anonymous": "AB2", "chemsys": null, "volume": 93.62672157795123, "density": 6.16616830184534, "density_atomic": 10.402969064216803, "symmetry": null, "property_name": null, "material_id": "mp-33090", "deprecated": null, "deprecation_reasons": null, "last_updated": null, "origins": null, "warnings": null, "structure": {"@module": "pymatgen.core.structure", "@class": "Structure", "charge": 0, "lattice": {"matrix": [[4.88721855, 0.0, 0.0], [-2.44360928, 4.23245664, -0.0], [0.0, -0.0, 4.52632296]], "pbc": [true, true, true], "a": 4.88721855, "b": 4.887219610656166, "c": 4.52632296, "alpha": 90.0, "beta": 90.0, "gamma": 119.99999288850763, "volume": 93.62672157795123}, "properties": {}, "sites": [{"species": [{"element": "V", "occu": 1}], "abc": [0.66220112, -0.0, 0.7554112900000001], "properties": {"magmom": 0.0}, "label": "V", "xyz": [3.236321597494776, 0.0, 3.4192354661702185]}, {"species": [{"element": "V", "occu": 1}], "abc": [0.66220112, 0.66220112, 0.24458871000000001], "properties": {"magmom": 0.0}, "label": "V", "xyz": [1.6181607954363826, 2.8027375273594366, 1.1070874938297817]}, {"species": [{"element": "V", "occu": 1}], "abc": [0.0, 0.33779888, 0.24458871000000001], "properties": {"magmom": 0.0}, "label": "V", "xyz": [-0.8254484779416065, 1.4297191126405633, 1.1070874938297817]}, {"species": [{"element": "V", "occu": 1}], "abc": [-0.0, 0.66220112, 0.7554112900000001], "properties": {"magmom": 0.0}, "label": "V", "xyz": [-1.6181608020583935, 2.8027375273594366, 3.4192354661702185]}, {"species": [{"element": "V", "occu": 1}], "abc": [0.33779888, 0.33779888, 0.7554112900000001], "properties": {"magmom": 0.0}, "label": "V", "xyz": [0.8254484745636177, 1.4297191126405633, 3.4192354661702185]}, {"species": [{"element": "V", "occu": 1}], "abc": [0.33779888, -0.0, 0.24458871000000001], "properties": {"magmom": 0.0}, "label": "V", "xyz": [1.6508969525052242, 0.0, 1.1070874938297817]}, {"species": [{"element": "N", "occu": 1}], "abc": [-0.0, -0.0, 0.0], "properties": {"magmom": 0.0}, "label": "N", "xyz": [0.0, 0.0, 0.0]}, {"species": [{"element": "N", "occu": 1}], "abc": [0.333333, 0.666667, 0.5], "properties": {"magmom": -0.0}, "label": "N", "xyz": [-2.44694260986833e-06, 2.8216391708188797, 2.26316148]}, {"species": [{"element": "N", "occu": 1}], "abc": [0.666667, 0.333333, 0.5], "properties": {"magmom": -0.0}, "label": "N", "xyz": [2.44361171694261, 1.41081746918112, 2.26316148]}]}, "task_ids": null, "uncorrected_energy_per_atom": null, "energy_per_atom": -13.518935594444445, "formation_energy_per_atom": -1.082968217361111, "energy_above_hull": 0.0, "is_stable": true, "equilibrium_reaction_energy_per_atom": null, "decomposes_to": null, "xas": null, "grain_boundaries": null, "band_gap": 0.0, "cbm": null, "vbm": null, "efermi": 7.35190128, "is_gap_direct": null, "is_metal": null, "es_source_calc_id": null, "bandstructure": null, "dos": null, "dos_energy_up": null, "dos_energy_down": null, "is_magnetic": null, "ordering": null, "total_magnetization": 0.0, "total_magnetization_normalized_vol": null, "total_magnetization_normalized_formula_units": null, "num_magnetic_sites": null, "num_unique_magnetic_sites": null, "types_of_magnetic_species": null, "bulk_modulus": null, "shear_modulus": null, "universal_anisotropy": null, "homogeneous_poisson": null, "e_total": null, "e_ionic": null, "e_electronic": null, "n": null, "e_ij_max": null, "weighted_surface_energy_EV_PER_ANG2": null, "weighted_surface_energy": null, "weighted_work_function": null, "surface_anisotropy": null, "shape_factor": null, "has_reconstructed": null, "possible_species": null, "has_props": null, "theoretical": null, "database_IDs": null, "fields_not_requested": ["builder_meta", "nsites", "elements", "nelements", "composition", "composition_reduced", "chemsys", "symmetry", "property_name", "deprecated", "deprecation_reasons", "last_updated", "origins", "warnings", "task_ids", "uncorrected_energy_per_atom", "equilibrium_reaction_energy_per_atom", "decomposes_to", "xas", "grain_boundaries", "cbm", "vbm", "is_gap_direct", "is_metal", "es_source_calc_id", "bandstructure", "dos", "dos_energy_up", "dos_energy_down", "is_magnetic", "ordering", "total_magnetization_normalized_vol", "total_magnetization_normalized_formula_units", "num_magnetic_sites", "num_unique_magnetic_sites", "types_of_magnetic_species", "bulk_modulus", "shear_modulus", "universal_anisotropy", "homogeneous_poisson", "e_total", "e_ionic", "e_electronic", "n", "e_ij_max", "weighted_surface_energy_EV_PER_ANG2", "weighted_surface_energy", "weighted_work_function", "surface_anisotropy", "shape_factor", "has_reconstructed", "possible_species", "has_props", "theoretical", "database_IDs"]}