{
  "builder_meta": null,
  "nsites": null,
  "elements": null,
  "nelements": null,
  "composition": null,
  "composition_reduced": null,
  "formula_pretty": "V2N3",
  "formula_anonymous": "A2B3",
  "chemsys": null,
  "volume": 43.03172863294846,
  "density": 5.5530355611111215,
  "density_atomic": 8.60634572658969,
  "symmetry": null,
  "property_name": null,
  "material_id": "mp-1069841",
  "deprecated": null,
  "deprecation_reasons": null,
  "last_updated": null,
  "origins": null,
  "warnings": null,
  "structure": {
    "@module": "pymatgen.core.structure",
    "@class": "Structure",
    "charge": 0,
    "lattice": {
      "matrix": [
        [1.409009, -2.440475, 0.0],
        [1.409009, 2.440475, 0.0],
        [0.0, 0.0, 6.257065]
      ],
      "pbc": [true, true, true],
      "a": 2.8180178473008297,
      "b": 2.8180178473008297,
      "c": 6.257065,
      "alpha": 90.0,
      "beta": 90.0,
      "gamma": 119.99999641503481,
      "volume": 43.03172863294846
    },
    "properties": {},
    "sites": [
      {
        "species": [{ "element": "V", "occu": 1 }],
        "abc": [0.666667, 0.333333, 0.301629],
        "properties": { "magmom": 0.001 },
        "label": "V",
        "xyz": [1.409009, -0.8134932936500001, 1.8873122588849998]
      },
      {
        "species": [{ "element": "V", "occu": 1 }],
        "abc": [0.333333, 0.666667, 0.698371],
        "properties": { "magmom": 0.001 },
        "label": "V",
        "xyz": [1.409009, 0.8134932936500001, 4.369752741115]
      },
      {
        "species": [{ "element": "N", "occu": 1 }],
        "abc": [0.0, 0.0, 0.5],
        "properties": { "magmom": -0.0 },
        "label": "N",
        "xyz": [0.0, 0.0, 3.1285325]
      },
      {
        "species": [{ "element": "N", "occu": 1 }],
        "abc": [0.0, 0.0, 0.106941],
        "properties": { "magmom": -0.0 },
        "label": "N",
        "xyz": [0.0, 0.0, 0.669136788165]
      },
      {
        "species": [{ "element": "N", "occu": 1 }],
        "abc": [0.0, 0.0, 0.893058999999999],
        "properties": { "magmom": -0.0 },
        "label": "N",
        "xyz": [0.0, 0.0, 5.587928211834994]
      }
    ]
  },
  "task_ids": null,
  "uncorrected_energy_per_atom": null,
  "energy_per_atom": -12.099090219249998,
  "formation_energy_per_atom": -0.9860095244999991,
  "energy_above_hull": 0.096012811000001,
  "is_stable": false,
  "equilibrium_reaction_energy_per_atom": null,
  "decomposes_to": null,
  "xas": null,
  "grain_boundaries": null,
  "band_gap": 0.0,
  "cbm": null,
  "vbm": null,
  "efermi": 7.6600144,
  "is_gap_direct": null,
  "is_metal": null,
  "es_source_calc_id": null,
  "bandstructure": null,
  "dos": null,
  "dos_energy_up": null,
  "dos_energy_down": null,
  "is_magnetic": null,
  "ordering": null,
  "total_magnetization": 0.002881,
  "total_magnetization_normalized_vol": null,
  "total_magnetization_normalized_formula_units": null,
  "num_magnetic_sites": null,
  "num_unique_magnetic_sites": null,
  "types_of_magnetic_species": null,
  "bulk_modulus": null,
  "shear_modulus": null,
  "universal_anisotropy": null,
  "homogeneous_poisson": null,
  "e_total": null,
  "e_ionic": null,
  "e_electronic": null,
  "n": null,
  "e_ij_max": null,
  "weighted_surface_energy_EV_PER_ANG2": null,
  "weighted_surface_energy": null,
  "weighted_work_function": null,
  "surface_anisotropy": null,
  "shape_factor": null,
  "has_reconstructed": null,
  "possible_species": null,
  "has_props": null,
  "theoretical": null,
  "database_IDs": null,
  "fields_not_requested": [
    "builder_meta",
    "nsites",
    "elements",
    "nelements",
    "composition",
    "composition_reduced",
    "chemsys",
    "symmetry",
    "property_name",
    "deprecated",
    "deprecation_reasons",
    "last_updated",
    "origins",
    "warnings",
    "task_ids",
    "uncorrected_energy_per_atom",
    "equilibrium_reaction_energy_per_atom",
    "decomposes_to",
    "xas",
    "grain_boundaries",
    "cbm",
    "vbm",
    "is_gap_direct",
    "is_metal",
    "es_source_calc_id",
    "bandstructure",
    "dos",
    "dos_energy_up",
    "dos_energy_down",
    "is_magnetic",
    "ordering",
    "total_magnetization_normalized_vol",
    "total_magnetization_normalized_formula_units",
    "num_magnetic_sites",
    "num_unique_magnetic_sites",
    "types_of_magnetic_species",
    "bulk_modulus",
    "shear_modulus",
    "universal_anisotropy",
    "homogeneous_poisson",
    "e_total",
    "e_ionic",
    "e_electronic",
    "n",
    "e_ij_max",
    "weighted_surface_energy_EV_PER_ANG2",
    "weighted_surface_energy",
    "weighted_work_function",
    "surface_anisotropy",
    "shape_factor",
    "has_reconstructed",
    "possible_species",
    "has_props",
    "theoretical",
    "database_IDs"
  ]
}
