{
  "builder_meta": null,
  "nsites": null,
  "elements": null,
  "nelements": null,
  "composition": null,
  "composition_reduced": null,
  "formula_pretty": "V2O3",
  "formula_anonymous": "A2B3",
  "chemsys": null,
  "volume": 438.79860992930867,
  "density": 4.537545604148263,
  "density_atomic": 10.969965248232716,
  "symmetry": null,
  "property_name": null,
  "material_id": "mp-21579",
  "deprecated": null,
  "deprecation_reasons": null,
  "last_updated": null,
  "origins": null,
  "warnings": null,
  "structure": {
    "@module": "pymatgen.core.structure",
    "@class": "Structure",
    "charge": 0,
    "lattice": {
      "matrix": [
        [-4.787055, 4.787055, 4.787055],
        [4.787055, -4.787055, 4.787055],
        [4.787055, 4.787055, -4.787055]
      ],
      "pbc": [true, true, true],
      "a": 8.29142247862663,
      "b": 8.29142247862663,
      "c": 8.29142247862663,
      "alpha": 109.47122063449069,
      "beta": 109.47122063449069,
      "gamma": 109.47122063449069,
      "volume": 438.79860992930867
    },
    "properties": {},
    "sites": [
      {
        "species": [{ "element": "V", "occu": 1 }],
        "abc": [0.718013999999999, 0.468014, 0.25],
        "properties": { "magmom": 1.92 },
        "label": "V",
        "xyz": [4.6629367034256575e-15, 2.393527499999995, 4.480817517539995]
      },
      {
        "species": [{ "element": "V", "occu": 1 }],
        "abc": [0.031986, 0.75, 0.781986],
        "properties": { "magmom": 1.924 },
        "label": "V",
        "xyz": [7.1805825, 0.3062374824599998, 4.440892098500626e-16]
      },
      {
        "species": [{ "element": "V", "occu": 1 }],
        "abc": [0.25, 0.21801399999999901, 0.968013999999999],
        "properties": { "magmom": 1.9180000000000001 },
        "label": "V",
        "xyz": [4.4808175175399905, 4.787055, -2.3935275000000003]
      },
      {
        "species": [{ "element": "V", "occu": 1 }],
        "abc": [0.25, 0.718013999999999, 0.468014],
        "properties": { "magmom": 1.919 },
        "label": "V",
        "xyz": [4.480817517539995, 4.884981308350689e-15, 2.3935274999999954]
      },
      {
        "species": [{ "element": "V", "occu": 1 }],
        "abc": [0.468014, 0.25, 0.718013999999999],
        "properties": { "magmom": 1.9260000000000002 },
        "label": "V",
        "xyz": [2.393527499999995, 4.480817517539995, 4.884981308350689e-15]
      },
      {
        "species": [{ "element": "V", "occu": 1 }],
        "abc": [0.781986, 0.031986, 0.75],
        "properties": { "magmom": 1.921 },
        "label": "V",
        "xyz": [4.440892098500626e-16, 7.1805825, 0.3062374824599998]
      },
      {
        "species": [{ "element": "V", "occu": 1 }],
        "abc": [0.531986, 0.75, 0.281986],
        "properties": { "magmom": 1.9260000000000002 },
        "label": "V",
        "xyz": [2.3935275000000003, 0.3062374824599996, 4.787055]
      },
      {
        "species": [{ "element": "V", "occu": 1 }],
        "abc": [0.75, 0.781986, 0.031986],
        "properties": { "magmom": 1.9180000000000001 },
        "label": "V",
        "xyz": [0.3062374824599997, 3.0531133177191805e-16, 7.180582499999999]
      },
      {
        "species": [{ "element": "V", "occu": 1 }],
        "abc": [0.281986, 0.531986, 0.75],
        "properties": { "magmom": 1.92 },
        "label": "V",
        "xyz": [4.787055, 2.3935275000000003, 0.3062374824599994]
      },
      {
        "species": [{ "element": "V", "occu": 1 }],
        "abc": [0.968013999999999, 0.25, 0.21801399999999901],
        "properties": { "magmom": 1.924 },
        "label": "V",
        "xyz": [-2.3935275000000003, 4.4808175175399905, 4.787055]
      },
      {
        "species": [{ "element": "V", "occu": 1 }],
        "abc": [0.75, 0.281986, 0.531986],
        "properties": { "magmom": 1.919 },
        "label": "V",
        "xyz": [0.3062374824599994, 4.787055, 2.3935275000000003]
      },
      {
        "species": [{ "element": "V", "occu": 1 }],
        "abc": [0.21801399999999901, 0.968013999999999, 0.25],
        "properties": { "magmom": 1.921 },
        "label": "V",
        "xyz": [4.787055, -2.3935275000000003, 4.4808175175399905]
      },
      {
        "species": [{ "element": "V", "occu": 1 }],
        "abc": [0.0, 0.0, 0.5],
        "properties": { "magmom": 1.9140000000000001 },
        "label": "V",
        "xyz": [2.3935275, 2.3935275, -2.3935275]
      },
      {
        "species": [{ "element": "V", "occu": 1 }],
        "abc": [0.5, 0.0, 0.0],
        "properties": { "magmom": 1.9140000000000001 },
        "label": "V",
        "xyz": [-2.3935275, 2.3935275, 2.3935275]
      },
      {
        "species": [{ "element": "V", "occu": 1 }],
        "abc": [0.5, 0.5, 0.5],
        "properties": { "magmom": 1.9140000000000001 },
        "label": "V",
        "xyz": [2.3935275, 2.3935275, 2.3935275]
      },
      {
        "species": [{ "element": "V", "occu": 1 }],
        "abc": [0.0, 0.5, 0.0],
        "properties": { "magmom": 1.913 },
        "label": "V",
        "xyz": [2.3935275, -2.3935275, 2.3935275]
      },
      {
        "species": [{ "element": "O", "occu": 1 }],
        "abc": [0.228823, 0.45465000000000005, 0.463016],
        "properties": { "magmom": -0.021 },
        "label": "O",
        "xyz": [3.297529327365, 1.1354367883949994, 1.0553397841350005]
      },
      {
        "species": [{ "element": "O", "occu": 1 }],
        "abc": [0.734193, 0.225827, 0.271177],
        "properties": { "magmom": -0.02 },
        "label": "O",
        "xyz": [-1.1354367883949998, 3.7317152158649995, 3.2975293273649995]
      },
      {
        "species": [{ "element": "O", "occu": 1 }],
        "abc": [0.725827, 0.991633, 0.9546500000000001],
        "properties": { "magmom": -0.017 },
        "label": "O",
        "xyz": [5.842389997080001, 3.2975341144200003, 3.65161342455]
      },
      {
        "species": [{ "element": "O", "occu": 1 }],
        "abc": [0.536984, 0.771177, 0.54535],
        "properties": { "magmom": -0.017 },
        "label": "O",
        "xyz": [3.7317152158649995, 1.4895256726350001, 3.6516182116049998]
      },
      {
        "species": [{ "element": "O", "occu": 1 }],
        "abc": [0.463016, 0.228823, 0.45465000000000005],
        "properties": { "magmom": -0.017 },
        "label": "O",
        "xyz": [1.0553397841350005, 3.297529327365, 1.1354367883949994]
      },
      {
        "species": [{ "element": "O", "occu": 1 }],
        "abc": [0.771177, 0.54535, 0.536984],
        "properties": { "magmom": -0.021 },
        "label": "O",
        "xyz": [1.4895256726350001, 3.6516182116049998, 3.731715215864999]
      },
      {
        "species": [{ "element": "O", "occu": 1 }],
        "abc": [0.991633, 0.9546500000000001, 0.725827],
        "properties": { "magmom": -0.022 },
        "label": "O",
        "xyz": [3.2975341144200003, 3.651613424549999, 5.84238999708]
      },
      {
        "species": [{ "element": "O", "occu": 1 }],
        "abc": [0.225827, 0.271177, 0.734193],
        "properties": { "magmom": -0.017 },
        "label": "O",
        "xyz": [3.7317152158649995, 3.2975293273649995, -1.1354367883949998]
      },
      {
        "species": [{ "element": "O", "occu": 1 }],
        "abc": [0.765807, 0.036983999999999004, 0.491633],
        "properties": { "magmom": -0.02 },
        "label": "O",
        "xyz": [-1.1354415754500047, 5.842389997080005, 1.4895304596899952]
      },
      {
        "species": [{ "element": "O", "occu": 1 }],
        "abc": [0.04535, 0.274173, 0.008367],
        "properties": { "magmom": -0.018000000000000002 },
        "label": "O",
        "xyz": [1.13544157545, -1.05533499708, 1.48952088558]
      },
      {
        "species": [{ "element": "O", "occu": 1 }],
        "abc": [0.036983999999999004, 0.491633, 0.765807],
        "properties": { "magmom": -0.02 },
        "label": "O",
        "xyz": [5.842389997080005, 1.4895304596899952, -1.1354415754500047]
      },
      {
        "species": [{ "element": "O", "occu": 1 }],
        "abc": [0.491633, 0.765807, 0.036983999999999004],
        "properties": { "magmom": -0.022 },
        "label": "O",
        "xyz": [1.4895304596899952, -1.1354415754500047, 5.842389997080004]
      },
      {
        "species": [{ "element": "O", "occu": 1 }],
        "abc": [0.271177, 0.734193, 0.225827],
        "properties": { "magmom": -0.02 },
        "label": "O",
        "xyz": [3.2975293273649995, -1.1354367883949998, 3.7317152158649995]
      },
      {
        "species": [{ "element": "O", "occu": 1 }],
        "abc": [0.728823, 0.265807, 0.774173],
        "properties": { "magmom": -0.02 },
        "label": "O",
        "xyz": [1.4895256726350001, 5.922491788395, 1.055339784135]
      },
      {
        "species": [{ "element": "O", "occu": 1 }],
        "abc": [0.265807, 0.774173, 0.728823],
        "properties": { "magmom": -0.02 },
        "label": "O",
        "xyz": [5.922491788395, 1.055339784135, 1.4895256726350001]
      },
      {
        "species": [{ "element": "O", "occu": 1 }],
        "abc": [0.234192999999999, 0.963016, 0.508367],
        "properties": { "magmom": -0.02 },
        "label": "O",
        "xyz": [5.922496575450005, -1.055334997080005, 3.2975245403099955]
      },
      {
        "species": [{ "element": "O", "occu": 1 }],
        "abc": [0.774173, 0.728823, 0.265807],
        "properties": { "magmom": -0.017 },
        "label": "O",
        "xyz": [1.0553397841349998, 1.489525672635, 5.922491788395]
      },
      {
        "species": [{ "element": "O", "occu": 1 }],
        "abc": [0.274173, 0.008367, 0.04535],
        "properties": { "magmom": -0.017 },
        "label": "O",
        "xyz": [-1.05533499708, 1.48952088558, 1.13544157545]
      },
      {
        "species": [{ "element": "O", "occu": 1 }],
        "abc": [0.54535, 0.536984, 0.771177],
        "properties": { "magmom": -0.02 },
        "label": "O",
        "xyz": [3.6516182116049998, 3.7317152158649995, 1.4895256726350006]
      },
      {
        "species": [{ "element": "O", "occu": 1 }],
        "abc": [0.45465000000000005, 0.463016, 0.228823],
        "properties": { "magmom": -0.02 },
        "label": "O",
        "xyz": [1.1354367883949994, 1.0553397841350005, 3.297529327365]
      },
      {
        "species": [{ "element": "O", "occu": 1 }],
        "abc": [0.963016, 0.508367, 0.234192999999999],
        "properties": { "magmom": -0.02 },
        "label": "O",
        "xyz": [-1.055334997080005, 3.2975245403099955, 5.922496575450005]
      },
      {
        "species": [{ "element": "O", "occu": 1 }],
        "abc": [0.9546500000000001, 0.725827, 0.991633],
        "properties": { "magmom": -0.018000000000000002 },
        "label": "O",
        "xyz": [3.651613424549999, 5.842389997080001, 3.2975341144200003]
      },
      {
        "species": [{ "element": "O", "occu": 1 }],
        "abc": [0.508367, 0.234192999999999, 0.963016],
        "properties": { "magmom": -0.022 },
        "label": "O",
        "xyz": [3.2975245403099955, 5.922496575450005, -1.055334997080005]
      },
      {
        "species": [{ "element": "O", "occu": 1 }],
        "abc": [0.008367, 0.04535, 0.274173],
        "properties": { "magmom": -0.022 },
        "label": "O",
        "xyz": [1.48952088558, 1.13544157545, -1.0553349970800001]
      }
    ]
  },
  "task_ids": null,
  "uncorrected_energy_per_atom": null,
  "energy_per_atom": -9.136886724250001,
  "formation_energy_per_atom": -2.53454769325,
  "energy_above_hull": 0.0,
  "is_stable": true,
  "equilibrium_reaction_energy_per_atom": null,
  "decomposes_to": null,
  "xas": null,
  "grain_boundaries": null,
  "band_gap": 0.0,
  "cbm": null,
  "vbm": null,
  "efermi": 4.81285291,
  "is_gap_direct": null,
  "is_metal": null,
  "es_source_calc_id": null,
  "bandstructure": null,
  "dos": null,
  "dos_energy_up": null,
  "dos_energy_down": null,
  "is_magnetic": null,
  "ordering": null,
  "total_magnetization": 31.9970439,
  "total_magnetization_normalized_vol": null,
  "total_magnetization_normalized_formula_units": null,
  "num_magnetic_sites": null,
  "num_unique_magnetic_sites": null,
  "types_of_magnetic_species": null,
  "bulk_modulus": null,
  "shear_modulus": null,
  "universal_anisotropy": null,
  "homogeneous_poisson": null,
  "e_total": null,
  "e_ionic": null,
  "e_electronic": null,
  "n": null,
  "e_ij_max": null,
  "weighted_surface_energy_EV_PER_ANG2": null,
  "weighted_surface_energy": null,
  "weighted_work_function": null,
  "surface_anisotropy": null,
  "shape_factor": null,
  "has_reconstructed": null,
  "possible_species": null,
  "has_props": null,
  "theoretical": null,
  "database_IDs": null,
  "fields_not_requested": [
    "builder_meta",
    "nsites",
    "elements",
    "nelements",
    "composition",
    "composition_reduced",
    "chemsys",
    "symmetry",
    "property_name",
    "deprecated",
    "deprecation_reasons",
    "last_updated",
    "origins",
    "warnings",
    "task_ids",
    "uncorrected_energy_per_atom",
    "equilibrium_reaction_energy_per_atom",
    "decomposes_to",
    "xas",
    "grain_boundaries",
    "cbm",
    "vbm",
    "is_gap_direct",
    "is_metal",
    "es_source_calc_id",
    "bandstructure",
    "dos",
    "dos_energy_up",
    "dos_energy_down",
    "is_magnetic",
    "ordering",
    "total_magnetization_normalized_vol",
    "total_magnetization_normalized_formula_units",
    "num_magnetic_sites",
    "num_unique_magnetic_sites",
    "types_of_magnetic_species",
    "bulk_modulus",
    "shear_modulus",
    "universal_anisotropy",
    "homogeneous_poisson",
    "e_total",
    "e_ionic",
    "e_electronic",
    "n",
    "e_ij_max",
    "weighted_surface_energy_EV_PER_ANG2",
    "weighted_surface_energy",
    "weighted_work_function",
    "surface_anisotropy",
    "shape_factor",
    "has_reconstructed",
    "possible_species",
    "has_props",
    "theoretical",
    "database_IDs"
  ]
}
