{"builder_meta": null, "nsites": null, "elements": null, "nelements": null, "composition": null, "composition_reduced": null, "formula_pretty": "V2O5", "formula_anonymous": "A2B5", "chemsys": null, "volume": 175.71849611799263, "density": 3.437530505956599, "density_atomic": 12.551321151285189, "symmetry": null, "property_name": null, "material_id": "mp-25279", "deprecated": null, "deprecation_reasons": null, "last_updated": null, "origins": null, "warnings": null, "structure": {"@module": "pymatgen.core.structure", "@class": "Structure", "charge": 0, "lattice": {"matrix": [[3.55174981, 0.0, 0.0], [0.0, 4.26335779, 0.0], [0.0, 0.0, 11.60441711]], "pbc": [true, true, true], "a": 3.55174981, "b": 4.26335779, "c": 11.60441711, "alpha": 90.0, "beta": 90.0, "gamma": 90.0, "volume": 175.71849611799263}, "properties": {}, "sites": [{"species": [{"element": "V", "occu": 1}], "abc": [0.0, 0.11141296, 0.14829965], "properties": {"magmom": 0.0}, "label": "V", "xyz": [0.0, 0.4749933109229584, 1.7209309958670116]}, {"species": [{"element": "V", "occu": 1}], "abc": [0.5, 0.88858704, 0.35170035], "properties": {"magmom": 0.0}, "label": "V", "xyz": [1.775874905, 3.788364479077041, 4.081277559132989]}, {"species": [{"element": "V", "occu": 1}], "abc": [0.5, 0.88858704, 0.64829965], "properties": {"magmom": 0.0}, "label": "V", "xyz": [1.775874905, 3.788364479077041, 7.523139550867011]}, {"species": [{"element": "V", "occu": 1}], "abc": [0.0, 0.11141296, 0.85170035], "properties": {"magmom": 0.0}, "label": "V", "xyz": [0.0, 0.4749933109229584, 9.883486114132989]}, {"species": [{"element": "O", "occu": 1}], "abc": [-0.0, 0.0063570300000000005, -0.0], "properties": {"magmom": 0.0}, "label": "O", "xyz": [0.0, 0.0271022933717637, 0.0]}, {"species": [{"element": "O", "occu": 1}], "abc": [0.0, 0.48600228, 0.146683999999999], "properties": {"magmom": -0.0}, "label": "O", "xyz": [0.0, 2.072001606395761, 1.7021823193632286]}, {"species": [{"element": "O", "occu": 1}], "abc": [0.5, 0.00584244, 0.18189999], "properties": {"magmom": -0.0}, "label": "O", "xyz": [1.775874905, 0.024908412086607597, 2.110843356264829]}, {"species": [{"element": "O", "occu": 1}], "abc": [0.0, 0.99415756, 0.31810001], "properties": {"magmom": -0.0}, "label": "O", "xyz": [0.0, 4.238449377913392, 3.6913651987351708]}, {"species": [{"element": "O", "occu": 1}], "abc": [0.5, 0.51399772, 0.353315999999999], "properties": {"magmom": -0.0}, "label": "O", "xyz": [1.775874905, 2.191356183604239, 4.100026235636749]}, {"species": [{"element": "O", "occu": 1}], "abc": [0.5, 0.99364297, 0.5], "properties": {"magmom": 0.0}, "label": "O", "xyz": [1.775874905, 4.236255496628236, 5.802208555]}, {"species": [{"element": "O", "occu": 1}], "abc": [0.5, 0.51399772, 0.646683999999999], "properties": {"magmom": -0.0}, "label": "O", "xyz": [1.775874905, 2.191356183604239, 7.504390874363229]}, {"species": [{"element": "O", "occu": 1}], "abc": [0.0, 0.99415756, 0.68189999], "properties": {"magmom": -0.0}, "label": "O", "xyz": [0.0, 4.238449377913392, 7.913051911264829]}, {"species": [{"element": "O", "occu": 1}], "abc": [0.5, 0.00584244, 0.81810001], "properties": {"magmom": -0.0}, "label": "O", "xyz": [1.775874905, 0.024908412086607597, 9.493573753735172]}, {"species": [{"element": "O", "occu": 1}], "abc": [0.0, 0.48600228, 0.853316], "properties": {"magmom": -0.0}, "label": "O", "xyz": [0.0, 2.072001606395761, 9.90223479063676]}]}, "task_ids": null, "uncorrected_energy_per_atom": null, "energy_per_atom": -8.418681412142858, "formation_energy_per_atom": -2.2890218171428582, "energy_above_hull": 0.0, "is_stable": true, "equilibrium_reaction_energy_per_atom": null, "decomposes_to": null, "xas": null, "grain_boundaries": null, "band_gap": 2.161, "cbm": null, "vbm": null, "efermi": -0.53606004, "is_gap_direct": null, "is_metal": null, "es_source_calc_id": null, "bandstructure": null, "dos": null, "dos_energy_up": null, "dos_energy_down": null, "is_magnetic": null, "ordering": null, "total_magnetization": 0.0, "total_magnetization_normalized_vol": null, "total_magnetization_normalized_formula_units": null, "num_magnetic_sites": null, "num_unique_magnetic_sites": null, "types_of_magnetic_species": null, "bulk_modulus": null, "shear_modulus": null, "universal_anisotropy": null, "homogeneous_poisson": null, "e_total": null, "e_ionic": null, "e_electronic": null, "n": null, "e_ij_max": null, "weighted_surface_energy_EV_PER_ANG2": null, "weighted_surface_energy": null, "weighted_work_function": null, "surface_anisotropy": null, "shape_factor": null, "has_reconstructed": null, "possible_species": null, "has_props": null, "theoretical": null, "database_IDs": null, "fields_not_requested": ["builder_meta", "nsites", "elements", "nelements", "composition", "composition_reduced", "chemsys", "symmetry", "property_name", "deprecated", "deprecation_reasons", "last_updated", "origins", "warnings", "task_ids", "uncorrected_energy_per_atom", "equilibrium_reaction_energy_per_atom", "decomposes_to", "xas", "grain_boundaries", "cbm", "vbm", "is_gap_direct", "is_metal", "es_source_calc_id", "bandstructure", "dos", "dos_energy_up", "dos_energy_down", "is_magnetic", "ordering", "total_magnetization_normalized_vol", "total_magnetization_normalized_formula_units", "num_magnetic_sites", "num_unique_magnetic_sites", "types_of_magnetic_species", "bulk_modulus", "shear_modulus", "universal_anisotropy", "homogeneous_poisson", "e_total", "e_ionic", "e_electronic", "n", "e_ij_max", "weighted_surface_energy_EV_PER_ANG2", "weighted_surface_energy", "weighted_work_function", "surface_anisotropy", "shape_factor", "has_reconstructed", "possible_species", "has_props", "theoretical", "database_IDs"]}