{"builder_meta": null, "nsites": null, "elements": null, "nelements": null, "composition": null, "composition_reduced": null, "formula_pretty": "V2P", "formula_anonymous": "AB2", "chemsys": null, "volume": 150.90201324437245, "density": 5.8478701196839245, "density_atomic": 12.575167770364372, "symmetry": null, "property_name": null, "material_id": "mp-20541", "deprecated": null, "deprecation_reasons": null, "last_updated": null, "origins": null, "warnings": null, "structure": {"@module": "pymatgen.core.structure", "@class": "Structure", "charge": 0, "lattice": {"matrix": [[3.26233906, 0.0, 0.0], [0.0, 6.1426951, 0.0], [0.0, 0.0, 7.53020811]], "pbc": [true, true, true], "a": 3.26233906, "b": 6.1426951, "c": 7.53020811, "alpha": 90.0, "beta": 90.0, "gamma": 90.0, "volume": 150.90201324437245}, "properties": {}, "sites": [{"species": [{"element": "V", "occu": 1}], "abc": [0.75, 0.041490320000000004, 0.33347955], "properties": {"magmom": 0.0}, "label": "V", "xyz": [2.446754295, 0.254862385361432, 2.5111704119291507]}, {"species": [{"element": "V", "occu": 1}], "abc": [0.25, 0.95850968, 0.66652045], "properties": {"magmom": 0.0}, "label": "V", "xyz": [0.815584765, 5.887832714638568, 5.01903769807085]}, {"species": [{"element": "V", "occu": 1}], "abc": [0.75, 0.54149032, 0.16652045000000001], "properties": {"magmom": 0.0}, "label": "V", "xyz": [2.446754295, 3.326209935361432, 1.2539336430708496]}, {"species": [{"element": "V", "occu": 1}], "abc": [0.25, 0.45850968000000003, 0.8334795500000001], "properties": {"magmom": 0.0}, "label": "V", "xyz": [0.815584765, 2.8164851646385682, 6.276274466929151]}, {"species": [{"element": "V", "occu": 1}], "abc": [0.25, 0.36069303, 0.44171573000000003], "properties": {"magmom": 0.0}, "label": "V", "xyz": [0.815584765, 2.2156273079851534, 3.3262113723605706]}, {"species": [{"element": "V", "occu": 1}], "abc": [0.75, 0.63930697, 0.55828427], "properties": {"magmom": 0.0}, "label": "V", "xyz": [2.446754295, 3.927067792014847, 4.20399673763943]}, {"species": [{"element": "V", "occu": 1}], "abc": [0.25, 0.86069303, 0.05828427], "properties": {"magmom": 0.0}, "label": "V", "xyz": [0.815584765, 5.286974857985153, 0.4388926826394297]}, {"species": [{"element": "V", "occu": 1}], "abc": [0.75, 0.13930697, 0.94171573], "properties": {"magmom": 0.0}, "label": "V", "xyz": [2.446754295, 0.855720242014847, 7.091315427360571]}, {"species": [{"element": "P", "occu": 1}], "abc": [0.25, 0.74837073, 0.35748209000000003], "properties": {"magmom": -0.0}, "label": "P", "xyz": [0.815584765, 4.597013216154423, 2.69191453329775]}, {"species": [{"element": "P", "occu": 1}], "abc": [0.75, 0.25162927, 0.64251791], "properties": {"magmom": -0.0}, "label": "P", "xyz": [2.446754295, 1.545681883845577, 4.838293576702251]}, {"species": [{"element": "P", "occu": 1}], "abc": [0.25, 0.24837073, 0.14251791], "properties": {"magmom": -0.0}, "label": "P", "xyz": [0.815584765, 1.525665666154423, 1.07318952170225]}, {"species": [{"element": "P", "occu": 1}], "abc": [0.75, 0.75162927, 0.85748209], "properties": {"magmom": -0.0}, "label": "P", "xyz": [2.446754295, 4.617029433845577, 6.45701858829775]}]}, "task_ids": null, "uncorrected_energy_per_atom": null, "energy_per_atom": -13.240465776666667, "formation_energy_per_atom": -0.8467231859920641, "energy_above_hull": 0.0, "is_stable": true, "equilibrium_reaction_energy_per_atom": null, "decomposes_to": null, "xas": null, "grain_boundaries": null, "band_gap": 0.0, "cbm": null, "vbm": null, "efermi": 8.579567130000001, "is_gap_direct": null, "is_metal": null, "es_source_calc_id": null, "bandstructure": null, "dos": null, "dos_energy_up": null, "dos_energy_down": null, "is_magnetic": null, "ordering": null, "total_magnetization": 2.499999999999999e-06, "total_magnetization_normalized_vol": null, "total_magnetization_normalized_formula_units": null, "num_magnetic_sites": null, "num_unique_magnetic_sites": null, "types_of_magnetic_species": null, "bulk_modulus": null, "shear_modulus": null, "universal_anisotropy": null, "homogeneous_poisson": null, "e_total": null, "e_ionic": null, "e_electronic": null, "n": null, "e_ij_max": null, "weighted_surface_energy_EV_PER_ANG2": null, "weighted_surface_energy": null, "weighted_work_function": null, "surface_anisotropy": null, "shape_factor": null, "has_reconstructed": null, "possible_species": null, "has_props": null, "theoretical": null, "database_IDs": null, "fields_not_requested": ["builder_meta", "nsites", "elements", "nelements", "composition", "composition_reduced", "chemsys", "symmetry", "property_name", "deprecated", "deprecation_reasons", "last_updated", "origins", "warnings", "task_ids", "uncorrected_energy_per_atom", "equilibrium_reaction_energy_per_atom", "decomposes_to", "xas", "grain_boundaries", "cbm", "vbm", "is_gap_direct", "is_metal", "es_source_calc_id", "bandstructure", "dos", "dos_energy_up", "dos_energy_down", "is_magnetic", "ordering", "total_magnetization_normalized_vol", "total_magnetization_normalized_formula_units", "num_magnetic_sites", "num_unique_magnetic_sites", "types_of_magnetic_species", "bulk_modulus", "shear_modulus", "universal_anisotropy", "homogeneous_poisson", "e_total", "e_ionic", "e_electronic", "n", "e_ij_max", "weighted_surface_energy_EV_PER_ANG2", "weighted_surface_energy", "weighted_work_function", "surface_anisotropy", "shape_factor", "has_reconstructed", "possible_species", "has_props", "theoretical", "database_IDs"]}