{"builder_meta": null, "nsites": null, "elements": null, "nelements": null, "composition": null, "composition_reduced": null, "formula_pretty": "V3As2", "formula_anonymous": "A2B3", "chemsys": null, "volume": 302.3947779939323, "density": 6.64815104787363, "density_atomic": 15.119738899696614, "symmetry": null, "property_name": null, "material_id": "mp-540701", "deprecated": null, "deprecation_reasons": null, "last_updated": null, "origins": null, "warnings": null, "structure": {"@module": "pymatgen.core.structure", "@class": "Structure", "charge": 0, "lattice": {"matrix": [[3.3178132, 0.0, 0.0], [0.0, 9.54639321, 0.0010143700000000001], [0.0, -0.00040586, 9.54735422]], "pbc": [true, true, true], "a": 3.3178132, "b": 9.546393263891899, "c": 9.547354228626597, "alpha": 89.99634758442177, "beta": 90.0, "gamma": 90.0, "volume": 302.3947779939323}, "properties": {}, "sites": [{"species": [{"element": "V", "occu": 1}], "abc": [0.5, 0.1261381, 0.18555462], "properties": {"magmom": 1.395}, "label": "V", "xyz": [1.6589066, 1.2040885921642277, 1.7716836350019936]}, {"species": [{"element": "V", "occu": 1}], "abc": [0.5, 0.81443199, 0.12614961], "properties": {"magmom": 1.396}, "label": "V", "xyz": [1.6589066, 7.774836820262073, 1.2052211467625507]}, {"species": [{"element": "V", "occu": 1}], "abc": [0.5, 0.18556801, 0.87385039], "properties": {"magmom": 1.396}, "label": "V", "xyz": [1.6589066, 1.7711505297379266, 8.34314744323745]}, {"species": [{"element": "V", "occu": 1}], "abc": [0.5, 0.8738619, 0.81444538], "properties": {"magmom": 1.395}, "label": "V", "xyz": [1.6589066, 8.341898757835772, 7.776684954998007]}, {"species": [{"element": "V", "occu": 1}], "abc": [-0.0, 0.397864599999999, 0.28940821], "properties": {"magmom": -1.441}, "label": "V", "xyz": [0.0, 3.798054456723246, 2.7634862769604482]}, {"species": [{"element": "V", "occu": 1}], "abc": [0.0, 0.71058222, 0.39787398], "properties": {"magmom": -1.441}, "label": "V", "xyz": [0.0, 6.783335799021204, 3.7993646152676974]}, {"species": [{"element": "V", "occu": 1}], "abc": [-0.0, 0.28941778, 0.60212602], "properties": {"magmom": -1.441}, "label": "V", "xyz": [0.0, 2.7626515509787968, 5.749003974732304]}, {"species": [{"element": "V", "occu": 1}], "abc": [0.0, 0.6021354, 0.7105917900000001], "properties": {"magmom": -1.441}, "label": "V", "xyz": [0.0, 5.747932893276745, 6.784882313039553]}, {"species": [{"element": "V", "occu": 1}], "abc": [0.5, -0.0, 0.5], "properties": {"magmom": 1.964999999999999}, "label": "V", "xyz": [1.6589066, -0.00020293, 4.77367711]}, {"species": [{"element": "V", "occu": 1}], "abc": [0.5, 0.5, 0.0], "properties": {"magmom": 1.966}, "label": "V", "xyz": [1.6589066, 4.773196605, 0.0005071850000000001]}, {"species": [{"element": "V", "occu": 1}], "abc": [0.5, 0.5, 0.5], "properties": {"magmom": 1.292}, "label": "V", "xyz": [1.6589066, 4.7729936749999995, 4.774184295]}, {"species": [{"element": "V", "occu": 1}], "abc": [0.0, -0.0, 0.0], "properties": {"magmom": -1.25}, "label": "V", "xyz": [0.0, 0.0, 0.0]}, {"species": [{"element": "As", "occu": 1}], "abc": [0.5, 0.24518154, 0.41240467000000003], "properties": {"magmom": 0.027}, "label": "As", "xyz": [1.6589066, 2.340432010113977, 3.9376221712709376]}, {"species": [{"element": "As", "occu": 1}], "abc": [0.5, 0.58759357, 0.2452346], "properties": {"magmom": 0.027}, "label": "As", "xyz": [1.6589066, 5.609299735972903, 2.341937630489613]}, {"species": [{"element": "As", "occu": 1}], "abc": [0.5, 0.41240643, 0.754765399999999], "properties": {"magmom": 0.027}, "label": "As", "xyz": [1.6589066, 3.936687614027096, 7.206430959510379]}, {"species": [{"element": "As", "occu": 1}], "abc": [0.5, 0.75481846, 0.58759533], "properties": {"magmom": 0.027}, "label": "As", "xyz": [1.6589066, 7.205555339886023, 5.610746418729063]}, {"species": [{"element": "As", "occu": 1}], "abc": [-0.0, 0.28292174000000003, 0.04827401], "properties": {"magmom": -0.065}, "label": "As", "xyz": [0.0, 2.700862585207687, 0.461176060415226]}, {"species": [{"element": "As", "occu": 1}], "abc": [0.0, 0.9517431, 0.28291821], "properties": {"magmom": -0.065}, "label": "As", "xyz": [0.0, 9.085599042319641, 2.7020857858066933]}, {"species": [{"element": "As", "occu": 1}], "abc": [0.0, 0.0482569, 0.71708179], "properties": {"magmom": -0.065}, "label": "As", "xyz": [0.0, 0.46038830768035954, 6.846282804193308]}, {"species": [{"element": "As", "occu": 1}], "abc": [-0.0, 0.71707826, 0.95172599], "properties": {"magmom": -0.065}, "label": "As", "xyz": [0.0, 6.845124764792312, 9.087192529584774]}]}, "task_ids": null, "uncorrected_energy_per_atom": null, "energy_per_atom": -14.942024533, "formation_energy_per_atom": -0.605266699999998, "energy_above_hull": 0.0, "is_stable": true, "equilibrium_reaction_energy_per_atom": null, "decomposes_to": null, "xas": null, "grain_boundaries": null, "band_gap": 0.0, "cbm": null, "vbm": null, "efermi": 7.13534718, "is_gap_direct": null, "is_metal": null, "es_source_calc_id": null, "bandstructure": null, "dos": null, "dos_energy_up": null, "dos_energy_down": null, "is_magnetic": null, "ordering": null, "total_magnetization": 4.0503795, "total_magnetization_normalized_vol": null, "total_magnetization_normalized_formula_units": null, "num_magnetic_sites": null, "num_unique_magnetic_sites": null, "types_of_magnetic_species": null, "bulk_modulus": null, "shear_modulus": null, "universal_anisotropy": null, "homogeneous_poisson": null, "e_total": null, "e_ionic": null, "e_electronic": null, "n": null, "e_ij_max": null, "weighted_surface_energy_EV_PER_ANG2": null, "weighted_surface_energy": null, "weighted_work_function": null, "surface_anisotropy": null, "shape_factor": null, "has_reconstructed": null, "possible_species": null, "has_props": null, "theoretical": null, "database_IDs": null, "fields_not_requested": ["builder_meta", "nsites", "elements", "nelements", "composition", "composition_reduced", "chemsys", "symmetry", "property_name", "deprecated", "deprecation_reasons", "last_updated", "origins", "warnings", "task_ids", "uncorrected_energy_per_atom", "equilibrium_reaction_energy_per_atom", "decomposes_to", "xas", "grain_boundaries", "cbm", "vbm", "is_gap_direct", "is_metal", "es_source_calc_id", "bandstructure", "dos", "dos_energy_up", "dos_energy_down", "is_magnetic", "ordering", "total_magnetization_normalized_vol", "total_magnetization_normalized_formula_units", "num_magnetic_sites", "num_unique_magnetic_sites", "types_of_magnetic_species", "bulk_modulus", "shear_modulus", "universal_anisotropy", "homogeneous_poisson", "e_total", "e_ionic", "e_electronic", "n", "e_ij_max", "weighted_surface_energy_EV_PER_ANG2", "weighted_surface_energy", "weighted_work_function", "surface_anisotropy", "shape_factor", "has_reconstructed", "possible_species", "has_props", "theoretical", "database_IDs"]}