{"builder_meta": null, "nsites": null, "elements": null, "nelements": null, "composition": null, "composition_reduced": null, "formula_pretty": "V3Au", "formula_anonymous": "AB3", "chemsys": null, "volume": 114.30945360774247, "density": 10.162619396562913, "density_atomic": 14.288681700967809, "symmetry": null, "property_name": null, "material_id": "mp-839", "deprecated": null, "deprecation_reasons": null, "last_updated": null, "origins": null, "warnings": null, "structure": {"@module": "pymatgen.core.structure", "@class": "Structure", "charge": 0, "lattice": {"matrix": [[4.85320954, -4e-08, -1e-08], [-4e-08, 4.85317936, 1.1e-07], [-1e-08, 1.1e-07, 4.85318408]], "pbc": [true, true, true], "a": 4.85320954, "b": 4.853179360000001, "c": 4.853184080000001, "alpha": 89.99999740272007, "beta": 90.00000023611564, "gamma": 90.00000094446294, "volume": 114.30945360774247}, "properties": {}, "sites": [{"species": [{"element": "V", "occu": 1}], "abc": [0.4999999, 0.24999789, 1e-08], "properties": {"magmom": 0.5730000000000001}, "label": "V", "xyz": [2.4266042746791303, 1.2132845797915555, 7.10316097e-08]}, {"species": [{"element": "V", "occu": 1}], "abc": [0.49999992, 0.75000211, 1e-08], "properties": {"magmom": 0.5730000000000001}, "label": "V", "xyz": [2.4266043517431526, 3.6398947402084545, 1.2603207370000002e-07]}, {"species": [{"element": "V", "occu": 1}], "abc": [0.25000057, 2e-08, 0.5], "properties": {"magmom": 0.5730000000000001}, "label": "V", "xyz": [1.2133051463294369, 1.4206356440000003e-07, 2.4265920374999967]}, {"species": [{"element": "V", "occu": 1}], "abc": [0.74999944, 0.0, 0.49999998], "properties": {"magmom": 0.5730000000000001}, "label": "V", "xyz": [3.6399044322026572, 2.500002020000001e-08, 2.426591935436324]}, {"species": [{"element": "V", "occu": 1}], "abc": [1e-06, 0.49999999, 0.25000185], "properties": {"magmom": 0.5730000000000001}, "label": "V", "xyz": [4.830709521899999e-06, 2.42658965896837, 1.2133050533905372]}, {"species": [{"element": "V", "occu": 1}], "abc": [9.9e-07, 0.49999999, 0.74999815], "properties": {"magmom": 0.5730000000000001}, "label": "V", "xyz": [4.777177463499999e-06, 2.4265897139679633, 3.639879136609441]}, {"species": [{"element": "Au", "occu": 1}], "abc": [0.50000223, 0.49999999, 0.49999997], "properties": {"magmom": 0.076}, "label": "Au", "xyz": [2.4266155676572754, 2.426589666468114, 2.4265919444044544]}, {"species": [{"element": "Au", "occu": 1}], "abc": [-2.04e-06, 1e-08, 3.0000000000000004e-08], "properties": {"magmom": 0.076}, "label": "Au", "xyz": [-9.9005474623e-06, 4.853187850000001e-08, 1.4559554390000002e-07]}]}, "task_ids": null, "uncorrected_energy_per_atom": null, "energy_per_atom": -23.301828265, "formation_energy_per_atom": -0.088406430000002, "energy_above_hull": 0.0, "is_stable": true, "equilibrium_reaction_energy_per_atom": null, "decomposes_to": null, "xas": null, "grain_boundaries": null, "band_gap": 0.0, "cbm": null, "vbm": null, "efermi": 6.29267855, "is_gap_direct": null, "is_metal": null, "es_source_calc_id": null, "bandstructure": null, "dos": null, "dos_energy_up": null, "dos_energy_down": null, "is_magnetic": null, "ordering": null, "total_magnetization": 4.0672172, "total_magnetization_normalized_vol": null, "total_magnetization_normalized_formula_units": null, "num_magnetic_sites": null, "num_unique_magnetic_sites": null, "types_of_magnetic_species": null, "bulk_modulus": null, "shear_modulus": null, "universal_anisotropy": null, "homogeneous_poisson": null, "e_total": null, "e_ionic": null, "e_electronic": null, "n": null, "e_ij_max": null, "weighted_surface_energy_EV_PER_ANG2": null, "weighted_surface_energy": null, "weighted_work_function": null, "surface_anisotropy": null, "shape_factor": null, "has_reconstructed": null, "possible_species": null, "has_props": null, "theoretical": null, "database_IDs": null, "fields_not_requested": ["builder_meta", "nsites", "elements", "nelements", "composition", "composition_reduced", "chemsys", "symmetry", "property_name", "deprecated", "deprecation_reasons", "last_updated", "origins", "warnings", "task_ids", "uncorrected_energy_per_atom", "equilibrium_reaction_energy_per_atom", "decomposes_to", "xas", "grain_boundaries", "cbm", "vbm", "is_gap_direct", "is_metal", "es_source_calc_id", "bandstructure", "dos", "dos_energy_up", "dos_energy_down", "is_magnetic", "ordering", "total_magnetization_normalized_vol", "total_magnetization_normalized_formula_units", "num_magnetic_sites", "num_unique_magnetic_sites", "types_of_magnetic_species", "bulk_modulus", "shear_modulus", "universal_anisotropy", "homogeneous_poisson", "e_total", "e_ionic", "e_electronic", "n", "e_ij_max", "weighted_surface_energy_EV_PER_ANG2", "weighted_surface_energy", "weighted_work_function", "surface_anisotropy", "shape_factor", "has_reconstructed", "possible_species", "has_props", "theoretical", "database_IDs"]}