{"builder_meta": null, "nsites": null, "elements": null, "nelements": null, "composition": null, "composition_reduced": null, "formula_pretty": "V3B2", "formula_anonymous": "A2B3", "chemsys": null, "volume": 98.06714711337368, "density": 5.9076915523350255, "density_atomic": 9.806714711337367, "symmetry": null, "property_name": null, "material_id": "mp-2091", "deprecated": null, "deprecation_reasons": null, "last_updated": null, "origins": null, "warnings": null, "structure": {"@module": "pymatgen.core.structure", "@class": "Structure", "charge": 0, "lattice": {"matrix": [[3.01044776, -0.0, 0.0], [-0.0, 5.70750398, -0.0], [0.0, 0.0, 5.70750398]], "pbc": [true, true, true], "a": 3.01044776, "b": 5.70750398, "c": 5.70750398, "alpha": 90.0, "beta": 90.0, "gamma": 90.0, "volume": 98.06714711337368}, "properties": {}, "sites": [{"species": [{"element": "V", "occu": 1}], "abc": [-0.0, -0.0, -0.0], "properties": {"magmom": -0.0}, "label": "V", "xyz": [0.0, 0.0, 0.0]}, {"species": [{"element": "V", "occu": 1}], "abc": [-0.0, 0.5, 0.5], "properties": {"magmom": -0.0}, "label": "V", "xyz": [0.0, 2.85375199, 2.85375199]}, {"species": [{"element": "V", "occu": 1}], "abc": [0.5, 0.82161006, 0.32161006000000003], "properties": {"magmom": 0.0}, "label": "V", "xyz": [1.50522388, 4.689342687458039, 1.8355906974580392]}, {"species": [{"element": "V", "occu": 1}], "abc": [0.5, 0.67838994, 0.82161006], "properties": {"magmom": 0.0}, "label": "V", "xyz": [1.50522388, 3.871913282541961, 4.689342687458039]}, {"species": [{"element": "V", "occu": 1}], "abc": [0.5, 0.32161006000000003, 0.17838994], "properties": {"magmom": 0.0}, "label": "V", "xyz": [1.50522388, 1.8355906974580392, 1.0181612925419612]}, {"species": [{"element": "V", "occu": 1}], "abc": [0.5, 0.17838994, 0.67838994], "properties": {"magmom": 0.0}, "label": "V", "xyz": [1.50522388, 1.0181612925419612, 3.871913282541961]}, {"species": [{"element": "B", "occu": 1}], "abc": [0.0, 0.61056901, 0.11056901000000001], "properties": {"magmom": -0.0}, "label": "B", "xyz": [0.0, 3.4848250546396597, 0.6310730646396598]}, {"species": [{"element": "B", "occu": 1}], "abc": [-0.0, 0.88943099, 0.61056901], "properties": {"magmom": -0.0}, "label": "B", "xyz": [0.0, 5.076430915360341, 3.4848250546396597]}, {"species": [{"element": "B", "occu": 1}], "abc": [0.0, 0.11056901000000001, 0.38943099000000003], "properties": {"magmom": -0.0}, "label": "B", "xyz": [0.0, 0.6310730646396598, 2.2226789253603405]}, {"species": [{"element": "B", "occu": 1}], "abc": [-0.0, 0.38943099000000003, 0.88943099], "properties": {"magmom": -0.0}, "label": "B", "xyz": [0.0, 2.2226789253603405, 5.076430915360341]}]}, "task_ids": null, "uncorrected_energy_per_atom": null, "energy_per_atom": -12.1692751, "formation_energy_per_atom": -0.776987983, "energy_above_hull": 0.0, "is_stable": true, "equilibrium_reaction_energy_per_atom": null, "decomposes_to": null, "xas": null, "grain_boundaries": null, "band_gap": 0.0, "cbm": null, "vbm": null, "efermi": 6.98039375, "is_gap_direct": null, "is_metal": null, "es_source_calc_id": null, "bandstructure": null, "dos": null, "dos_energy_up": null, "dos_energy_down": null, "is_magnetic": null, "ordering": null, "total_magnetization": 0.0, "total_magnetization_normalized_vol": null, "total_magnetization_normalized_formula_units": null, "num_magnetic_sites": null, "num_unique_magnetic_sites": null, "types_of_magnetic_species": null, "bulk_modulus": null, "shear_modulus": null, "universal_anisotropy": null, "homogeneous_poisson": null, "e_total": null, "e_ionic": null, "e_electronic": null, "n": null, "e_ij_max": null, "weighted_surface_energy_EV_PER_ANG2": null, "weighted_surface_energy": null, "weighted_work_function": null, "surface_anisotropy": null, "shape_factor": null, "has_reconstructed": null, "possible_species": null, "has_props": null, "theoretical": null, "database_IDs": null, "fields_not_requested": ["builder_meta", "nsites", "elements", "nelements", "composition", "composition_reduced", "chemsys", "symmetry", "property_name", "deprecated", "deprecation_reasons", "last_updated", "origins", "warnings", "task_ids", "uncorrected_energy_per_atom", "equilibrium_reaction_energy_per_atom", "decomposes_to", "xas", "grain_boundaries", "cbm", "vbm", "is_gap_direct", "is_metal", "es_source_calc_id", "bandstructure", "dos", "dos_energy_up", "dos_energy_down", "is_magnetic", "ordering", "total_magnetization_normalized_vol", "total_magnetization_normalized_formula_units", "num_magnetic_sites", "num_unique_magnetic_sites", "types_of_magnetic_species", "bulk_modulus", "shear_modulus", "universal_anisotropy", "homogeneous_poisson", "e_total", "e_ionic", "e_electronic", "n", "e_ij_max", "weighted_surface_energy_EV_PER_ANG2", "weighted_surface_energy", "weighted_work_function", "surface_anisotropy", "shape_factor", "has_reconstructed", "possible_species", "has_props", "theoretical", "database_IDs"]}