{"builder_meta": null, "nsites": null, "elements": null, "nelements": null, "composition": null, "composition_reduced": null, "formula_pretty": "V3B4", "formula_anonymous": "A3B4", "chemsys": null, "volume": 59.24134319507657, "density": 5.49581401129879, "density_atomic": 8.463049027868081, "symmetry": null, "property_name": null, "material_id": "mp-569270", "deprecated": null, "deprecation_reasons": null, "last_updated": null, "origins": null, "warnings": null, "structure": {"@module": "pymatgen.core.structure", "@class": "Structure", "charge": 0, "lattice": {"matrix": [[2.90149182, 1.2170000000000002e-05, -0.640498599999999], [-0.1463373, 2.95185248, -0.6626865200000001], [0.00584985, -0.0012996400000000001, 6.9158718]], "pbc": [true, true, true], "a": 2.9713453582976483, "b": 3.028861352528892, "c": 6.915874396187686, "alpha": 102.65116057297291, "beta": 102.39982809809186, "gamma": 90.00070517807846, "volume": 59.24134319507657}, "properties": {}, "sites": [{"species": [{"element": "V", "occu": 1}], "abc": [0.5, -0.0, 0.0], "properties": {"magmom": -0.0}, "label": "V", "xyz": [1.45074591, 6.085000000000001e-06, -0.3202492999999995]}, {"species": [{"element": "V", "occu": 1}], "abc": [0.18769969, 0.18755858, 0.37538704], "properties": {"magmom": 0.0}, "label": "V", "xyz": [0.5193582568384457, 0.55315967581084, 2.3516147126796967]}, {"species": [{"element": "V", "occu": 1}], "abc": [0.81230031, 0.81244142, 0.62461296], "properties": {"magmom": 0.0}, "label": "V", "xyz": [2.241646113161554, 2.3974053341891595, 3.261071967320304]}, {"species": [{"element": "B", "occu": 1}], "abc": [0.6365588600000001, 0.63632906, 0.27327758], "properties": {"magmom": 0.0}, "label": "B", "xyz": [1.7554502815379505, 1.8780020983043237, 1.0605509601003773]}, {"species": [{"element": "B", "occu": 1}], "abc": [0.36344114, 0.36367094, 0.72672242], "properties": {"magmom": 0.0}, "label": "B", "xyz": [1.0055540884620497, 1.072562911695676, 4.552135719899623]}, {"species": [{"element": "B", "occu": 1}], "abc": [0.065589399999999, 0.56556426, 0.13109055], "properties": {"magmom": 0.0}, "label": "B", "xyz": [0.10831082084772461, 1.6692926911809607, 0.4898037078208754]}, {"species": [{"element": "B", "occu": 1}], "abc": [0.9344106, 0.43443574, 0.86890945], "properties": {"magmom": 0.0}, "label": "B", "xyz": [2.6526935491522727, 1.2812723188190394, 5.122882972179125]}]}, "task_ids": null, "uncorrected_energy_per_atom": null, "energy_per_atom": -11.09620527, "formation_energy_per_atom": -0.8598989871428571, "energy_above_hull": 0.0, "is_stable": true, "equilibrium_reaction_energy_per_atom": null, "decomposes_to": null, "xas": null, "grain_boundaries": null, "band_gap": 0.0, "cbm": null, "vbm": null, "efermi": 8.12667364, "is_gap_direct": null, "is_metal": null, "es_source_calc_id": null, "bandstructure": null, "dos": null, "dos_energy_up": null, "dos_energy_down": null, "is_magnetic": null, "ordering": null, "total_magnetization": 0.0, "total_magnetization_normalized_vol": null, "total_magnetization_normalized_formula_units": null, "num_magnetic_sites": null, "num_unique_magnetic_sites": null, "types_of_magnetic_species": null, "bulk_modulus": null, "shear_modulus": null, "universal_anisotropy": null, "homogeneous_poisson": null, "e_total": null, "e_ionic": null, "e_electronic": null, "n": null, "e_ij_max": null, "weighted_surface_energy_EV_PER_ANG2": null, "weighted_surface_energy": null, "weighted_work_function": null, "surface_anisotropy": null, "shape_factor": null, "has_reconstructed": null, "possible_species": null, "has_props": null, "theoretical": null, "database_IDs": null, "fields_not_requested": ["builder_meta", "nsites", "elements", "nelements", "composition", "composition_reduced", "chemsys", "symmetry", "property_name", "deprecated", "deprecation_reasons", "last_updated", "origins", "warnings", "task_ids", "uncorrected_energy_per_atom", "equilibrium_reaction_energy_per_atom", "decomposes_to", "xas", "grain_boundaries", "cbm", "vbm", "is_gap_direct", "is_metal", "es_source_calc_id", "bandstructure", "dos", "dos_energy_up", "dos_energy_down", "is_magnetic", "ordering", "total_magnetization_normalized_vol", "total_magnetization_normalized_formula_units", "num_magnetic_sites", "num_unique_magnetic_sites", "types_of_magnetic_species", "bulk_modulus", "shear_modulus", "universal_anisotropy", "homogeneous_poisson", "e_total", "e_ionic", "e_electronic", "n", "e_ij_max", "weighted_surface_energy_EV_PER_ANG2", "weighted_surface_energy", "weighted_work_function", "surface_anisotropy", "shape_factor", "has_reconstructed", "possible_species", "has_props", "theoretical", "database_IDs"]}