{
  "builder_meta": null,
  "nsites": null,
  "elements": null,
  "nelements": null,
  "composition": null,
  "composition_reduced": null,
  "formula_pretty": "V3Bi2",
  "formula_anonymous": "A2B3",
  "chemsys": null,
  "volume": 410.6732137193374,
  "density": 9.231780964791678,
  "density_atomic": 20.533660685966872,
  "symmetry": null,
  "property_name": null,
  "material_id": "mp-1120800",
  "deprecated": null,
  "deprecation_reasons": null,
  "last_updated": null,
  "origins": null,
  "warnings": null,
  "structure": {
    "@module": "pymatgen.core.structure",
    "@class": "Structure",
    "charge": 0,
    "lattice": {
      "matrix": [
        [10.112729, 0.0, 0.0],
        [0.0, 10.112729, 0.0],
        [0.0, 0.0, 4.015685]
      ],
      "pbc": [true, true, true],
      "a": 10.112729,
      "b": 10.112729,
      "c": 4.015685,
      "alpha": 90.0,
      "beta": 90.0,
      "gamma": 90.0,
      "volume": 410.6732137193374
    },
    "properties": {},
    "sites": [
      {
        "species": [{ "element": "V", "occu": 1 }],
        "abc": [0.151737999999999, 0.08232, 0.5],
        "properties": { "magmom": -0.121 },
        "label": "V",
        "xyz": [1.53448527300199, 0.83247985128, 2.0078425]
      },
      {
        "species": [{ "element": "V", "occu": 1 }],
        "abc": [0.08232, 0.848262, 0.5],
        "properties": { "magmom": -0.121 },
        "label": "V",
        "xyz": [0.83247985128, 8.578243726998, 2.0078425]
      },
      {
        "species": [{ "element": "V", "occu": 1 }],
        "abc": [0.91768, 0.151737999999999, 0.5],
        "properties": { "magmom": -0.121 },
        "label": "V",
        "xyz": [9.280249148720001, 1.53448527300199, 2.0078425]
      },
      {
        "species": [{ "element": "V", "occu": 1 }],
        "abc": [0.848262, 0.91768, 0.5],
        "properties": { "magmom": -0.121 },
        "label": "V",
        "xyz": [8.578243726998, 9.280249148720001, 2.0078425]
      },
      {
        "species": [{ "element": "V", "occu": 1 }],
        "abc": [0.335076999999999, 0.439641, 0.0],
        "properties": { "magmom": 0.264 },
        "label": "V",
        "xyz": [3.38854289513299, 4.445970290289, 0.0]
      },
      {
        "species": [{ "element": "V", "occu": 1 }],
        "abc": [0.439641, 0.664922999999999, 0.0],
        "properties": { "magmom": 0.264 },
        "label": "V",
        "xyz": [4.445970290289, 6.72418610486699, 0.0]
      },
      {
        "species": [{ "element": "V", "occu": 1 }],
        "abc": [0.560358999999999, 0.335076999999999, 0.0],
        "properties": { "magmom": 0.264 },
        "label": "V",
        "xyz": [5.66675870971099, 3.38854289513299, 0.0]
      },
      {
        "species": [{ "element": "V", "occu": 1 }],
        "abc": [0.664922999999999, 0.560358999999999, 0.0],
        "properties": { "magmom": 0.264 },
        "label": "V",
        "xyz": [6.72418610486699, 5.66675870971099, 0.0]
      },
      {
        "species": [{ "element": "V", "occu": 1 }],
        "abc": [0.5, 0.0, 0.5],
        "properties": { "magmom": -0.037 },
        "label": "V",
        "xyz": [5.0563645, 0.0, 2.0078425]
      },
      {
        "species": [{ "element": "V", "occu": 1 }],
        "abc": [0.0, 0.5, 0.5],
        "properties": { "magmom": -0.037 },
        "label": "V",
        "xyz": [0.0, 5.0563645, 2.0078425]
      },
      {
        "species": [{ "element": "V", "occu": 1 }],
        "abc": [0.5, 0.5, 0.5],
        "properties": { "magmom": -0.133 },
        "label": "V",
        "xyz": [5.0563645, 5.0563645, 2.0078425]
      },
      {
        "species": [{ "element": "V", "occu": 1 }],
        "abc": [0.0, 0.0, 0.0],
        "properties": { "magmom": -0.031 },
        "label": "V",
        "xyz": [0.0, 0.0, 0.0]
      },
      {
        "species": [{ "element": "Bi", "occu": 1 }],
        "abc": [0.381007999999999, 0.244926999999999, 0.5],
        "properties": { "magmom": -0.001 },
        "label": "Bi",
        "xyz": [3.85303065083199, 2.47688037578299, 2.0078425]
      },
      {
        "species": [{ "element": "Bi", "occu": 1 }],
        "abc": [0.244926999999999, 0.618992, 0.5],
        "properties": { "magmom": -0.001 },
        "label": "Bi",
        "xyz": [2.47688037578299, 6.259698349168, 2.0078425]
      },
      {
        "species": [{ "element": "Bi", "occu": 1 }],
        "abc": [0.755073, 0.381007999999999, 0.5],
        "properties": { "magmom": -0.001 },
        "label": "Bi",
        "xyz": [7.635848624217, 3.85303065083199, 2.0078425]
      },
      {
        "species": [{ "element": "Bi", "occu": 1 }],
        "abc": [0.618992, 0.755073, 0.5],
        "properties": { "magmom": -0.001 },
        "label": "Bi",
        "xyz": [6.259698349168, 7.635848624217, 2.0078425]
      },
      {
        "species": [{ "element": "Bi", "occu": 1 }],
        "abc": [0.077658999999999, 0.289354, 0.0],
        "properties": { "magmom": -0.005 },
        "label": "Bi",
        "xyz": [0.7853444214109899, 2.926158587066, 0.0]
      },
      {
        "species": [{ "element": "Bi", "occu": 1 }],
        "abc": [0.289354, 0.922341, 0.0],
        "properties": { "magmom": -0.005 },
        "label": "Bi",
        "xyz": [2.926158587066, 9.327384578589, 0.0]
      },
      {
        "species": [{ "element": "Bi", "occu": 1 }],
        "abc": [0.710646, 0.077658999999999, 0.0],
        "properties": { "magmom": -0.005 },
        "label": "Bi",
        "xyz": [7.186570412934, 0.7853444214109899, 0.0]
      },
      {
        "species": [{ "element": "Bi", "occu": 1 }],
        "abc": [0.922341, 0.710646, 0.0],
        "properties": { "magmom": -0.005 },
        "label": "Bi",
        "xyz": [9.327384578589, 7.186570412934, 0.0]
      }
    ]
  },
  "task_ids": null,
  "uncorrected_energy_per_atom": null,
  "energy_per_atom": -31.512362007500002,
  "formation_energy_per_atom": 0.34229292849999504,
  "energy_above_hull": 0.34229292850000004,
  "is_stable": false,
  "equilibrium_reaction_energy_per_atom": null,
  "decomposes_to": null,
  "xas": null,
  "grain_boundaries": null,
  "band_gap": 0.0,
  "cbm": null,
  "vbm": null,
  "efermi": 6.57763514,
  "is_gap_direct": null,
  "is_metal": null,
  "es_source_calc_id": null,
  "bandstructure": null,
  "dos": null,
  "dos_energy_up": null,
  "dos_energy_down": null,
  "is_magnetic": null,
  "ordering": null,
  "total_magnetization": 0.3487915,
  "total_magnetization_normalized_vol": null,
  "total_magnetization_normalized_formula_units": null,
  "num_magnetic_sites": null,
  "num_unique_magnetic_sites": null,
  "types_of_magnetic_species": null,
  "bulk_modulus": null,
  "shear_modulus": null,
  "universal_anisotropy": null,
  "homogeneous_poisson": null,
  "e_total": null,
  "e_ionic": null,
  "e_electronic": null,
  "n": null,
  "e_ij_max": null,
  "weighted_surface_energy_EV_PER_ANG2": null,
  "weighted_surface_energy": null,
  "weighted_work_function": null,
  "surface_anisotropy": null,
  "shape_factor": null,
  "has_reconstructed": null,
  "possible_species": null,
  "has_props": null,
  "theoretical": null,
  "database_IDs": null,
  "fields_not_requested": [
    "builder_meta",
    "nsites",
    "elements",
    "nelements",
    "composition",
    "composition_reduced",
    "chemsys",
    "symmetry",
    "property_name",
    "deprecated",
    "deprecation_reasons",
    "last_updated",
    "origins",
    "warnings",
    "task_ids",
    "uncorrected_energy_per_atom",
    "equilibrium_reaction_energy_per_atom",
    "decomposes_to",
    "xas",
    "grain_boundaries",
    "cbm",
    "vbm",
    "is_gap_direct",
    "is_metal",
    "es_source_calc_id",
    "bandstructure",
    "dos",
    "dos_energy_up",
    "dos_energy_down",
    "is_magnetic",
    "ordering",
    "total_magnetization_normalized_vol",
    "total_magnetization_normalized_formula_units",
    "num_magnetic_sites",
    "num_unique_magnetic_sites",
    "types_of_magnetic_species",
    "bulk_modulus",
    "shear_modulus",
    "universal_anisotropy",
    "homogeneous_poisson",
    "e_total",
    "e_ionic",
    "e_electronic",
    "n",
    "e_ij_max",
    "weighted_surface_energy_EV_PER_ANG2",
    "weighted_surface_energy",
    "weighted_work_function",
    "surface_anisotropy",
    "shape_factor",
    "has_reconstructed",
    "possible_species",
    "has_props",
    "theoretical",
    "database_IDs"
  ]
}
