{"builder_meta": null, "nsites": null, "elements": null, "nelements": null, "composition": null, "composition_reduced": null, "formula_pretty": "V3C2", "formula_anonymous": "A2B3", "chemsys": null, "volume": 208.46232818641116, "density": 5.634773980945674, "density_atomic": 10.423116409320558, "symmetry": null, "property_name": null, "material_id": "mp-1216509", "deprecated": null, "deprecation_reasons": null, "last_updated": null, "origins": null, "warnings": null, "structure": {"@module": "pymatgen.core.structure", "@class": "Structure", "charge": 0, "lattice": {"matrix": [[1.477601, -2.55928, 0.0], [1.477601, 2.55928, 0.0], [0.0, 0.0, 27.562753999999998]], "pbc": [true, true, true], "a": 2.9552019953974384, "b": 2.9552019953974384, "c": 27.562753999999998, "alpha": 90.0, "beta": 90.0, "gamma": 119.99999989696035, "volume": 208.46232818641113}, "properties": {}, "sites": [{"species": [{"element": "V", "occu": 1}], "abc": [0.333333, 0.666667, 0.041835], "properties": {"magmom": 0.003}, "label": "V", "xyz": [1.477601, 0.8530950395200002, 1.1530878135899998]}, {"species": [{"element": "V", "occu": 1}], "abc": [0.0, 0.0, 0.375674], "properties": {"magmom": -0.024}, "label": "V", "xyz": [0.0, 0.0, 10.354610046196]}, {"species": [{"element": "V", "occu": 1}], "abc": [0.666667, 0.333333, 0.709866], "properties": {"magmom": -0.013000000000000001}, "label": "V", "xyz": [1.477601, -0.8530950395200002, 19.565861930963997]}, {"species": [{"element": "V", "occu": 1}], "abc": [0.666667, 0.333333, 0.958164999999999], "properties": {"magmom": 0.003}, "label": "V", "xyz": [1.477601, -0.8530950395200002, 26.40966618640997]}, {"species": [{"element": "V", "occu": 1}], "abc": [0.333333, 0.666667, 0.290134], "properties": {"magmom": -0.013000000000000001}, "label": "V", "xyz": [1.477601, 0.8530950395200002, 7.996892069036]}, {"species": [{"element": "V", "occu": 1}], "abc": [0.0, 0.0, 0.624325999999999], "properties": {"magmom": -0.024}, "label": "V", "xyz": [0.0, 0.0, 17.208143953803972]}, {"species": [{"element": "V", "occu": 1}], "abc": [0.333333, 0.666667, 0.877112999999999], "properties": {"magmom": -0.005}, "label": "V", "xyz": [1.477601, 0.8530950395200002, 24.17564984920197]}, {"species": [{"element": "V", "occu": 1}], "abc": [0.0, 0.0, 0.207455], "properties": {"magmom": -0.005}, "label": "V", "xyz": [0.0, 0.0, 5.71803113107]}, {"species": [{"element": "V", "occu": 1}], "abc": [0.666667, 0.333333, 0.541938], "properties": {"magmom": -0.022}, "label": "V", "xyz": [1.477601, -0.8530950395200002, 14.937303777252]}, {"species": [{"element": "V", "occu": 1}], "abc": [0.666667, 0.333333, 0.122887], "properties": {"magmom": -0.005}, "label": "V", "xyz": [1.477601, -0.8530950395200002, 3.3871041507979998]}, {"species": [{"element": "V", "occu": 1}], "abc": [0.333333, 0.666667, 0.458061999999999], "properties": {"magmom": -0.022}, "label": "V", "xyz": [1.477601, 0.8530950395200002, 12.625450222747972]}, {"species": [{"element": "V", "occu": 1}], "abc": [0.0, 0.0, 0.7925449999999991], "properties": {"magmom": -0.005}, "label": "V", "xyz": [0.0, 0.0, 21.844722868929974]}, {"species": [{"element": "C", "occu": 1}], "abc": [0.666667, 0.333333, 0.332955], "properties": {"magmom": 0.002}, "label": "C", "xyz": [1.477601, -0.8530950395200002, 9.17715675807]}, {"species": [{"element": "C", "occu": 1}], "abc": [0.333333, 0.666667, 0.667045], "properties": {"magmom": 0.002}, "label": "C", "xyz": [1.477601, 0.8530950395200002, 18.38559724193]}, {"species": [{"element": "C", "occu": 1}], "abc": [0.0, 0.0, 0.082124], "properties": {"magmom": 0.0}, "label": "C", "xyz": [0.0, 0.0, 2.263563609496]}, {"species": [{"element": "C", "occu": 1}], "abc": [0.666667, 0.333333, 0.422361], "properties": {"magmom": 0.002}, "label": "C", "xyz": [1.477601, -0.8530950395200002, 11.641432342194]}, {"species": [{"element": "C", "occu": 1}], "abc": [0.333333, 0.666667, 0.756647], "properties": {"magmom": 0.001}, "label": "C", "xyz": [1.477601, 0.8530950395200002, 20.855275125838]}, {"species": [{"element": "C", "occu": 1}], "abc": [0.0, 0.0, 0.917875999999999], "properties": {"magmom": 0.0}, "label": "C", "xyz": [0.0, 0.0, 25.29919039050397]}, {"species": [{"element": "C", "occu": 1}], "abc": [0.666667, 0.333333, 0.24335299999999901], "properties": {"magmom": 0.001}, "label": "C", "xyz": [1.477601, -0.8530950395200002, 6.707478874161972]}, {"species": [{"element": "C", "occu": 1}], "abc": [0.333333, 0.666667, 0.577639], "properties": {"magmom": 0.002}, "label": "C", "xyz": [1.477601, 0.8530950395200002, 15.921321657805999]}]}, "task_ids": null, "uncorrected_energy_per_atom": null, "energy_per_atom": -9.5098711455, "formation_energy_per_atom": -0.3680613065, "energy_above_hull": 0.14251277270833201, "is_stable": false, "equilibrium_reaction_energy_per_atom": null, "decomposes_to": null, "xas": null, "grain_boundaries": null, "band_gap": 0.0, "cbm": null, "vbm": null, "efermi": 6.88963797, "is_gap_direct": null, "is_metal": null, "es_source_calc_id": null, "bandstructure": null, "dos": null, "dos_energy_up": null, "dos_energy_down": null, "is_magnetic": null, "ordering": null, "total_magnetization": 0.2502591, "total_magnetization_normalized_vol": null, "total_magnetization_normalized_formula_units": null, "num_magnetic_sites": null, "num_unique_magnetic_sites": null, "types_of_magnetic_species": null, "bulk_modulus": null, "shear_modulus": null, "universal_anisotropy": null, "homogeneous_poisson": null, "e_total": null, "e_ionic": null, "e_electronic": null, "n": null, "e_ij_max": null, "weighted_surface_energy_EV_PER_ANG2": null, "weighted_surface_energy": null, "weighted_work_function": null, "surface_anisotropy": null, "shape_factor": null, "has_reconstructed": null, "possible_species": null, "has_props": null, "theoretical": null, "database_IDs": null, "fields_not_requested": ["builder_meta", "nsites", "elements", "nelements", "composition", "composition_reduced", "chemsys", "symmetry", "property_name", "deprecated", "deprecation_reasons", "last_updated", "origins", "warnings", "task_ids", "uncorrected_energy_per_atom", "equilibrium_reaction_energy_per_atom", "decomposes_to", "xas", "grain_boundaries", "cbm", "vbm", "is_gap_direct", "is_metal", "es_source_calc_id", "bandstructure", "dos", "dos_energy_up", "dos_energy_down", "is_magnetic", "ordering", "total_magnetization_normalized_vol", "total_magnetization_normalized_formula_units", "num_magnetic_sites", "num_unique_magnetic_sites", "types_of_magnetic_species", "bulk_modulus", "shear_modulus", "universal_anisotropy", "homogeneous_poisson", "e_total", "e_ionic", "e_electronic", "n", "e_ij_max", "weighted_surface_energy_EV_PER_ANG2", "weighted_surface_energy", "weighted_work_function", "surface_anisotropy", "shape_factor", "has_reconstructed", "possible_species", "has_props", "theoretical", "database_IDs"]}