{"builder_meta": null, "nsites": null, "elements": null, "nelements": null, "composition": null, "composition_reduced": null, "formula_pretty": "V3Ga", "formula_anonymous": "AB3", "chemsys": null, "volume": 108.14305317215974, "density": 6.834443953341236, "density_atomic": 13.517881646519967, "symmetry": null, "property_name": null, "material_id": "mp-22568", "deprecated": null, "deprecation_reasons": null, "last_updated": null, "origins": null, "warnings": null, "structure": {"@module": "pymatgen.core.structure", "@class": "Structure", "charge": 0, "lattice": {"matrix": [[4.76423572, 0.0, 0.0], [0.0, 4.7643077, 0.0], [0.0, 0.0, 4.76437112]], "pbc": [true, true, true], "a": 4.76423572, "b": 4.7643077, "c": 4.76437112, "alpha": 90.0, "beta": 90.0, "gamma": 90.0, "volume": 108.14305317215974}, "properties": {}, "sites": [{"species": [{"element": "V", "occu": 1}], "abc": [0.50000049, 0.24998815, -0.0], "properties": {"magmom": 0.537}, "label": "V", "xyz": [2.382120194475503, 1.1910204679537548, 0.0]}, {"species": [{"element": "V", "occu": 1}], "abc": [0.50000049, 0.75001185, -0.0], "properties": {"magmom": 0.537}, "label": "V", "xyz": [2.382120194475503, 3.573287232046245, 0.0]}, {"species": [{"element": "V", "occu": 1}], "abc": [0.25000416000000003, 0.999999, 0.5], "properties": {"magmom": 0.535}, "label": "V", "xyz": [1.1910787492205954, 4.7643029356922995, 2.38218556]}, {"species": [{"element": "V", "occu": 1}], "abc": [0.74999623, 0.999999, 0.5], "properties": {"magmom": 0.535}, "label": "V", "xyz": [3.573158828831336, 4.7643029356922995, 2.38218556]}, {"species": [{"element": "V", "occu": 1}], "abc": [0.99999912, 0.500001, 0.25000394], "properties": {"magmom": 0.537}, "label": "V", "xyz": [4.764231527472567, 2.3821586143077003, 1.1911115516222126]}, {"species": [{"element": "V", "occu": 1}], "abc": [0.99999912, 0.500001, 0.74999606], "properties": {"magmom": 0.537}, "label": "V", "xyz": [4.764231527472567, 2.3821586143077003, 3.573259568377787]}, {"species": [{"element": "Ga", "occu": 1}], "abc": [0.49999872, 0.499998999999999, 0.5], "properties": {"magmom": -0.017}, "label": "Ga", "xyz": [2.3821117617782788, 2.382149085692295, 2.38218556]}, {"species": [{"element": "Ga", "occu": 1}], "abc": [1.66e-06, 1e-06, -0.0], "properties": {"magmom": -0.017}, "label": "Ga", "xyz": [7.9086312952e-06, 4.7643077e-06, 0.0]}]}, "task_ids": null, "uncorrected_energy_per_atom": null, "energy_per_atom": -13.65360545125, "formation_energy_per_atom": -0.22572966625000002, "energy_above_hull": 0.0, "is_stable": true, "equilibrium_reaction_energy_per_atom": null, "decomposes_to": null, "xas": null, "grain_boundaries": null, "band_gap": 0.0, "cbm": null, "vbm": null, "efermi": 5.71940405, "is_gap_direct": null, "is_metal": null, "es_source_calc_id": null, "bandstructure": null, "dos": null, "dos_energy_up": null, "dos_energy_down": null, "is_magnetic": null, "ordering": null, "total_magnetization": 3.8132901, "total_magnetization_normalized_vol": null, "total_magnetization_normalized_formula_units": null, "num_magnetic_sites": null, "num_unique_magnetic_sites": null, "types_of_magnetic_species": null, "bulk_modulus": null, "shear_modulus": null, "universal_anisotropy": null, "homogeneous_poisson": null, "e_total": null, "e_ionic": null, "e_electronic": null, "n": null, "e_ij_max": null, "weighted_surface_energy_EV_PER_ANG2": null, "weighted_surface_energy": null, "weighted_work_function": null, "surface_anisotropy": null, "shape_factor": null, "has_reconstructed": null, "possible_species": null, "has_props": null, "theoretical": null, "database_IDs": null, "fields_not_requested": ["builder_meta", "nsites", "elements", "nelements", "composition", "composition_reduced", "chemsys", "symmetry", "property_name", "deprecated", "deprecation_reasons", "last_updated", "origins", "warnings", "task_ids", "uncorrected_energy_per_atom", "equilibrium_reaction_energy_per_atom", "decomposes_to", "xas", "grain_boundaries", "cbm", "vbm", "is_gap_direct", "is_metal", "es_source_calc_id", "bandstructure", "dos", "dos_energy_up", "dos_energy_down", "is_magnetic", "ordering", "total_magnetization_normalized_vol", "total_magnetization_normalized_formula_units", "num_magnetic_sites", "num_unique_magnetic_sites", "types_of_magnetic_species", "bulk_modulus", "shear_modulus", "universal_anisotropy", "homogeneous_poisson", "e_total", "e_ionic", "e_electronic", "n", "e_ij_max", "weighted_surface_energy_EV_PER_ANG2", "weighted_surface_energy", "weighted_work_function", "surface_anisotropy", "shape_factor", "has_reconstructed", "possible_species", "has_props", "theoretical", "database_IDs"]}