{
  "builder_meta": null,
  "nsites": null,
  "elements": null,
  "nelements": null,
  "composition": null,
  "composition_reduced": null,
  "formula_pretty": "V3Ga2",
  "formula_anonymous": "A2B3",
  "chemsys": null,
  "volume": 280.52475568626005,
  "density": 6.9202674406034435,
  "density_atomic": 14.026237784313002,
  "symmetry": null,
  "property_name": null,
  "material_id": "mp-1189774",
  "deprecated": null,
  "deprecation_reasons": null,
  "last_updated": null,
  "origins": null,
  "warnings": null,
  "structure": {
    "@module": "pymatgen.core.structure",
    "@class": "Structure",
    "charge": 0,
    "lattice": {
      "matrix": [
        [6.546217, 0.0, 0.0],
        [0.0, 6.546217, 0.0],
        [0.0, 0.0, 6.546217]
      ],
      "pbc": [true, true, true],
      "a": 6.546217,
      "b": 6.546217,
      "c": 6.546217,
      "alpha": 90.0,
      "beta": 90.0,
      "gamma": 90.0,
      "volume": 280.52475568626005
    },
    "properties": {},
    "sites": [
      {
        "species": [{ "element": "V", "occu": 1 }],
        "abc": [0.793408999999999, 0.956591, 0.375],
        "properties": { "magmom": 0.001 },
        "label": "V",
        "xyz": [5.193827483752994, 6.262052266247, 2.4548313750000004]
      },
      {
        "species": [{ "element": "V", "occu": 1 }],
        "abc": [0.706591, 0.043408999999999004, 0.875],
        "properties": { "magmom": 0.0 },
        "label": "V",
        "xyz": [4.6254980162470005, 0.2841647337529935, 5.727939875000001]
      },
      {
        "species": [{ "element": "V", "occu": 1 }],
        "abc": [0.206591, 0.456590999999999, 0.125],
        "properties": { "magmom": 0.0 },
        "label": "V",
        "xyz": [1.352389516247, 2.9889437662469938, 0.818277125]
      },
      {
        "species": [{ "element": "V", "occu": 1 }],
        "abc": [0.293409, 0.543409, 0.625],
        "properties": { "magmom": 0.0 },
        "label": "V",
        "xyz": [1.9207189837529999, 3.5572732337530004, 4.091385625]
      },
      {
        "species": [{ "element": "V", "occu": 1 }],
        "abc": [0.956591, 0.375, 0.793408999999999],
        "properties": { "magmom": 0.001 },
        "label": "V",
        "xyz": [6.262052266247, 2.4548313750000004, 5.193827483752994]
      },
      {
        "species": [{ "element": "V", "occu": 1 }],
        "abc": [0.043408999999999004, 0.875, 0.706591],
        "properties": { "magmom": 0.0 },
        "label": "V",
        "xyz": [0.2841647337529935, 5.727939875000001, 4.6254980162470005]
      },
      {
        "species": [{ "element": "V", "occu": 1 }],
        "abc": [0.456590999999999, 0.125, 0.206591],
        "properties": { "magmom": 0.0 },
        "label": "V",
        "xyz": [2.9889437662469938, 0.818277125, 1.352389516247]
      },
      {
        "species": [{ "element": "V", "occu": 1 }],
        "abc": [0.543409, 0.625, 0.293409],
        "properties": { "magmom": 0.001 },
        "label": "V",
        "xyz": [3.5572732337530004, 4.091385625, 1.9207189837529999]
      },
      {
        "species": [{ "element": "V", "occu": 1 }],
        "abc": [0.375, 0.793408999999999, 0.956591],
        "properties": { "magmom": 0.001 },
        "label": "V",
        "xyz": [2.4548313750000004, 5.193827483752994, 6.262052266247]
      },
      {
        "species": [{ "element": "V", "occu": 1 }],
        "abc": [0.875, 0.706591, 0.043408999999999004],
        "properties": { "magmom": 0.001 },
        "label": "V",
        "xyz": [5.727939875000001, 4.6254980162470005, 0.2841647337529935]
      },
      {
        "species": [{ "element": "V", "occu": 1 }],
        "abc": [0.125, 0.206591, 0.456590999999999],
        "properties": { "magmom": 0.001 },
        "label": "V",
        "xyz": [0.818277125, 1.352389516247, 2.9889437662469938]
      },
      {
        "species": [{ "element": "V", "occu": 1 }],
        "abc": [0.625, 0.293409, 0.543409],
        "properties": { "magmom": 0.001 },
        "label": "V",
        "xyz": [4.091385625, 1.9207189837529999, 3.5572732337530004]
      },
      {
        "species": [{ "element": "Ga", "occu": 1 }],
        "abc": [0.187852, 0.812148, 0.312148],
        "properties": { "magmom": -0.0 },
        "label": "Ga",
        "xyz": [1.229719955884, 5.316497044116, 2.043388544116]
      },
      {
        "species": [{ "element": "Ga", "occu": 1 }],
        "abc": [0.312148, 0.187852, 0.812148],
        "properties": { "magmom": -0.0 },
        "label": "Ga",
        "xyz": [2.043388544116, 1.229719955884, 5.316497044116]
      },
      {
        "species": [{ "element": "Ga", "occu": 1 }],
        "abc": [0.812148, 0.312148, 0.187852],
        "properties": { "magmom": -0.0 },
        "label": "Ga",
        "xyz": [5.316497044116, 2.043388544116, 1.229719955884]
      },
      {
        "species": [{ "element": "Ga", "occu": 1 }],
        "abc": [0.687852, 0.687852, 0.687852],
        "properties": { "magmom": -0.0 },
        "label": "Ga",
        "xyz": [4.502828455884001, 4.502828455884001, 4.502828455884001]
      },
      {
        "species": [{ "element": "Ga", "occu": 1 }],
        "abc": [0.562148, 0.437851999999999, 0.937851999999999],
        "properties": { "magmom": -0.0 },
        "label": "Ga",
        "xyz": [3.679942794116, 2.8662742058839936, 6.139382705883994]
      },
      {
        "species": [{ "element": "Ga", "occu": 1 }],
        "abc": [0.437851999999999, 0.937851999999999, 0.562148],
        "properties": { "magmom": -0.0 },
        "label": "Ga",
        "xyz": [2.8662742058839936, 6.139382705883994, 3.679942794116]
      },
      {
        "species": [{ "element": "Ga", "occu": 1 }],
        "abc": [0.937851999999999, 0.562148, 0.437851999999999],
        "properties": { "magmom": -0.0 },
        "label": "Ga",
        "xyz": [6.139382705883994, 3.679942794116, 2.8662742058839936]
      },
      {
        "species": [{ "element": "Ga", "occu": 1 }],
        "abc": [0.062147999999999, 0.062147999999999, 0.062147999999999],
        "properties": { "magmom": -0.0 },
        "label": "Ga",
        "xyz": [0.4068342941159935, 0.4068342941159935, 0.4068342941159935]
      }
    ]
  },
  "task_ids": null,
  "uncorrected_energy_per_atom": null,
  "energy_per_atom": -13.189099911333335,
  "formation_energy_per_atom": -0.158244093333334,
  "energy_above_hull": 0.091088659666665,
  "is_stable": false,
  "equilibrium_reaction_energy_per_atom": null,
  "decomposes_to": null,
  "xas": null,
  "grain_boundaries": null,
  "band_gap": 0.0,
  "cbm": null,
  "vbm": null,
  "efermi": 5.6546123,
  "is_gap_direct": null,
  "is_metal": null,
  "es_source_calc_id": null,
  "bandstructure": null,
  "dos": null,
  "dos_energy_up": null,
  "dos_energy_down": null,
  "is_magnetic": null,
  "ordering": null,
  "total_magnetization": 0.017196799999999002,
  "total_magnetization_normalized_vol": null,
  "total_magnetization_normalized_formula_units": null,
  "num_magnetic_sites": null,
  "num_unique_magnetic_sites": null,
  "types_of_magnetic_species": null,
  "bulk_modulus": null,
  "shear_modulus": null,
  "universal_anisotropy": null,
  "homogeneous_poisson": null,
  "e_total": null,
  "e_ionic": null,
  "e_electronic": null,
  "n": null,
  "e_ij_max": null,
  "weighted_surface_energy_EV_PER_ANG2": null,
  "weighted_surface_energy": null,
  "weighted_work_function": null,
  "surface_anisotropy": null,
  "shape_factor": null,
  "has_reconstructed": null,
  "possible_species": null,
  "has_props": null,
  "theoretical": null,
  "database_IDs": null,
  "fields_not_requested": [
    "builder_meta",
    "nsites",
    "elements",
    "nelements",
    "composition",
    "composition_reduced",
    "chemsys",
    "symmetry",
    "property_name",
    "deprecated",
    "deprecation_reasons",
    "last_updated",
    "origins",
    "warnings",
    "task_ids",
    "uncorrected_energy_per_atom",
    "equilibrium_reaction_energy_per_atom",
    "decomposes_to",
    "xas",
    "grain_boundaries",
    "cbm",
    "vbm",
    "is_gap_direct",
    "is_metal",
    "es_source_calc_id",
    "bandstructure",
    "dos",
    "dos_energy_up",
    "dos_energy_down",
    "is_magnetic",
    "ordering",
    "total_magnetization_normalized_vol",
    "total_magnetization_normalized_formula_units",
    "num_magnetic_sites",
    "num_unique_magnetic_sites",
    "types_of_magnetic_species",
    "bulk_modulus",
    "shear_modulus",
    "universal_anisotropy",
    "homogeneous_poisson",
    "e_total",
    "e_ionic",
    "e_electronic",
    "n",
    "e_ij_max",
    "weighted_surface_energy_EV_PER_ANG2",
    "weighted_surface_energy",
    "weighted_work_function",
    "surface_anisotropy",
    "shape_factor",
    "has_reconstructed",
    "possible_species",
    "has_props",
    "theoretical",
    "database_IDs"
  ]
}
