{"builder_meta": null, "nsites": null, "elements": null, "nelements": null, "composition": null, "composition_reduced": null, "formula_pretty": "V3N4", "formula_anonymous": "A3B4", "chemsys": null, "volume": 151.71005381920415, "density": 4.57195464676971, "density_atomic": 10.83643241565744, "symmetry": null, "property_name": null, "material_id": "mp-1080199", "deprecated": null, "deprecation_reasons": null, "last_updated": null, "origins": null, "warnings": null, "structure": {"@module": "pymatgen.core.structure", "@class": "Structure", "charge": 0, "lattice": {"matrix": [[3.920453, -6.790423, 0.0], [3.920453, 6.790423, 0.0], [0.0, 0.0, 2.849386]], "pbc": [true, true, true], "a": 7.840905320442149, "b": 7.840905320442149, "c": 2.849386, "alpha": 90.0, "beta": 90.0, "gamma": 119.99999426607205, "volume": 151.71005381920415}, "properties": {}, "sites": [{"species": [{"element": "V", "occu": 1}], "abc": [0.531988999999999, 0.669612, 0.75], "properties": {"magmom": 0.212}, "label": "V", "xyz": [4.710820245252997, 0.9345183845290066, 2.1370395]}, {"species": [{"element": "V", "occu": 1}], "abc": [0.137623, 0.468010999999999, 0.75], "properties": {"magmom": 0.217}, "label": "V", "xyz": [2.374359632201996, 2.2434742741239933, 2.1370395]}, {"species": [{"element": "V", "occu": 1}], "abc": [0.330387999999999, 0.862377, 0.75], "properties": {"magmom": 0.211}, "label": "V", "xyz": [4.676179122544996, 3.612430341347006, 2.1370395]}, {"species": [{"element": "V", "occu": 1}], "abc": [0.468010999999999, 0.330387999999999, 0.25], "properties": {"magmom": 0.215}, "label": "V", "xyz": [3.1300857547469922, -0.9345183845289999, 0.7123465]}, {"species": [{"element": "V", "occu": 1}], "abc": [0.862377, 0.531988999999999, 0.25], "properties": {"magmom": 0.217}, "label": "V", "xyz": [5.466546367797997, -2.243474274124006, 0.7123465]}, {"species": [{"element": "V", "occu": 1}], "abc": [0.669612, 0.137623, 0.25], "properties": {"magmom": 0.20800000000000002}, "label": "V", "xyz": [3.164726877455, -3.612430341347, 0.7123465]}, {"species": [{"element": "N", "occu": 1}], "abc": [0.630386, 0.9512100000000001, 0.75], "properties": {"magmom": -0.008}, "label": "N", "xyz": [6.200572782988001, 2.1785306685520007, 2.1370395]}, {"species": [{"element": "N", "occu": 1}], "abc": [0.320824, 0.369614, 0.75], "properties": {"magmom": -0.008}, "label": "N", "xyz": [2.706829728414, 0.33130473817000006, 2.1370395]}, {"species": [{"element": "N", "occu": 1}], "abc": [0.04879000000000001, 0.679176, 0.75], "properties": {"magmom": -0.008}, "label": "N", "xyz": [2.853956488598, 4.280587593278, 2.1370395]}, {"species": [{"element": "N", "occu": 1}], "abc": [0.369614, 0.04879000000000001, 0.25], "properties": {"magmom": -0.009000000000000001}, "label": "N", "xyz": [1.6403332170120002, -2.178530668552, 0.7123465]}, {"species": [{"element": "N", "occu": 1}], "abc": [0.679176, 0.630386, 0.25], "properties": {"magmom": -0.008}, "label": "N", "xyz": [5.134076271586, -0.33130473817000006, 0.7123465]}, {"species": [{"element": "N", "occu": 1}], "abc": [0.9512100000000001, 0.320824, 0.25], "properties": {"magmom": -0.008}, "label": "N", "xyz": [4.986949511402001, -4.280587593278001, 0.7123465]}, {"species": [{"element": "N", "occu": 1}], "abc": [0.666667, 0.333333, 0.75], "properties": {"magmom": -0.016}, "label": "N", "xyz": [3.920453, -2.2634788602820004, 2.1370395]}, {"species": [{"element": "N", "occu": 1}], "abc": [0.333333, 0.666667, 0.25], "properties": {"magmom": -0.016}, "label": "N", "xyz": [3.920453, 2.2634788602820004, 0.7123465]}]}, "task_ids": null, "uncorrected_energy_per_atom": null, "energy_per_atom": -12.237372287321426, "formation_energy_per_atom": -0.9825537337499971, "energy_above_hull": 0.17675591142857303, "is_stable": false, "equilibrium_reaction_energy_per_atom": null, "decomposes_to": null, "xas": null, "grain_boundaries": null, "band_gap": 0.0, "cbm": null, "vbm": null, "efermi": 4.67511929, "is_gap_direct": null, "is_metal": null, "es_source_calc_id": null, "bandstructure": null, "dos": null, "dos_energy_up": null, "dos_energy_down": null, "is_magnetic": null, "ordering": null, "total_magnetization": 1.3458154, "total_magnetization_normalized_vol": null, "total_magnetization_normalized_formula_units": null, "num_magnetic_sites": null, "num_unique_magnetic_sites": null, "types_of_magnetic_species": null, "bulk_modulus": null, "shear_modulus": null, "universal_anisotropy": null, "homogeneous_poisson": null, "e_total": null, "e_ionic": null, "e_electronic": null, "n": null, "e_ij_max": null, "weighted_surface_energy_EV_PER_ANG2": null, "weighted_surface_energy": null, "weighted_work_function": null, "surface_anisotropy": null, "shape_factor": null, "has_reconstructed": null, "possible_species": null, "has_props": null, "theoretical": null, "database_IDs": null, "fields_not_requested": ["builder_meta", "nsites", "elements", "nelements", "composition", "composition_reduced", "chemsys", "symmetry", "property_name", "deprecated", "deprecation_reasons", "last_updated", "origins", "warnings", "task_ids", "uncorrected_energy_per_atom", "equilibrium_reaction_energy_per_atom", "decomposes_to", "xas", "grain_boundaries", "cbm", "vbm", "is_gap_direct", "is_metal", "es_source_calc_id", "bandstructure", "dos", "dos_energy_up", "dos_energy_down", "is_magnetic", "ordering", "total_magnetization_normalized_vol", "total_magnetization_normalized_formula_units", "num_magnetic_sites", "num_unique_magnetic_sites", "types_of_magnetic_species", "bulk_modulus", "shear_modulus", "universal_anisotropy", "homogeneous_poisson", "e_total", "e_ionic", "e_electronic", "n", "e_ij_max", "weighted_surface_energy_EV_PER_ANG2", "weighted_surface_energy", "weighted_work_function", "surface_anisotropy", "shape_factor", "has_reconstructed", "possible_species", "has_props", "theoretical", "database_IDs"]}