{
  "builder_meta": null,
  "nsites": null,
  "elements": null,
  "nelements": null,
  "composition": null,
  "composition_reduced": null,
  "formula_pretty": "V3Ni2",
  "formula_anonymous": "A2B3",
  "chemsys": null,
  "volume": 359.4728351252836,
  "density": 7.489240510711626,
  "density_atomic": 11.982427837509453,
  "symmetry": null,
  "property_name": null,
  "material_id": "mp-1216708",
  "deprecated": null,
  "deprecation_reasons": null,
  "last_updated": null,
  "origins": null,
  "warnings": null,
  "structure": {
    "@module": "pymatgen.core.structure",
    "@class": "Structure",
    "charge": 0,
    "lattice": {
      "matrix": [
        [4.5617161, 0.0, 0.0],
        [0.0, 8.830725900000001, -0.009216180000000001],
        [0.0, 0.07297024, 8.92355105]
      ],
      "pbc": [true, true, true],
      "a": 4.5617161,
      "b": 8.830730709228122,
      "c": 8.923849393500642,
      "alpha": 89.59128435350067,
      "beta": 90.0,
      "gamma": 90.0,
      "volume": 359.4728351252837
    },
    "properties": {},
    "sites": [
      {
        "species": [{ "element": "V", "occu": 1 }],
        "abc": [0.2468163, 0.31705367, 0.67879718],
        "properties": { "magmom": 0.0 },
        "label": "V",
        "xyz": [1.1259058894524299, 2.8493460484949766, 6.054359264633659]
      },
      {
        "species": [{ "element": "V", "occu": 1 }],
        "abc": [0.2468163, 0.68294633, 0.32120282],
        "properties": { "magmom": 0.0 },
        "label": "V",
        "xyz": [1.1259058894524299, 6.054350091505024, 2.859975605366342]
      },
      {
        "species": [{ "element": "V", "occu": 1 }],
        "abc": [0.74605416, 0.82334929, 0.81771403],
        "properties": { "magmom": 0.002 },
        "label": "V",
        "xyz": [3.403287273143976, 7.330440688970079, 7.289324755746719]
      },
      {
        "species": [{ "element": "V", "occu": 1 }],
        "abc": [0.74605416, 0.17665071000000002, 0.18228597],
        "properties": { "magmom": 0.002 },
        "label": "V",
        "xyz": [3.403287273143976, 1.5732554510299221, 1.6250101142532807]
      },
      {
        "species": [{ "element": "V", "occu": 1 }],
        "abc": [0.7531837, 0.68294633, 0.32120282],
        "properties": { "magmom": 0.0 },
        "label": "V",
        "xyz": [3.43581021054757, 6.054350091505024, 2.859975605366342]
      },
      {
        "species": [{ "element": "V", "occu": 1 }],
        "abc": [0.7531837, 0.31705367, 0.67879718],
        "properties": { "magmom": 0.0 },
        "label": "V",
        "xyz": [3.43581021054757, 2.8493460484949766, 6.054359264633659]
      },
      {
        "species": [{ "element": "V", "occu": 1 }],
        "abc": [0.25394584, 0.17665071000000002, 0.18228597],
        "properties": { "magmom": 0.002 },
        "label": "V",
        "xyz": [1.1584288268560239, 1.5732554510299221, 1.6250101142532807]
      },
      {
        "species": [{ "element": "V", "occu": 1 }],
        "abc": [0.25394584, 0.82334929, 0.81771403],
        "properties": { "magmom": 0.002 },
        "label": "V",
        "xyz": [1.1584288268560239, 7.330440688970079, 7.289324755746719]
      },
      {
        "species": [{ "element": "V", "occu": 1 }],
        "abc": [0.5, 0.10796827, 0.89642278],
        "properties": { "magmom": -0.0 },
        "label": "V",
        "xyz": [2.28085805, 1.0188503836652603, 7.99827938470231]
      },
      {
        "species": [{ "element": "V", "occu": 1 }],
        "abc": [0.5, 0.89203173, 0.10357722],
        "properties": { "magmom": -0.0 },
        "label": "V",
        "xyz": [2.28085805, 7.884845756334741, 0.9160554852976895]
      },
      {
        "species": [{ "element": "V", "occu": 1 }],
        "abc": [0.0, 0.6106622700000001, 0.60709763],
        "properties": { "magmom": -0.0 },
        "label": "V",
        "xyz": [0.0, 5.436891183606325, 5.4118387202394835]
      },
      {
        "species": [{ "element": "V", "occu": 1 }],
        "abc": [0.0, 0.38933773, 0.39290237],
        "properties": { "magmom": -0.0 },
        "label": "V",
        "xyz": [0.0, 3.466804956393676, 3.502496149760517]
      },
      {
        "species": [{ "element": "V", "occu": 1 }],
        "abc": [0.0, 0.53592884, 0.87375974],
        "properties": { "magmom": 0.0 },
        "label": "V",
        "xyz": [0.0, 4.796399145875093, 7.792100428668096]
      },
      {
        "species": [{ "element": "V", "occu": 1 }],
        "abc": [0.0, 0.46407116, 0.12624026],
        "properties": { "magmom": 0.0 },
        "label": "V",
        "xyz": [0.0, 4.107296994124907, 1.122234441331904]
      },
      {
        "species": [{ "element": "V", "occu": 1 }],
        "abc": [0.5, 0.62631523, 0.03624945],
        "properties": { "magmom": -0.0 },
        "label": "V",
        "xyz": [2.28085805, 5.533463254191825, 0.3177015837130011]
      },
      {
        "species": [{ "element": "V", "occu": 1 }],
        "abc": [0.5, 0.37368477, 0.96375055],
        "properties": { "magmom": -0.0 },
        "label": "V",
        "xyz": [2.28085805, 3.3702328858081754, 8.596633286287]
      },
      {
        "species": [{ "element": "V", "occu": 1 }],
        "abc": [0.0, 0.8781860100000001, 0.53479413],
        "properties": { "magmom": 0.0 },
        "label": "V",
        "xyz": [0.0, 7.794043999541351, 4.764169199953695]
      },
      {
        "species": [{ "element": "V", "occu": 1 }],
        "abc": [0.0, 0.12181399, 0.46520587],
        "properties": { "magmom": 0.0 },
        "label": "V",
        "xyz": [0.0, 1.10965214045865, 4.150165670046306]
      },
      {
        "species": [{ "element": "Ni", "occu": 1 }],
        "abc": [0.5, 0.5, 0.5],
        "properties": { "magmom": 0.001 },
        "label": "Ni",
        "xyz": [2.28085805, 4.4518480700000005, 4.457167435000001]
      },
      {
        "species": [{ "element": "Ni", "occu": 1 }],
        "abc": [0.0, -0.0, -0.0],
        "properties": { "magmom": 0.0 },
        "label": "Ni",
        "xyz": [0.0, 0.0, 0.0]
      },
      {
        "species": [{ "element": "Ni", "occu": 1 }],
        "abc": [0.5, 0.7611829, 0.5655815200000001],
        "properties": { "magmom": 0.0 },
        "label": "Ni",
        "xyz": [2.28085805, 6.763068168921075, 5.039980368037275]
      },
      {
        "species": [{ "element": "Ni", "occu": 1 }],
        "abc": [0.5, 0.238817099999999, 0.43441848],
        "properties": { "magmom": 0.0 },
        "label": "Ni",
        "xyz": [2.28085805, 2.1406279710789167, 3.8743545019627263]
      },
      {
        "species": [{ "element": "Ni", "occu": 1 }],
        "abc": [0.0, 0.25896398, 0.93449595],
        "properties": { "magmom": 0.0 },
        "label": "Ni",
        "xyz": [0.0, 2.3550303191036104, 8.336635657190053]
      },
      {
        "species": [{ "element": "Ni", "occu": 1 }],
        "abc": [0.0, 0.74103602, 0.06550405000000001],
        "properties": { "magmom": 0.0 },
        "label": "Ni",
        "xyz": [0.0, 6.5486658208963915, 0.577699212809949]
      },
      {
        "species": [{ "element": "Ni", "occu": 1 }],
        "abc": [0.5, 0.56687511, 0.75721975],
        "properties": { "magmom": 0.001 },
        "label": "Ni",
        "xyz": [2.28085805, 5.061173222832589, 6.751864672141958]
      },
      {
        "species": [{ "element": "Ni", "occu": 1 }],
        "abc": [0.5, 0.43312489, 0.24278025],
        "properties": { "magmom": 0.001 },
        "label": "Ni",
        "xyz": [2.28085805, 3.842522917167411, 2.1624701978580423]
      },
      {
        "species": [{ "element": "Ni", "occu": 1 }],
        "abc": [0.0, 0.93229361, 0.25808233],
        "properties": { "magmom": 0.0 },
        "label": "Ni",
        "xyz": [0.0, 8.25166165779136, 2.294418661135337]
      },
      {
        "species": [{ "element": "Ni", "occu": 1 }],
        "abc": [0.0, 0.06770639, 0.74191767],
        "properties": { "magmom": 0.0 },
        "label": "Ni",
        "xyz": [0.0, 0.6520344822086419, 6.619916208864663]
      },
      {
        "species": [{ "element": "Ni", "occu": 1 }],
        "abc": [0.5, 0.03677069, 0.6312979200000001],
        "properties": { "magmom": -0.0 },
        "label": "Ni",
        "xyz": [2.28085805, 0.37077784527777186, 5.633080331581053]
      },
      {
        "species": [{ "element": "Ni", "occu": 1 }],
        "abc": [0.5, 0.96322931, 0.36870208],
        "properties": { "magmom": -0.0 },
        "label": "Ni",
        "xyz": [2.28085805, 8.53291829472223, 3.281254538418948]
      }
    ]
  },
  "task_ids": null,
  "uncorrected_energy_per_atom": null,
  "energy_per_atom": -13.424889666333334,
  "formation_energy_per_atom": -0.178457364333331,
  "energy_above_hull": 0.0,
  "is_stable": true,
  "equilibrium_reaction_energy_per_atom": null,
  "decomposes_to": null,
  "xas": null,
  "grain_boundaries": null,
  "band_gap": 0.0,
  "cbm": null,
  "vbm": null,
  "efermi": 6.83924693,
  "is_gap_direct": null,
  "is_metal": null,
  "es_source_calc_id": null,
  "bandstructure": null,
  "dos": null,
  "dos_energy_up": null,
  "dos_energy_down": null,
  "is_magnetic": null,
  "ordering": null,
  "total_magnetization": 0.010704799999999001,
  "total_magnetization_normalized_vol": null,
  "total_magnetization_normalized_formula_units": null,
  "num_magnetic_sites": null,
  "num_unique_magnetic_sites": null,
  "types_of_magnetic_species": null,
  "bulk_modulus": null,
  "shear_modulus": null,
  "universal_anisotropy": null,
  "homogeneous_poisson": null,
  "e_total": null,
  "e_ionic": null,
  "e_electronic": null,
  "n": null,
  "e_ij_max": null,
  "weighted_surface_energy_EV_PER_ANG2": null,
  "weighted_surface_energy": null,
  "weighted_work_function": null,
  "surface_anisotropy": null,
  "shape_factor": null,
  "has_reconstructed": null,
  "possible_species": null,
  "has_props": null,
  "theoretical": null,
  "database_IDs": null,
  "fields_not_requested": [
    "builder_meta",
    "nsites",
    "elements",
    "nelements",
    "composition",
    "composition_reduced",
    "chemsys",
    "symmetry",
    "property_name",
    "deprecated",
    "deprecation_reasons",
    "last_updated",
    "origins",
    "warnings",
    "task_ids",
    "uncorrected_energy_per_atom",
    "equilibrium_reaction_energy_per_atom",
    "decomposes_to",
    "xas",
    "grain_boundaries",
    "cbm",
    "vbm",
    "is_gap_direct",
    "is_metal",
    "es_source_calc_id",
    "bandstructure",
    "dos",
    "dos_energy_up",
    "dos_energy_down",
    "is_magnetic",
    "ordering",
    "total_magnetization_normalized_vol",
    "total_magnetization_normalized_formula_units",
    "num_magnetic_sites",
    "num_unique_magnetic_sites",
    "types_of_magnetic_species",
    "bulk_modulus",
    "shear_modulus",
    "universal_anisotropy",
    "homogeneous_poisson",
    "e_total",
    "e_ionic",
    "e_electronic",
    "n",
    "e_ij_max",
    "weighted_surface_energy_EV_PER_ANG2",
    "weighted_surface_energy",
    "weighted_work_function",
    "surface_anisotropy",
    "shape_factor",
    "has_reconstructed",
    "possible_species",
    "has_props",
    "theoretical",
    "database_IDs"
  ]
}
