{"builder_meta": null, "nsites": null, "elements": null, "nelements": null, "composition": null, "composition_reduced": null, "formula_pretty": "V3O5", "formula_anonymous": "A3B5", "chemsys": null, "volume": 174.04930479353644, "density": 4.442525027641124, "density_atomic": 10.878081549596027, "symmetry": null, "property_name": null, "material_id": "mp-1272338", "deprecated": null, "deprecation_reasons": null, "last_updated": null, "origins": null, "warnings": null, "structure": {"@module": "pymatgen.core.structure", "@class": "Structure", "charge": 0, "lattice": {"matrix": [[0.029743, 5.188972, -0.006051], [3.414098, 2.618426, -3.808316], [-6.681979, -0.035488, -2.387729]], "pbc": [true, true, true], "a": 5.189060770258332, "b": 5.7459107743625815, "c": 7.095868694671992, "alpha": 109.80228134471022, "beta": 90.57332720773827, "gamma": 62.62106440758108, "volume": 174.04930479353644}, "properties": {}, "sites": [{"species": [{"element": "V", "occu": 1}], "abc": [0.869861999999999, 0.762386999999999, 0.22299000000000002], "properties": {"magmom": 1.106}, "label": "V", "xyz": [1.138721740181997, 6.502030035605992, -3.4411138349639963]}, {"species": [{"element": "V", "occu": 1}], "abc": [0.869698, 0.758753999999999, 0.720518], "properties": {"magmom": 1.877}, "label": "V", "xyz": [-2.1981582036160034, 6.474010028875997, -4.615239264483996]}, {"species": [{"element": "V", "occu": 1}], "abc": [0.130138, 0.237616, 0.7770100000000001], "properties": {"magmom": 1.106}, "label": "V", "xyz": [-4.376849497888, 1.269887819672, -2.7609935899840004]}, {"species": [{"element": "V", "occu": 1}], "abc": [0.130303, 0.241242999999999, 0.279482], "properties": {"magmom": 1.877}, "label": "V", "xyz": [-1.0399900089350034, 1.2978973048179974, -1.5868453166189962]}, {"species": [{"element": "V", "occu": 1}], "abc": [0.499994, 0.500007, 0.499998999999999], "properties": {"magmom": -1.818}, "label": "V", "xyz": [-1.6190385977929935, 3.885942230638, -3.1010722341769976]}, {"species": [{"element": "V", "occu": 1}], "abc": [0.500002, 0.499998, 0.0], "properties": {"magmom": 1.895}, "label": "V", "xyz": [1.7219137312900001, 3.9037041410919997, -1.90717589547]}, {"species": [{"element": "O", "occu": 1}], "abc": [0.703032, 0.49093000000000003, 0.747054], "properties": {"magmom": -0.012}, "label": "O", "xyz": [-3.29480572795, 4.906965786932001, -3.6576331208780006]}, {"species": [{"element": "O", "occu": 1}], "abc": [0.296968, 0.509069, 0.252946], "properties": {"magmom": -0.012}, "label": "O", "xyz": [0.05666431385199999, 2.864941594642, -2.544459070806]}, {"species": [{"element": "O", "occu": 1}], "abc": [0.156323, 0.897135999999999, 0.666727], "properties": {"magmom": -0.054}, "label": "O", "xyz": [-1.3874960744160028, 3.1365790901159976, -5.0094866864319965]}, {"species": [{"element": "O", "occu": 1}], "abc": [0.474937999999999, 0.8720600000000001, 0.161506999999999], "properties": {"magmom": -0.042}, "label": "O", "xyz": [1.912238000461007, 4.742133000879995, -3.7095888484009976]}, {"species": [{"element": "O", "occu": 1}], "abc": [0.843675, 0.102865, 0.333273], "properties": {"magmom": -0.054}, "label": "O", "xyz": [-1.850638570972, 4.635323150365999, -1.192613109782]}, {"species": [{"element": "O", "occu": 1}], "abc": [0.525063, 0.127938, 0.838492999999999], "properties": {"magmom": -0.042}, "label": "O", "xyz": [-5.150382798913994, 3.0297769512399997, -2.492499541017998]}, {"species": [{"element": "O", "occu": 1}], "abc": [0.066369, 0.6623300000000001, 0.947874999999999], "properties": {"magmom": -0.037}, "label": "O", "xyz": [-4.070447303117993, 2.045010787248, -4.786032160973997]}, {"species": [{"element": "O", "occu": 1}], "abc": [0.764968, 0.654189, 0.43763], "properties": {"magmom": -0.03}, "label": "O", "xyz": [-0.668016670024, 5.666812405969999, -3.540929099362]}, {"species": [{"element": "O", "occu": 1}], "abc": [0.933634, 0.337667999999999, 0.052125], "properties": {"magmom": -0.037}, "label": "O", "xyz": [0.8323025641509967, 5.7269095428159975, -1.4160562405469963]}, {"species": [{"element": "O", "occu": 1}], "abc": [0.235033, 0.345811, 0.56237], "properties": {"magmom": -0.03}, "label": "O", "xyz": [-2.570121300233, 2.105102783002, -2.661166906689]}]}, "task_ids": null, "uncorrected_energy_per_atom": null, "energy_per_atom": -9.02128613, "formation_energy_per_atom": -2.522345725624999, "energy_above_hull": 0.007672148906252001, "is_stable": false, "equilibrium_reaction_energy_per_atom": null, "decomposes_to": null, "xas": null, "grain_boundaries": null, "band_gap": 1.311799999999999, "cbm": null, "vbm": null, "efermi": 3.66468242, "is_gap_direct": null, "is_metal": null, "es_source_calc_id": null, "bandstructure": null, "dos": null, "dos_energy_up": null, "dos_energy_down": null, "is_magnetic": null, "ordering": null, "total_magnetization": 5.9858888, "total_magnetization_normalized_vol": null, "total_magnetization_normalized_formula_units": null, "num_magnetic_sites": null, "num_unique_magnetic_sites": null, "types_of_magnetic_species": null, "bulk_modulus": null, "shear_modulus": null, "universal_anisotropy": null, "homogeneous_poisson": null, "e_total": null, "e_ionic": null, "e_electronic": null, "n": null, "e_ij_max": null, "weighted_surface_energy_EV_PER_ANG2": null, "weighted_surface_energy": null, "weighted_work_function": null, "surface_anisotropy": null, "shape_factor": null, "has_reconstructed": null, "possible_species": null, "has_props": null, "theoretical": null, "database_IDs": null, "fields_not_requested": ["builder_meta", "nsites", "elements", "nelements", "composition", "composition_reduced", "chemsys", "symmetry", "property_name", "deprecated", "deprecation_reasons", "last_updated", "origins", "warnings", "task_ids", "uncorrected_energy_per_atom", "equilibrium_reaction_energy_per_atom", "decomposes_to", "xas", "grain_boundaries", "cbm", "vbm", "is_gap_direct", "is_metal", "es_source_calc_id", "bandstructure", "dos", "dos_energy_up", "dos_energy_down", "is_magnetic", "ordering", "total_magnetization_normalized_vol", "total_magnetization_normalized_formula_units", "num_magnetic_sites", "num_unique_magnetic_sites", "types_of_magnetic_species", "bulk_modulus", "shear_modulus", "universal_anisotropy", "homogeneous_poisson", "e_total", "e_ionic", "e_electronic", "n", "e_ij_max", "weighted_surface_energy_EV_PER_ANG2", "weighted_surface_energy", "weighted_work_function", "surface_anisotropy", "shape_factor", "has_reconstructed", "possible_species", "has_props", "theoretical", "database_IDs"]}