{
  "builder_meta": null,
  "nsites": null,
  "elements": null,
  "nelements": null,
  "composition": null,
  "composition_reduced": null,
  "formula_pretty": "V3O8",
  "formula_anonymous": "A3B8",
  "chemsys": null,
  "volume": 607.4079639103353,
  "density": 3.070832851903326,
  "density_atomic": 13.804726452507621,
  "symmetry": null,
  "property_name": null,
  "material_id": "mp-796383",
  "deprecated": null,
  "deprecation_reasons": null,
  "last_updated": null,
  "origins": null,
  "warnings": null,
  "structure": {
    "@module": "pymatgen.core.structure",
    "@class": "Structure",
    "charge": 0,
    "lattice": {
      "matrix": [
        [0.0, 0.0, 3.683367999999999],
        [17.393618, 0.0, 0.0],
        [0.0, 9.48081, 0.0]
      ],
      "pbc": [true, true, true],
      "a": 3.683367999999999,
      "b": 17.393618,
      "c": 9.48081,
      "alpha": 90.0,
      "beta": 90.0,
      "gamma": 90.0,
      "volume": 607.4079639103352
    },
    "properties": {},
    "sites": [
      {
        "species": [{ "element": "V", "occu": 1 }],
        "abc": [0.25, 0.544019, 0.373119],
        "properties": { "magmom": -0.002 },
        "label": "V",
        "xyz": [9.462458670742, 3.5374703463899997, 0.9208419999999997]
      },
      {
        "species": [{ "element": "V", "occu": 1 }],
        "abc": [0.25, 0.044018999999999, 0.126882],
        "properties": { "magmom": -0.002 },
        "label": "V",
        "xyz": [0.7656496707419826, 1.20294413442, 0.9208419999999997]
      },
      {
        "species": [{ "element": "V", "occu": 1 }],
        "abc": [0.75, 0.455980999999999, 0.626881],
        "properties": { "magmom": -0.002 },
        "label": "V",
        "xyz": [7.931159329257983, 5.94333965361, 2.7625259999999994]
      },
      {
        "species": [{ "element": "V", "occu": 1 }],
        "abc": [0.75, 0.955981, 0.873119],
        "properties": { "magmom": -0.002 },
        "label": "V",
        "xyz": [16.627968329258, 8.27787534639, 2.7625259999999994]
      },
      {
        "species": [{ "element": "V", "occu": 1 }],
        "abc": [0.25, 0.347871, 0.448397999999999],
        "properties": { "magmom": -0.326 },
        "label": "V",
        "xyz": [6.050735287278, 4.251176242379991, 0.9208419999999997]
      },
      {
        "species": [{ "element": "V", "occu": 1 }],
        "abc": [0.25, 0.847870999999999, 0.051601999999999],
        "properties": { "magmom": -0.326 },
        "label": "V",
        "xyz": [14.747544287277984, 0.4892287576199905, 0.9208419999999997]
      },
      {
        "species": [{ "element": "V", "occu": 1 }],
        "abc": [0.75, 0.652129, 0.551601999999999],
        "properties": { "magmom": -0.326 },
        "label": "V",
        "xyz": [11.342882712722, 5.2296337576199905, 2.7625259999999994]
      },
      {
        "species": [{ "element": "V", "occu": 1 }],
        "abc": [0.75, 0.152129, 0.948398],
        "properties": { "magmom": -0.326 },
        "label": "V",
        "xyz": [2.646073712722, 8.991581242379999, 2.7625259999999994]
      },
      {
        "species": [{ "element": "V", "occu": 1 }],
        "abc": [0.25, 0.948521, 0.409981],
        "properties": { "magmom": 0.004 },
        "label": "V",
        "xyz": [16.498211938978, 3.8869519646099997, 0.9208419999999997]
      },
      {
        "species": [{ "element": "V", "occu": 1 }],
        "abc": [0.25, 0.448521, 0.090019],
        "properties": { "magmom": 0.004 },
        "label": "V",
        "xyz": [7.801402938978, 0.8534530353900001, 0.9208419999999997]
      },
      {
        "species": [{ "element": "V", "occu": 1 }],
        "abc": [0.75, 0.051479, 0.590019],
        "properties": { "magmom": 0.004 },
        "label": "V",
        "xyz": [0.8954060610219999, 5.593858035389999, 2.7625259999999994]
      },
      {
        "species": [{ "element": "V", "occu": 1 }],
        "abc": [0.75, 0.551478999999999, 0.909980999999999],
        "properties": { "magmom": 0.004 },
        "label": "V",
        "xyz": [9.592215061021983, 8.62735696460999, 2.7625259999999994]
      },
      {
        "species": [{ "element": "O", "occu": 1 }],
        "abc": [0.25, 0.458178, 0.572171],
        "properties": { "magmom": 0.008 },
        "label": "O",
        "xyz": [7.969373108004, 5.42464453851, 0.9208419999999997]
      },
      {
        "species": [{ "element": "O", "occu": 1 }],
        "abc": [0.25, 0.958178, 0.9278289999999991],
        "properties": { "magmom": 0.008 },
        "label": "O",
        "xyz": [16.666182108003998, 8.796570461489992, 0.9208419999999997]
      },
      {
        "species": [{ "element": "O", "occu": 1 }],
        "abc": [0.75, 0.541822, 0.427828999999999],
        "properties": { "magmom": 0.008 },
        "label": "O",
        "xyz": [9.424244891996, 4.05616546148999, 2.7625259999999994]
      },
      {
        "species": [{ "element": "O", "occu": 1 }],
        "abc": [0.75, 0.041822, 0.072171],
        "properties": { "magmom": 0.008 },
        "label": "O",
        "xyz": [0.727435891996, 0.68423953851, 2.7625259999999994]
      },
      {
        "species": [{ "element": "O", "occu": 1 }],
        "abc": [0.25, 0.594853, 0.230461],
        "properties": { "magmom": 0.003 },
        "label": "O",
        "xyz": [10.346645848154, 2.18495695341, 0.9208419999999997]
      },
      {
        "species": [{ "element": "O", "occu": 1 }],
        "abc": [0.25, 0.09485299999999901, 0.269539],
        "properties": { "magmom": 0.003 },
        "label": "O",
        "xyz": [1.6498368481539827, 2.5554480465899996, 0.9208419999999997]
      },
      {
        "species": [{ "element": "O", "occu": 1 }],
        "abc": [0.75, 0.405147, 0.769539],
        "properties": { "magmom": 0.003 },
        "label": "O",
        "xyz": [7.046972151846, 7.29585304659, 2.7625259999999994]
      },
      {
        "species": [{ "element": "O", "occu": 1 }],
        "abc": [0.75, 0.905146999999999, 0.730460999999999],
        "properties": { "magmom": 0.003 },
        "label": "O",
        "xyz": [15.743781151845983, 6.925361953409991, 2.7625259999999994]
      },
      {
        "species": [{ "element": "O", "occu": 1 }],
        "abc": [0.25, 0.619914, 0.529443],
        "properties": { "magmom": 0.023 },
        "label": "O",
        "xyz": [10.782547308852, 5.01954848883, 0.9208419999999997]
      },
      {
        "species": [{ "element": "O", "occu": 1 }],
        "abc": [0.25, 0.11991399999999901, 0.970557],
        "properties": { "magmom": 0.023 },
        "label": "O",
        "xyz": [2.0857383088519827, 9.20166651117, 0.9208419999999997]
      },
      {
        "species": [{ "element": "O", "occu": 1 }],
        "abc": [0.75, 0.380086, 0.470557],
        "properties": { "magmom": 0.023 },
        "label": "O",
        "xyz": [6.611070691148, 4.46126151117, 2.7625259999999994]
      },
      {
        "species": [{ "element": "O", "occu": 1 }],
        "abc": [0.75, 0.880085999999999, 0.029442999999999],
        "properties": { "magmom": 0.023 },
        "label": "O",
        "xyz": [15.307879691147983, 0.2791434888299905, 2.7625259999999994]
      },
      {
        "species": [{ "element": "O", "occu": 1 }],
        "abc": [0.25, 0.445405999999999, 0.285653999999999],
        "properties": { "magmom": 0.008 },
        "label": "O",
        "xyz": [7.747221818907983, 2.7082312997399907, 0.9208419999999997]
      },
      {
        "species": [{ "element": "O", "occu": 1 }],
        "abc": [0.25, 0.945406, 0.214345999999999],
        "properties": { "magmom": 0.008 },
        "label": "O",
        "xyz": [16.444030818908, 2.0321737002599907, 0.9208419999999997]
      },
      {
        "species": [{ "element": "O", "occu": 1 }],
        "abc": [0.75, 0.554593999999999, 0.714345999999999],
        "properties": { "magmom": 0.008 },
        "label": "O",
        "xyz": [9.646396181091983, 6.772578700259991, 2.7625259999999994]
      },
      {
        "species": [{ "element": "O", "occu": 1 }],
        "abc": [0.75, 0.054594, 0.785654],
        "properties": { "magmom": 0.008 },
        "label": "O",
        "xyz": [0.9495871810919999, 7.4486362997399995, 2.7625259999999994]
      },
      {
        "species": [{ "element": "O", "occu": 1 }],
        "abc": [0.25, 0.281847, 0.31971000000000005],
        "properties": { "magmom": 0.503 },
        "label": "O",
        "xyz": [4.902339052446, 3.0311097651000005, 0.9208419999999997]
      },
      {
        "species": [{ "element": "O", "occu": 1 }],
        "abc": [0.25, 0.781847, 0.18029],
        "properties": { "magmom": 0.503 },
        "label": "O",
        "xyz": [13.599148052446, 1.7092952349000001, 0.9208419999999997]
      },
      {
        "species": [{ "element": "O", "occu": 1 }],
        "abc": [0.75, 0.718152999999999, 0.6802900000000001],
        "properties": { "magmom": 0.503 },
        "label": "O",
        "xyz": [12.491278947553983, 6.449700234900001, 2.7625259999999994]
      },
      {
        "species": [{ "element": "O", "occu": 1 }],
        "abc": [0.75, 0.21815299999999901, 0.81971],
        "properties": { "magmom": 0.503 },
        "label": "O",
        "xyz": [3.7944699475539827, 7.7715147651, 2.7625259999999994]
      },
      {
        "species": [{ "element": "O", "occu": 1 }],
        "abc": [0.25, 0.2798, 0.575212],
        "properties": { "magmom": 0.535 },
        "label": "O",
        "xyz": [4.8667343164, 5.45347568172, 0.9208419999999997]
      },
      {
        "species": [{ "element": "O", "occu": 1 }],
        "abc": [0.25, 0.7798, 0.924787999999999],
        "properties": { "magmom": 0.535 },
        "label": "O",
        "xyz": [13.5635433164, 8.767739318279991, 0.9208419999999997]
      },
      {
        "species": [{ "element": "O", "occu": 1 }],
        "abc": [0.75, 0.7202000000000001, 0.424788],
        "properties": { "magmom": 0.535 },
        "label": "O",
        "xyz": [12.526883683600001, 4.02733431828, 2.7625259999999994]
      },
      {
        "species": [{ "element": "O", "occu": 1 }],
        "abc": [0.75, 0.2202, 0.075212],
        "properties": { "magmom": 0.535 },
        "label": "O",
        "xyz": [3.8300746836, 0.71307068172, 2.7625259999999994]
      },
      {
        "species": [{ "element": "O", "occu": 1 }],
        "abc": [0.25, 0.020017999999999002, 0.573985],
        "properties": { "magmom": 0.001 },
        "label": "O",
        "xyz": [0.34818544512398264, 5.441842727849999, 0.9208419999999997]
      },
      {
        "species": [{ "element": "O", "occu": 1 }],
        "abc": [0.25, 0.520018, 0.926014999999999],
        "properties": { "magmom": 0.001 },
        "label": "O",
        "xyz": [9.044994445123999, 8.77937227214999, 0.9208419999999997]
      },
      {
        "species": [{ "element": "O", "occu": 1 }],
        "abc": [0.75, 0.9799819999999991, 0.426015],
        "properties": { "magmom": 0.001 },
        "label": "O",
        "xyz": [17.045432554875983, 4.03896727215, 2.7625259999999994]
      },
      {
        "species": [{ "element": "O", "occu": 1 }],
        "abc": [0.75, 0.479981999999999, 0.073985],
        "properties": { "magmom": 0.001 },
        "label": "O",
        "xyz": [8.348623554875983, 0.7014377278499999, 2.7625259999999994]
      },
      {
        "species": [{ "element": "O", "occu": 1 }],
        "abc": [0.25, 0.861082999999999, 0.462285],
        "properties": { "magmom": 0.003 },
        "label": "O",
        "xyz": [14.977348768293984, 4.38283625085, 0.9208419999999997]
      },
      {
        "species": [{ "element": "O", "occu": 1 }],
        "abc": [0.25, 0.361083, 0.037715],
        "properties": { "magmom": 0.003 },
        "label": "O",
        "xyz": [6.280539768294, 0.35756874915, 0.9208419999999997]
      },
      {
        "species": [{ "element": "O", "occu": 1 }],
        "abc": [0.75, 0.138916999999999, 0.537714999999999],
        "properties": { "magmom": 0.003 },
        "label": "O",
        "xyz": [2.4162692317059826, 5.097973749149991, 2.7625259999999994]
      },
      {
        "species": [{ "element": "O", "occu": 1 }],
        "abc": [0.75, 0.638917, 0.962285],
        "properties": { "magmom": 0.003 },
        "label": "O",
        "xyz": [11.113078231706, 9.123241250849999, 2.7625259999999994]
      }
    ]
  },
  "task_ids": null,
  "uncorrected_energy_per_atom": null,
  "energy_per_atom": -8.132804411818183,
  "formation_energy_per_atom": -2.056858389090909,
  "energy_above_hull": 0.12811698181818001,
  "is_stable": false,
  "equilibrium_reaction_energy_per_atom": null,
  "decomposes_to": null,
  "xas": null,
  "grain_boundaries": null,
  "band_gap": 0.6103000000000001,
  "cbm": null,
  "vbm": null,
  "efermi": -0.67094558,
  "is_gap_direct": null,
  "is_metal": null,
  "es_source_calc_id": null,
  "bandstructure": null,
  "dos": null,
  "dos_energy_up": null,
  "dos_energy_down": null,
  "is_magnetic": null,
  "ordering": null,
  "total_magnetization": 3.9997793,
  "total_magnetization_normalized_vol": null,
  "total_magnetization_normalized_formula_units": null,
  "num_magnetic_sites": null,
  "num_unique_magnetic_sites": null,
  "types_of_magnetic_species": null,
  "bulk_modulus": null,
  "shear_modulus": null,
  "universal_anisotropy": null,
  "homogeneous_poisson": null,
  "e_total": null,
  "e_ionic": null,
  "e_electronic": null,
  "n": null,
  "e_ij_max": null,
  "weighted_surface_energy_EV_PER_ANG2": null,
  "weighted_surface_energy": null,
  "weighted_work_function": null,
  "surface_anisotropy": null,
  "shape_factor": null,
  "has_reconstructed": null,
  "possible_species": null,
  "has_props": null,
  "theoretical": null,
  "database_IDs": null,
  "fields_not_requested": [
    "builder_meta",
    "nsites",
    "elements",
    "nelements",
    "composition",
    "composition_reduced",
    "chemsys",
    "symmetry",
    "property_name",
    "deprecated",
    "deprecation_reasons",
    "last_updated",
    "origins",
    "warnings",
    "task_ids",
    "uncorrected_energy_per_atom",
    "equilibrium_reaction_energy_per_atom",
    "decomposes_to",
    "xas",
    "grain_boundaries",
    "cbm",
    "vbm",
    "is_gap_direct",
    "is_metal",
    "es_source_calc_id",
    "bandstructure",
    "dos",
    "dos_energy_up",
    "dos_energy_down",
    "is_magnetic",
    "ordering",
    "total_magnetization_normalized_vol",
    "total_magnetization_normalized_formula_units",
    "num_magnetic_sites",
    "num_unique_magnetic_sites",
    "types_of_magnetic_species",
    "bulk_modulus",
    "shear_modulus",
    "universal_anisotropy",
    "homogeneous_poisson",
    "e_total",
    "e_ionic",
    "e_electronic",
    "n",
    "e_ij_max",
    "weighted_surface_energy_EV_PER_ANG2",
    "weighted_surface_energy",
    "weighted_work_function",
    "surface_anisotropy",
    "shape_factor",
    "has_reconstructed",
    "possible_species",
    "has_props",
    "theoretical",
    "database_IDs"
  ]
}
