{"builder_meta": null, "nsites": null, "elements": null, "nelements": null, "composition": null, "composition_reduced": null, "formula_pretty": "V3P", "formula_anonymous": "AB3", "chemsys": null, "volume": 408.2653821205707, "density": 5.980505970678611, "density_atomic": 12.758293191267834, "symmetry": null, "property_name": null, "material_id": "mp-18350", "deprecated": null, "deprecation_reasons": null, "last_updated": null, "origins": null, "warnings": null, "structure": {"@module": "pymatgen.core.structure", "@class": "Structure", "charge": 0, "lattice": {"matrix": [[4.72140799, -0.0, 0.0], [-0.0, 9.29898417, -0.00134522], [-0.0, 0.00134522, 9.29898417]], "pbc": [true, true, true], "a": 4.72140799, "b": 9.298984267301856, "c": 9.298984267301856, "alpha": 90.0, "beta": 90.0, "gamma": 90.0, "volume": 408.2653821205707}, "properties": {}, "sites": [{"species": [{"element": "V", "occu": 1}], "abc": [0.51311032, 0.1021926, 0.26010661], "properties": {"magmom": -0.0}, "label": "V", "xyz": [2.422603164599457, 0.9506372703050462, 2.418589777372992]}, {"species": [{"element": "V", "occu": 1}], "abc": [0.01311032, 0.73989339, 0.6021926], "properties": {"magmom": -0.0}, "label": "V", "xyz": [0.06189916959945681, 6.881067002627009, 5.5987841353050465]}, {"species": [{"element": "V", "occu": 1}], "abc": [0.01311032, 0.76010661, 0.897807399999999], "properties": {"magmom": -0.0}, "label": "V", "xyz": [0.06189916959945681, 7.069427082372992, 8.347674289694945]}, {"species": [{"element": "V", "occu": 1}], "abc": [0.51311032, 0.3978074, 0.23989339], "properties": {"magmom": -0.0}, "label": "V", "xyz": [2.422603164599457, 3.6995274246949537, 2.2302296976270086]}, {"species": [{"element": "V", "occu": 1}], "abc": [0.48688968, 0.897807399999999, 0.73989339], "properties": {"magmom": -0.0}, "label": "V", "xyz": [2.2988048254005435, 8.349692119694945, 6.879049172627009]}, {"species": [{"element": "V", "occu": 1}], "abc": [0.98688968, 0.26010661, 0.3978074], "properties": {"magmom": -0.0}, "label": "V", "xyz": [4.659508820400544, 2.419262387372992, 3.6988548146949536]}, {"species": [{"element": "V", "occu": 1}], "abc": [0.98688968, 0.23989339, 0.1021926], "properties": {"magmom": -0.0}, "label": "V", "xyz": [4.659508820400544, 2.2309023076270087, 0.9499646603050462]}, {"species": [{"element": "V", "occu": 1}], "abc": [0.48688968, 0.6021926, 0.76010661], "properties": {"magmom": -0.0}, "label": "V", "xyz": [2.2988048254005435, 5.600801965305046, 7.067409252372992]}, {"species": [{"element": "V", "occu": 1}], "abc": [0.240244799999999, 0.05429325, 0.5345929700000001], "properties": {"magmom": 0.0}, "label": "V", "xyz": [1.1342937182759474, 0.505591217442956, 4.971098529057521]}, {"species": [{"element": "V", "occu": 1}], "abc": [0.740244799999999, 0.46540703, 0.55429325], "properties": {"magmom": 0.0}, "label": "V", "xyz": [3.4949977132759478, 4.32855825094248, 5.153738082442955]}, {"species": [{"element": "V", "occu": 1}], "abc": [0.740244799999999, 0.03459297, 0.94570675], "properties": {"magmom": 0.0}, "label": "V", "xyz": [3.4949977132759478, 0.3229516640575199, 8.794065562557044]}, {"species": [{"element": "V", "occu": 1}], "abc": [0.240244799999999, 0.44570675, 0.96540703], "properties": {"magmom": 0.0}, "label": "V", "xyz": [1.1342937182759474, 4.145918697557044, 8.976705115942481]}, {"species": [{"element": "V", "occu": 1}], "abc": [0.7597552, 0.94570675, 0.46540703], "properties": {"magmom": 0.0}, "label": "V", "xyz": [3.5871142717240483, 8.794738172557045, 4.3265404209424805]}, {"species": [{"element": "V", "occu": 1}], "abc": [0.259755199999999, 0.5345929700000001, 0.44570675], "properties": {"magmom": 0.0}, "label": "V", "xyz": [1.2264102767240435, 4.9717711390575205, 4.143900867557044]}, {"species": [{"element": "V", "occu": 1}], "abc": [0.259755199999999, 0.96540703, 0.05429325], "properties": {"magmom": 0.0}, "label": "V", "xyz": [1.2264102767240435, 8.97737772594248, 0.503573387442956]}, {"species": [{"element": "V", "occu": 1}], "abc": [0.7597552, 0.55429325, 0.03459297], "properties": {"magmom": 0.0}, "label": "V", "xyz": [3.5871142717240483, 5.154410692442956, 0.3209338340575199]}, {"species": [{"element": "V", "occu": 1}], "abc": [0.26842471, 0.666882099999999, 0.15845807], "properties": {"magmom": -0.0}, "label": "V", "xyz": [1.267342570507433, 6.2015392521212735, 1.47260198140019]}, {"species": [{"element": "V", "occu": 1}], "abc": [0.76842471, 0.84154193, 0.1668821], "properties": {"magmom": -0.0}, "label": "V", "xyz": [3.628046565507433, 7.8257095785998105, 1.5507019471212826]}, {"species": [{"element": "V", "occu": 1}], "abc": [0.76842471, 0.65845807, 0.333117899999999], "properties": {"magmom": -0.0}, "label": "V", "xyz": [3.628046565507433, 6.123439286400191, 3.096772307878709]}, {"species": [{"element": "V", "occu": 1}], "abc": [0.26842471, 0.8331179, 0.34154193], "properties": {"magmom": -0.0}, "label": "V", "xyz": [1.267342570507433, 7.747609612878717, 3.1748722735998105]}, {"species": [{"element": "V", "occu": 1}], "abc": [0.73157529, 0.333117899999999, 0.84154193], "properties": {"magmom": -0.0}, "label": "V", "xyz": [3.4540654194925673, 3.098790137878709, 7.82503696859981]}, {"species": [{"element": "V", "occu": 1}], "abc": [0.23157529000000002, 0.15845807, 0.8331179], "properties": {"magmom": -0.0}, "label": "V", "xyz": [1.0933614244925673, 1.47461981140019, 7.746937002878718]}, {"species": [{"element": "V", "occu": 1}], "abc": [0.23157529000000002, 0.34154193, 0.666882099999999], "properties": {"magmom": -0.0}, "label": "V", "xyz": [1.0933614244925673, 3.1768901035998103, 6.200866642121274]}, {"species": [{"element": "V", "occu": 1}], "abc": [0.73157529, 0.1668821, 0.65845807], "properties": {"magmom": -0.0}, "label": "V", "xyz": [3.4540654194925673, 1.5527197771212826, 6.1227666764001905]}, {"species": [{"element": "P", "occu": 1}], "abc": [0.98435922, 0.5419076700000001, 0.77015128], "properties": {"magmom": 0.0}, "label": "P", "xyz": [4.6475614863381685, 5.040226867836466, 7.1608955761894]}, {"species": [{"element": "P", "occu": 1}], "abc": [0.48435922000000003, 0.22984872, 0.04190667], "properties": {"magmom": 0.0}, "label": "P", "xyz": [2.2868574913381683, 2.13741598246538, 0.3893802638522955]}, {"species": [{"element": "P", "occu": 1}], "abc": [0.48435922000000003, 0.27015128, 0.45809233], "properties": {"magmom": 0.0}, "label": "P", "xyz": [2.2868574913381683, 2.5127487111894005, 4.259429912163534]}, {"species": [{"element": "P", "occu": 1}], "abc": [0.98435922, 0.95809233, 0.72984872], "properties": {"magmom": 0.0}, "label": "P", "xyz": [4.6475614863381685, 8.910267217163536, 6.785562848810601]}, {"species": [{"element": "P", "occu": 1}], "abc": [0.01564078, 0.45809233, 0.22984872], "properties": {"magmom": 0.0}, "label": "P", "xyz": [0.07384650366183221, 4.2601025221635345, 2.1367433738106]}, {"species": [{"element": "P", "occu": 1}], "abc": [0.51564078, 0.77015128, 0.95809233], "properties": {"magmom": 0.0}, "label": "P", "xyz": [2.4345504986618325, 7.1629134061894, 8.908249387163535]}, {"species": [{"element": "P", "occu": 1}], "abc": [0.51564078, 0.72984872, 0.5419076700000001], "properties": {"magmom": 0.0}, "label": "P", "xyz": [2.4345504986618325, 6.787580678810601, 5.038209037836467]}, {"species": [{"element": "P", "occu": 1}], "abc": [0.01564078, 0.04190667, 0.27015128], "properties": {"magmom": 0.0}, "label": "P", "xyz": [0.07384650366183221, 0.39005287385229553, 2.5120761025346203]}]}, "task_ids": null, "uncorrected_energy_per_atom": null, "energy_per_atom": -13.531835475625, "formation_energy_per_atom": -0.7141346001190471, "energy_above_hull": 0.0, "is_stable": true, "equilibrium_reaction_energy_per_atom": null, "decomposes_to": null, "xas": null, "grain_boundaries": null, "band_gap": 0.0, "cbm": null, "vbm": null, "efermi": 7.66206983, "is_gap_direct": null, "is_metal": null, "es_source_calc_id": null, "bandstructure": null, "dos": null, "dos_energy_up": null, "dos_energy_down": null, "is_magnetic": null, "ordering": null, "total_magnetization": 1.3e-06, "total_magnetization_normalized_vol": null, "total_magnetization_normalized_formula_units": null, "num_magnetic_sites": null, "num_unique_magnetic_sites": null, "types_of_magnetic_species": null, "bulk_modulus": null, "shear_modulus": null, "universal_anisotropy": null, "homogeneous_poisson": null, "e_total": null, "e_ionic": null, "e_electronic": null, "n": null, "e_ij_max": null, "weighted_surface_energy_EV_PER_ANG2": null, "weighted_surface_energy": null, "weighted_work_function": null, "surface_anisotropy": null, "shape_factor": null, "has_reconstructed": null, "possible_species": null, "has_props": null, "theoretical": null, "database_IDs": null, "fields_not_requested": ["builder_meta", "nsites", "elements", "nelements", "composition", "composition_reduced", "chemsys", "symmetry", "property_name", "deprecated", "deprecation_reasons", "last_updated", "origins", "warnings", "task_ids", "uncorrected_energy_per_atom", "equilibrium_reaction_energy_per_atom", "decomposes_to", "xas", "grain_boundaries", "cbm", "vbm", "is_gap_direct", "is_metal", "es_source_calc_id", "bandstructure", "dos", "dos_energy_up", "dos_energy_down", "is_magnetic", "ordering", "total_magnetization_normalized_vol", "total_magnetization_normalized_formula_units", "num_magnetic_sites", "num_unique_magnetic_sites", "types_of_magnetic_species", "bulk_modulus", "shear_modulus", "universal_anisotropy", "homogeneous_poisson", "e_total", "e_ionic", "e_electronic", "n", "e_ij_max", "weighted_surface_energy_EV_PER_ANG2", "weighted_surface_energy", "weighted_work_function", "surface_anisotropy", "shape_factor", "has_reconstructed", "possible_species", "has_props", "theoretical", "database_IDs"]}