{"builder_meta": null, "nsites": null, "elements": null, "nelements": null, "composition": null, "composition_reduced": null, "formula_pretty": "V3Pd", "formula_anonymous": "AB3", "chemsys": null, "volume": 111.19745942128147, "density": 7.742724020703577, "density_atomic": 13.899682427660183, "symmetry": null, "property_name": null, "material_id": "mp-1664", "deprecated": null, "deprecation_reasons": null, "last_updated": null, "origins": null, "warnings": null, "structure": {"@module": "pymatgen.core.structure", "@class": "Structure", "charge": 0, "lattice": {"matrix": [[4.80838592, -0.00414421, -0.00420544], [-0.00414422, 4.80839189, -0.0041889], [-0.00420841, -0.00419189, 4.80946399]], "pbc": [true, true, true], "a": 4.80838954493668, "b": 4.808395500503301, "c": 4.809467658043167, "alpha": 90.09980927351653, "beta": 90.10020339718623, "gamma": 90.09871948319847, "volume": 111.19745942128147}, "properties": {}, "sites": [{"species": [{"element": "V", "occu": 1}], "abc": [0.49909331, 0.25011661, 0.0009161600000000001], "properties": {"magmom": 0.921}, "label": "V", "xyz": [2.3987928507357954, 1.2005864911501154, 0.0012596180918430008]}, {"species": [{"element": "V", "occu": 1}], "abc": [0.50090616, 0.74988504, -0.0009098800000000001], "properties": {"magmom": -0.921}, "label": "V", "xyz": [2.405446267552889, 3.6036690985678654, -0.0096237593407876]}, {"species": [{"element": "V", "occu": 1}], "abc": [0.249874899999999, 0.00091135, 0.49908063], "properties": {"magmom": 0.923}, "label": "V", "xyz": [1.1993908381724079, 0.0012545027875318039, 2.3992556666380427]}, {"species": [{"element": "V", "occu": 1}], "abc": [0.75012436, -0.00092088, 0.50091206], "properties": {"magmom": -0.923}, "label": "V", "xyz": [3.6047831838799005, -0.009636393052812199, 2.405967769212433]}, {"species": [{"element": "V", "occu": 1}], "abc": [0.00081893, 0.49918663, 0.24998778], "properties": {"magmom": 0.881}, "label": "V", "xyz": [0.0008169411924572, 2.399233628195432, 1.200212739014656]}, {"species": [{"element": "V", "occu": 1}], "abc": [-0.00081697, 0.50082279, 0.75001205], "properties": {"magmom": -0.881}, "label": "V", "xyz": [-0.0091601850791767, 2.405011659446142, 3.6050614856743657]}, {"species": [{"element": "Pd", "occu": 1}], "abc": [0.50000412, 0.49999273, 0.50001291], "properties": {"magmom": -0.0}, "label": "Pd", "xyz": [2.400036431347897, 2.399992866799515, 2.4005969283070017]}, {"species": [{"element": "Pd", "occu": 1}], "abc": [-4.8200000000000004e-06, 7.719999999999999e-06, -1.2730000000000002e-05], "properties": {"magmom": -0.0}, "label": "Pd", "xyz": [-2.3154840453500003e-05, 3.71941232427e-05, -6.12365446799e-05]}]}, "task_ids": null, "uncorrected_energy_per_atom": null, "energy_per_atom": -16.46118668125, "formation_energy_per_atom": -0.15389148124999902, "energy_above_hull": 0.0, "is_stable": true, "equilibrium_reaction_energy_per_atom": null, "decomposes_to": null, "xas": null, "grain_boundaries": null, "band_gap": 0.0, "cbm": null, "vbm": null, "efermi": 6.06497912, "is_gap_direct": null, "is_metal": null, "es_source_calc_id": null, "bandstructure": null, "dos": null, "dos_energy_up": null, "dos_energy_down": null, "is_magnetic": null, "ordering": null, "total_magnetization": 9.300000000000001e-05, "total_magnetization_normalized_vol": null, "total_magnetization_normalized_formula_units": null, "num_magnetic_sites": null, "num_unique_magnetic_sites": null, "types_of_magnetic_species": null, "bulk_modulus": null, "shear_modulus": null, "universal_anisotropy": null, "homogeneous_poisson": null, "e_total": null, "e_ionic": null, "e_electronic": null, "n": null, "e_ij_max": null, "weighted_surface_energy_EV_PER_ANG2": null, "weighted_surface_energy": null, "weighted_work_function": null, "surface_anisotropy": null, "shape_factor": null, "has_reconstructed": null, "possible_species": null, "has_props": null, "theoretical": null, "database_IDs": null, "fields_not_requested": ["builder_meta", "nsites", "elements", "nelements", "composition", "composition_reduced", "chemsys", "symmetry", "property_name", "deprecated", "deprecation_reasons", "last_updated", "origins", "warnings", "task_ids", "uncorrected_energy_per_atom", "equilibrium_reaction_energy_per_atom", "decomposes_to", "xas", "grain_boundaries", "cbm", "vbm", "is_gap_direct", "is_metal", "es_source_calc_id", "bandstructure", "dos", "dos_energy_up", "dos_energy_down", "is_magnetic", "ordering", "total_magnetization_normalized_vol", "total_magnetization_normalized_formula_units", "num_magnetic_sites", "num_unique_magnetic_sites", "types_of_magnetic_species", "bulk_modulus", "shear_modulus", "universal_anisotropy", "homogeneous_poisson", "e_total", "e_ionic", "e_electronic", "n", "e_ij_max", "weighted_surface_energy_EV_PER_ANG2", "weighted_surface_energy", "weighted_work_function", "surface_anisotropy", "shape_factor", "has_reconstructed", "possible_species", "has_props", "theoretical", "database_IDs"]}