{"builder_meta": null, "nsites": null, "elements": null, "nelements": null, "composition": null, "composition_reduced": null, "formula_pretty": "V3Re", "formula_anonymous": "AB3", "chemsys": null, "volume": 54.07826695263612, "density": 10.410375226171238, "density_atomic": 13.51956673815903, "symmetry": null, "property_name": null, "material_id": "mp-865385", "deprecated": null, "deprecation_reasons": null, "last_updated": null, "origins": null, "warnings": null, "structure": {"@module": "pymatgen.core.structure", "@class": "Structure", "charge": 0, "lattice": {"matrix": [[-1.08e-06, 3.00144856, 3.00144851], [3.0014476, -1.04e-06, 3.00144747], [3.0014485, 3.00144843, -9.4e-07]], "pbc": [true, true, true], "a": 4.244689224961995, "b": 4.244687810748423, "c": 4.244689125967012, "alpha": 60.000020719965036, "beta": 60.00002237315007, "gamma": 60.00002435698003, "volume": 54.07826695263613}, "properties": {}, "sites": [{"species": [{"element": "V", "occu": 1}], "abc": [-1.7000000000000001e-07, -9e-08, 1.3e-07], "properties": {"magmom": 0.0}, "label": "V", "xyz": [1.2005820459999994e-07, -1.200578657e-07, -7.803766412e-07]}, {"species": [{"element": "V", "occu": 1}], "abc": [0.50000085, 0.50000078, 0.50000054], "properties": {"magmom": 0.0}, "label": "V", "xyz": [3.0014514719104004, 3.001452147012617, 3.0014524123597526]}, {"species": [{"element": "V", "occu": 1}], "abc": [0.25000003, 0.25000001, 0.25000004], "properties": {"magmom": 0.003}, "label": "V", "xyz": [1.5007239050723835, 1.5007241976013836, 1.5007238800578921]}, {"species": [{"element": "Re", "occu": 1}], "abc": [0.74999929, 0.74999929, 0.74999929], "properties": {"magmom": 0.0}, "label": "Re", "xyz": [4.502167002944535, 4.502167700443875, 4.5021670179445215]}]}, "task_ids": null, "uncorrected_energy_per_atom": null, "energy_per_atom": -23.9786085025, "formation_energy_per_atom": -0.308773028124999, "energy_above_hull": 0.0, "is_stable": true, "equilibrium_reaction_energy_per_atom": null, "decomposes_to": null, "xas": null, "grain_boundaries": null, "band_gap": 0.0, "cbm": null, "vbm": null, "efermi": 6.36230616, "is_gap_direct": null, "is_metal": null, "es_source_calc_id": null, "bandstructure": null, "dos": null, "dos_energy_up": null, "dos_energy_down": null, "is_magnetic": null, "ordering": null, "total_magnetization": 0.004233199999999, "total_magnetization_normalized_vol": null, "total_magnetization_normalized_formula_units": null, "num_magnetic_sites": null, "num_unique_magnetic_sites": null, "types_of_magnetic_species": null, "bulk_modulus": null, "shear_modulus": null, "universal_anisotropy": null, "homogeneous_poisson": null, "e_total": null, "e_ionic": null, "e_electronic": null, "n": null, "e_ij_max": null, "weighted_surface_energy_EV_PER_ANG2": null, "weighted_surface_energy": null, "weighted_work_function": null, "surface_anisotropy": null, "shape_factor": null, "has_reconstructed": null, "possible_species": null, "has_props": null, "theoretical": null, "database_IDs": null, "fields_not_requested": ["builder_meta", "nsites", "elements", "nelements", "composition", "composition_reduced", "chemsys", "symmetry", "property_name", "deprecated", "deprecation_reasons", "last_updated", "origins", "warnings", "task_ids", "uncorrected_energy_per_atom", "equilibrium_reaction_energy_per_atom", "decomposes_to", "xas", "grain_boundaries", "cbm", "vbm", "is_gap_direct", "is_metal", "es_source_calc_id", "bandstructure", "dos", "dos_energy_up", "dos_energy_down", "is_magnetic", "ordering", "total_magnetization_normalized_vol", "total_magnetization_normalized_formula_units", "num_magnetic_sites", "num_unique_magnetic_sites", "types_of_magnetic_species", "bulk_modulus", "shear_modulus", "universal_anisotropy", "homogeneous_poisson", "e_total", "e_ionic", "e_electronic", "n", "e_ij_max", "weighted_surface_energy_EV_PER_ANG2", "weighted_surface_energy", "weighted_work_function", "surface_anisotropy", "shape_factor", "has_reconstructed", "possible_species", "has_props", "theoretical", "database_IDs"]}