{"builder_meta": null, "nsites": null, "elements": null, "nelements": null, "composition": null, "composition_reduced": null, "formula_pretty": "V3Rh5", "formula_anonymous": "A3B5", "chemsys": null, "volume": 108.78235143832615, "density": 10.186983941066156, "density_atomic": 13.597793929790768, "symmetry": null, "property_name": null, "material_id": "mp-1216486", "deprecated": null, "deprecation_reasons": null, "last_updated": null, "origins": null, "warnings": null, "structure": {"@module": "pymatgen.core.structure", "@class": "Structure", "charge": 0, "lattice": {"matrix": [[2.71989573, -4.65719402, 0.0], [2.71989573, 4.65719402, 0.0], [0.0, 0.0, 4.29389935]], "pbc": [true, true, true], "a": 5.393263290624332, "b": 5.393263290624332, "c": 4.29389935, "alpha": 90.0, "beta": 90.0, "gamma": 119.42841088507629, "volume": 108.78235143832615}, "properties": {}, "sites": [{"species": [{"element": "V", "occu": 1}], "abc": [0.90922583, 0.09077417, -0.0], "properties": {"magmom": 0.927}, "label": "V", "xyz": [2.71989573, -3.811688176611074, 0.0]}, {"species": [{"element": "V", "occu": 1}], "abc": [0.5829324100000001, 0.41706759, 0.5], "properties": {"magmom": 0.724}, "label": "V", "xyz": [2.71989573, -0.7724646478323769, 2.146949675]}, {"species": [{"element": "V", "occu": 1}], "abc": [0.08770132, 0.91229868, 0.5], "properties": {"magmom": 1.295}, "label": "V", "xyz": [2.71989573, 3.8403098938997875, 2.146949675]}, {"species": [{"element": "Rh", "occu": 1}], "abc": [0.41615259, 0.5838474100000001, -0.0], "properties": {"magmom": -0.194}, "label": "Rh", "xyz": [2.71989573, 0.780987312888977, 0.0]}, {"species": [{"element": "Rh", "occu": 1}], "abc": [0.58955453, 0.90989062, 0.5], "properties": {"magmom": -0.162}, "label": "Rh", "xyz": [4.07833446085421, 1.491867322738182, 2.146949675]}, {"species": [{"element": "Rh", "occu": 1}], "abc": [0.09010938, 0.41044547000000003, 0.5], "properties": {"magmom": -0.162}, "label": "Rh", "xyz": [1.3614569991457905, 1.491867322738182, 2.146949675]}, {"species": [{"element": "Rh", "occu": 1}], "abc": [0.41381048000000004, 0.08948654, 0.0], "properties": {"magmom": -0.132}, "label": "Rh", "xyz": [1.3689154156197247, -1.510439513910839, 0.0]}, {"species": [{"element": "Rh", "occu": 1}], "abc": [0.91051346, 0.58618952, -0.0], "properties": {"magmom": -0.132}, "label": "Rh", "xyz": [4.070876044380276, -1.5104395139108386, 0.0]}]}, "task_ids": null, "uncorrected_energy_per_atom": null, "energy_per_atom": -20.77319737, "formation_energy_per_atom": -0.404463577499996, "energy_above_hull": 0.019344521874998, "is_stable": false, "equilibrium_reaction_energy_per_atom": null, "decomposes_to": null, "xas": null, "grain_boundaries": null, "band_gap": 0.0, "cbm": null, "vbm": null, "efermi": 6.8048563, "is_gap_direct": null, "is_metal": null, "es_source_calc_id": null, "bandstructure": null, "dos": null, "dos_energy_up": null, "dos_energy_down": null, "is_magnetic": null, "ordering": null, "total_magnetization": 2.5494995, "total_magnetization_normalized_vol": null, "total_magnetization_normalized_formula_units": null, "num_magnetic_sites": null, "num_unique_magnetic_sites": null, "types_of_magnetic_species": null, "bulk_modulus": null, "shear_modulus": null, "universal_anisotropy": null, "homogeneous_poisson": null, "e_total": null, "e_ionic": null, "e_electronic": null, "n": null, "e_ij_max": null, "weighted_surface_energy_EV_PER_ANG2": null, "weighted_surface_energy": null, "weighted_work_function": null, "surface_anisotropy": null, "shape_factor": null, "has_reconstructed": null, "possible_species": null, "has_props": null, "theoretical": null, "database_IDs": null, "fields_not_requested": ["builder_meta", "nsites", "elements", "nelements", "composition", "composition_reduced", "chemsys", "symmetry", "property_name", "deprecated", "deprecation_reasons", "last_updated", "origins", "warnings", "task_ids", "uncorrected_energy_per_atom", "equilibrium_reaction_energy_per_atom", "decomposes_to", "xas", "grain_boundaries", "cbm", "vbm", "is_gap_direct", "is_metal", "es_source_calc_id", "bandstructure", "dos", "dos_energy_up", "dos_energy_down", "is_magnetic", "ordering", "total_magnetization_normalized_vol", "total_magnetization_normalized_formula_units", "num_magnetic_sites", "num_unique_magnetic_sites", "types_of_magnetic_species", "bulk_modulus", "shear_modulus", "universal_anisotropy", "homogeneous_poisson", "e_total", "e_ionic", "e_electronic", "n", "e_ij_max", "weighted_surface_energy_EV_PER_ANG2", "weighted_surface_energy", "weighted_work_function", "surface_anisotropy", "shape_factor", "has_reconstructed", "possible_species", "has_props", "theoretical", "database_IDs"]}