{"builder_meta": null, "nsites": null, "elements": null, "nelements": null, "composition": null, "composition_reduced": null, "formula_pretty": "V3S4", "formula_anonymous": "A3B4", "chemsys": null, "volume": 109.40678090429881, "density": 4.266205343103994, "density_atomic": 15.629540129185544, "symmetry": null, "property_name": null, "material_id": "mp-1081", "deprecated": null, "deprecation_reasons": null, "last_updated": null, "origins": null, "warnings": null, "structure": {"@module": "pymatgen.core.structure", "@class": "Structure", "charge": 0, "lattice": {"matrix": [[3.16038455, -0.0, -0.82327047], [-0.63693999, 5.27233815, -2.44509115], [0.01743856, 0.03395639, 6.54464378]], "pbc": [true, true, true], "a": 3.265854370704965, "b": 5.8465128795389605, "c": 6.544755102132501, "alpha": 114.44489979588238, "beta": 104.44801601569173, "gamma": 90.00001189320713, "volume": 109.40678090429881}, "properties": {}, "sites": [{"species": [{"element": "V", "occu": 1}], "abc": [-0.0, 0.0, 0.0], "properties": {"magmom": 1.94}, "label": "V", "xyz": [0.0, 0.0, 0.0]}, {"species": [{"element": "V", "occu": 1}], "abc": [0.25770103, 0.31958656, 0.51540406], "properties": {"magmom": -0.029}, "label": "V", "xyz": [0.6198647980251055, 1.7024696737842075, 2.3795600578632192]}, {"species": [{"element": "V", "occu": 1}], "abc": [0.74229897, 0.68041344, 0.48459594], "properties": {"magmom": -0.029}, "label": "V", "xyz": [1.9210183219748942, 3.6038248662157932, 0.8967221021367813]}, {"species": [{"element": "S", "occu": 1}], "abc": [0.35871117, 0.01639354, 0.71742134], "properties": {"magmom": -0.039}, "label": "S", "xyz": [1.1357343334596293, 0.11079332517091361, 4.359867097378944]}, {"species": [{"element": "S", "occu": 1}], "abc": [0.64128883, 0.9836064600000001, 0.28257866], "properties": {"magmom": -0.039}, "label": "S", "xyz": [1.4051487865403707, 5.195501214829088, -1.0835849373789448]}, {"species": [{"element": "S", "occu": 1}], "abc": [0.88891657, 0.54812258, 0.7778321300000001], "properties": {"magmom": -0.026000000000000002}, "label": "S", "xyz": [2.473761275711952, 2.916299960571238, 3.0186057796407972]}, {"species": [{"element": "S", "occu": 1}], "abc": [0.11108343, 0.45187742000000003, 0.22216787000000002], "properties": {"magmom": -0.026000000000000002}, "label": "S", "xyz": [0.06712184428804781, 2.3899945794287625, 0.2576763803592035]}]}, "task_ids": null, "uncorrected_energy_per_atom": null, "energy_per_atom": -7.614397454285708, "formation_energy_per_atom": -1.356517957142849, "energy_above_hull": 0.0, "is_stable": true, "equilibrium_reaction_energy_per_atom": null, "decomposes_to": null, "xas": null, "grain_boundaries": null, "band_gap": 0.0, "cbm": null, "vbm": null, "efermi": 6.74420759, "is_gap_direct": null, "is_metal": null, "es_source_calc_id": null, "bandstructure": null, "dos": null, "dos_energy_up": null, "dos_energy_down": null, "is_magnetic": null, "ordering": null, "total_magnetization": 2.0155776, "total_magnetization_normalized_vol": null, "total_magnetization_normalized_formula_units": null, "num_magnetic_sites": null, "num_unique_magnetic_sites": null, "types_of_magnetic_species": null, "bulk_modulus": null, "shear_modulus": null, "universal_anisotropy": null, "homogeneous_poisson": null, "e_total": null, "e_ionic": null, "e_electronic": null, "n": null, "e_ij_max": null, "weighted_surface_energy_EV_PER_ANG2": null, "weighted_surface_energy": null, "weighted_work_function": null, "surface_anisotropy": null, "shape_factor": null, "has_reconstructed": null, "possible_species": null, "has_props": null, "theoretical": null, "database_IDs": null, "fields_not_requested": ["builder_meta", "nsites", "elements", "nelements", "composition", "composition_reduced", "chemsys", "symmetry", "property_name", "deprecated", "deprecation_reasons", "last_updated", "origins", "warnings", "task_ids", "uncorrected_energy_per_atom", "equilibrium_reaction_energy_per_atom", "decomposes_to", "xas", "grain_boundaries", "cbm", "vbm", "is_gap_direct", "is_metal", "es_source_calc_id", "bandstructure", "dos", "dos_energy_up", "dos_energy_down", "is_magnetic", "ordering", "total_magnetization_normalized_vol", "total_magnetization_normalized_formula_units", "num_magnetic_sites", "num_unique_magnetic_sites", "types_of_magnetic_species", "bulk_modulus", "shear_modulus", "universal_anisotropy", "homogeneous_poisson", "e_total", "e_ionic", "e_electronic", "n", "e_ij_max", "weighted_surface_energy_EV_PER_ANG2", "weighted_surface_energy", "weighted_work_function", "surface_anisotropy", "shape_factor", "has_reconstructed", "possible_species", "has_props", "theoretical", "database_IDs"]}