{
  "builder_meta": null,
  "nsites": null,
  "elements": null,
  "nelements": null,
  "composition": null,
  "composition_reduced": null,
  "formula_pretty": "V3S5",
  "formula_anonymous": "A3B5",
  "chemsys": null,
  "volume": 277.01763135937836,
  "density": 3.75425185671058,
  "density_atomic": 17.313601959961147,
  "symmetry": null,
  "property_name": null,
  "material_id": "mp-1216498",
  "deprecated": null,
  "deprecation_reasons": null,
  "last_updated": null,
  "origins": null,
  "warnings": null,
  "structure": {
    "@module": "pymatgen.core.structure",
    "@class": "Structure",
    "charge": 0,
    "lattice": {
      "matrix": [
        [5.00923242, -2.90275771, -0.05256646],
        [-1.59382158, -2.87906782, -5.78898359],
        [0.01798878, 5.72914487, -5.78013148]
      ],
      "pbc": [true, true, true],
      "a": 5.7897474032344824,
      "b": 6.6589510995593395,
      "c": 8.138387092276957,
      "alpha": 71.7872959971092,
      "beta": 110.15620170867368,
      "gamma": 88.99276726112576,
      "volume": 277.01763135937836
    },
    "properties": {},
    "sites": [
      {
        "species": [{ "element": "V", "occu": 1 }],
        "abc": [0.781119799999999, 0.42221945, 0.58227861],
        "properties": { "magmom": -1.097 },
        "label": "V",
        "xyz": [3.2503426369721757, -0.14704144196452296, -5.850929093942376]
      },
      {
        "species": [{ "element": "V", "occu": 1 }],
        "abc": [0.4188802, 0.17778055, 0.81772139],
        "properties": { "magmom": -1.097 },
        "label": "V",
        "xyz": [1.8296276110278191, 2.957094315964526, -5.777724884057624]
      },
      {
        "species": [{ "element": "V", "occu": 1 }],
        "abc": [0.6000000000000001, 0.8, 0.2],
        "properties": { "magmom": 1.588 },
        "label": "V",
        "xyz": [1.7340799440000003, -2.8990799080000005, -5.818753044]
      },
      {
        "species": [{ "element": "V", "occu": 1 }],
        "abc": [0.98574251, 0.01566433, 0.9695022600000001],
        "properties": { "magmom": -1.065 },
        "label": "V",
        "xyz": [4.930287354538576, 2.647948559930293, -5.7463480764977035]
      },
      {
        "species": [{ "element": "V", "occu": 1 }],
        "abc": [0.21425749, 0.58433567, 0.43049774],
        "properties": { "magmom": -1.065 },
        "label": "V",
        "xyz": [0.14968289346142455, 0.1621043140697065, -5.882305901502296]
      },
      {
        "species": [{ "element": "V", "occu": 1 }],
        "abc": [0.1, 0.30000000000000004, 0.2],
        "properties": { "magmom": 2.101 },
        "label": "V",
        "xyz": [
          0.026374524000000003, -0.008167143000000099, -2.8979780190000004
        ]
      },
      {
        "species": [{ "element": "S", "occu": 1 }],
        "abc": [0.71894737, 0.14894252, 0.09840443],
        "properties": { "magmom": 0.023 },
        "label": "S",
        "xyz": [3.365756847164449, -1.9519724023936549, -1.4688088659149132]
      },
      {
        "species": [{ "element": "S", "occu": 1 }],
        "abc": [0.9109216800000001, 0.75000316, 0.50042504],
        "properties": { "magmom": 0.067 },
        "label": "S",
        "xyz": [3.376649226011725, -1.9364873419449196, -7.282162440827257]
      },
      {
        "species": [{ "element": "S", "occu": 1 }],
        "abc": [0.11420507, 0.34936786000000003, 0.8895676100000001],
        "properties": { "magmom": 0.043000000000000003 },
        "label": "S",
        "xyz": [0.03125194057736645, 3.7590982988178063, -7.170305910806733]
      },
      {
        "species": [{ "element": "S", "occu": 1 }],
        "abc": [0.30406568, 0.9413245100000001, 0.291765799999999],
        "properties": { "magmom": -0.03 },
        "label": "S",
        "xyz": [0.02808085503214358, -1.9211975655732205, -7.151740483027261]
      },
      {
        "species": [{ "element": "S", "occu": 1 }],
        "abc": [0.51784571, 0.54704336, 0.70471744],
        "properties": { "magmom": 0.08700000000000001 },
        "label": "S",
        "xyz": [1.734797013716533, 0.9592727449619343, -7.26740580930836]
      },
      {
        "species": [{ "element": "S", "occu": 1 }],
        "abc": [0.8959343200000001, 0.65867549, 0.108234199999999],
        "properties": { "magmom": -0.03 },
        "label": "S",
        "xyz": [3.4400790329678568, -3.876962250426791, -4.485765604972727]
      },
      {
        "species": [{ "element": "S", "occu": 1 }],
        "abc": [0.08579493, 0.25063214, 0.51043239],
        "properties": { "magmom": 0.043000000000000003 },
        "label": "S",
        "xyz": [0.03948588742263361, 1.9537122851821938, -4.405781607193267]
      },
      {
        "species": [{ "element": "S", "occu": 1 }],
        "abc": [0.28907832, 0.84999684, 0.89957496],
        "properties": { "magmom": 0.067 },
        "label": "S",
        "xyz": [0.10949944198827616, 1.8674723959449198, -10.135475127172743]
      },
      {
        "species": [{ "element": "S", "occu": 1 }],
        "abc": [0.48105263000000004, 0.45105748, 0.30159557],
        "properties": { "magmom": 0.023 },
        "label": "S",
        "xyz": [1.6962246208355511, -0.9671195936063455, -4.379713632085086]
      },
      {
        "species": [{ "element": "S", "occu": 1 }],
        "abc": [0.68215429, 0.05295664, 0.69528256],
        "properties": { "magmom": 0.08700000000000001 },
        "label": "S",
        "xyz": [3.345173234283468, 1.8507801290380663, -4.361248168691639]
      }
    ]
  },
  "task_ids": null,
  "uncorrected_energy_per_atom": null,
  "energy_per_atom": -7.21045613875,
  "formation_energy_per_atom": -1.2175166328124991,
  "energy_above_hull": 0.051154036874996006,
  "is_stable": false,
  "equilibrium_reaction_energy_per_atom": null,
  "decomposes_to": null,
  "xas": null,
  "grain_boundaries": null,
  "band_gap": 0.0,
  "cbm": null,
  "vbm": null,
  "efermi": 5.92614388,
  "is_gap_direct": null,
  "is_metal": null,
  "es_source_calc_id": null,
  "bandstructure": null,
  "dos": null,
  "dos_energy_up": null,
  "dos_energy_down": null,
  "is_magnetic": null,
  "ordering": null,
  "total_magnetization": 0.0842835,
  "total_magnetization_normalized_vol": null,
  "total_magnetization_normalized_formula_units": null,
  "num_magnetic_sites": null,
  "num_unique_magnetic_sites": null,
  "types_of_magnetic_species": null,
  "bulk_modulus": null,
  "shear_modulus": null,
  "universal_anisotropy": null,
  "homogeneous_poisson": null,
  "e_total": null,
  "e_ionic": null,
  "e_electronic": null,
  "n": null,
  "e_ij_max": null,
  "weighted_surface_energy_EV_PER_ANG2": null,
  "weighted_surface_energy": null,
  "weighted_work_function": null,
  "surface_anisotropy": null,
  "shape_factor": null,
  "has_reconstructed": null,
  "possible_species": null,
  "has_props": null,
  "theoretical": null,
  "database_IDs": null,
  "fields_not_requested": [
    "builder_meta",
    "nsites",
    "elements",
    "nelements",
    "composition",
    "composition_reduced",
    "chemsys",
    "symmetry",
    "property_name",
    "deprecated",
    "deprecation_reasons",
    "last_updated",
    "origins",
    "warnings",
    "task_ids",
    "uncorrected_energy_per_atom",
    "equilibrium_reaction_energy_per_atom",
    "decomposes_to",
    "xas",
    "grain_boundaries",
    "cbm",
    "vbm",
    "is_gap_direct",
    "is_metal",
    "es_source_calc_id",
    "bandstructure",
    "dos",
    "dos_energy_up",
    "dos_energy_down",
    "is_magnetic",
    "ordering",
    "total_magnetization_normalized_vol",
    "total_magnetization_normalized_formula_units",
    "num_magnetic_sites",
    "num_unique_magnetic_sites",
    "types_of_magnetic_species",
    "bulk_modulus",
    "shear_modulus",
    "universal_anisotropy",
    "homogeneous_poisson",
    "e_total",
    "e_ionic",
    "e_electronic",
    "n",
    "e_ij_max",
    "weighted_surface_energy_EV_PER_ANG2",
    "weighted_surface_energy",
    "weighted_work_function",
    "surface_anisotropy",
    "shape_factor",
    "has_reconstructed",
    "possible_species",
    "has_props",
    "theoretical",
    "database_IDs"
  ]
}
