{
  "builder_meta": null,
  "nsites": null,
  "elements": null,
  "nelements": null,
  "composition": null,
  "composition_reduced": null,
  "formula_pretty": "V3Sb2",
  "formula_anonymous": "A2B3",
  "chemsys": null,
  "volume": 177.83636167894196,
  "density": 7.401698053969762,
  "density_atomic": 17.783636167894194,
  "symmetry": null,
  "property_name": null,
  "material_id": "mp-29617",
  "deprecated": null,
  "deprecation_reasons": null,
  "last_updated": null,
  "origins": null,
  "warnings": null,
  "structure": {
    "@module": "pymatgen.core.structure",
    "@class": "Structure",
    "charge": 0,
    "lattice": {
      "matrix": [
        [5.13198772, 0.01093695, 5.44761343],
        [2.16915808, 4.65071431, 5.44749803],
        [0.01742642, 0.01094024, 7.48430461]
      ],
      "pbc": [true, true, true],
      "a": 7.484244093949799,
      "b": 7.483957853710959,
      "c": 7.484332893734252,
      "alpha": 43.15797972638868,
      "beta": 43.15772226643797,
      "gamma": 43.15814383230263,
      "volume": 177.83636167894196
    },
    "properties": {},
    "sites": [
      {
        "species": [{ "element": "V", "occu": 1 }],
        "abc": [0.60282228, 0.127482999999999, 0.6028104],
        "properties": { "magmom": 0.26 },
        "label": "V",
        "xyz": [3.3807121450258073, 0.6060749399674673, 8.490022795465649]
      },
      {
        "species": [{ "element": "V", "occu": 1 }],
        "abc": [0.60282126, 0.6028375300000001, 0.12743265],
        "properties": { "magmom": 0.269 },
        "label": "V",
        "xyz": [4.403541897682283, 2.811612297130447, 7.521638218810105]
      },
      {
        "species": [{ "element": "V", "occu": 1 }],
        "abc": [0.12745114, 0.60283762, 0.60281015],
        "properties": { "magmom": 0.268 },
        "label": "V",
        "xyz": [1.9722326025851333, 2.811614360401401, 8.489876073892491]
      },
      {
        "species": [{ "element": "V", "occu": 1 }],
        "abc": [0.87254902, 0.39716602, 0.39718108],
        "properties": { "magmom": 0.268 },
        "label": "V",
        "xyz": [5.346348181438609, 1.8609939740026944, 9.889495059267059]
      },
      {
        "species": [{ "element": "V", "occu": 1 }],
        "abc": [0.39717706, 0.87250963, 0.39718676],
        "properties": { "magmom": 0.26 },
        "label": "V",
        "xyz": [3.9378406516762126, 4.066482245979395, 9.889328275623908]
      },
      {
        "species": [{ "element": "V", "occu": 1 }],
        "abc": [0.39717396, 0.39716876, 0.8725568100000001],
        "properties": { "magmom": 0.27 },
        "label": "V",
        "xyz": [2.915019251746272, 1.861008288273812, 10.85770719178972]
      },
      {
        "species": [{ "element": "Sb", "occu": 1 }],
        "abc": [0.1097247, 0.10974556, 0.10972587],
        "properties": { "magmom": -0.003 },
        "label": "Sb",
        "xyz": [0.8030734102942941, 0.5127957272606373, 2.0167983059012284]
      },
      {
        "species": [{ "element": "Sb", "occu": 1 }],
        "abc": [0.89027113, 0.89024795, 0.8902769700000001],
        "properties": { "magmom": -0.003 },
        "label": "Sb",
        "xyz": [6.515463380972006, 4.15976557506669, 16.362580948713646]
      },
      {
        "species": [{ "element": "Sb", "occu": 1 }],
        "abc": [0.33110981, 0.33108262, 0.33111522],
        "properties": { "magmom": -0.017 },
        "label": "Sb",
        "xyz": [2.423192172104215, 1.5470144900372245, 6.085497335465151]
      },
      {
        "species": [{ "element": "Sb", "occu": 1 }],
        "abc": [0.66890064, 0.66892131, 0.66890509],
        "properties": { "magmom": -0.017 },
        "label": "Sb",
        "xyz": [4.8954425558893035, 3.125595623757415, 12.294149076989079]
      }
    ]
  },
  "task_ids": null,
  "uncorrected_energy_per_atom": null,
  "energy_per_atom": -18.9375394,
  "formation_energy_per_atom": -0.201267670000001,
  "energy_above_hull": 0.009333392999998,
  "is_stable": false,
  "equilibrium_reaction_energy_per_atom": null,
  "decomposes_to": null,
  "xas": null,
  "grain_boundaries": null,
  "band_gap": 0.0,
  "cbm": null,
  "vbm": null,
  "efermi": 7.98368848,
  "is_gap_direct": null,
  "is_metal": null,
  "es_source_calc_id": null,
  "bandstructure": null,
  "dos": null,
  "dos_energy_up": null,
  "dos_energy_down": null,
  "is_magnetic": null,
  "ordering": null,
  "total_magnetization": 1.7363286,
  "total_magnetization_normalized_vol": null,
  "total_magnetization_normalized_formula_units": null,
  "num_magnetic_sites": null,
  "num_unique_magnetic_sites": null,
  "types_of_magnetic_species": null,
  "bulk_modulus": null,
  "shear_modulus": null,
  "universal_anisotropy": null,
  "homogeneous_poisson": null,
  "e_total": null,
  "e_ionic": null,
  "e_electronic": null,
  "n": null,
  "e_ij_max": null,
  "weighted_surface_energy_EV_PER_ANG2": null,
  "weighted_surface_energy": null,
  "weighted_work_function": null,
  "surface_anisotropy": null,
  "shape_factor": null,
  "has_reconstructed": null,
  "possible_species": null,
  "has_props": null,
  "theoretical": null,
  "database_IDs": null,
  "fields_not_requested": [
    "builder_meta",
    "nsites",
    "elements",
    "nelements",
    "composition",
    "composition_reduced",
    "chemsys",
    "symmetry",
    "property_name",
    "deprecated",
    "deprecation_reasons",
    "last_updated",
    "origins",
    "warnings",
    "task_ids",
    "uncorrected_energy_per_atom",
    "equilibrium_reaction_energy_per_atom",
    "decomposes_to",
    "xas",
    "grain_boundaries",
    "cbm",
    "vbm",
    "is_gap_direct",
    "is_metal",
    "es_source_calc_id",
    "bandstructure",
    "dos",
    "dos_energy_up",
    "dos_energy_down",
    "is_magnetic",
    "ordering",
    "total_magnetization_normalized_vol",
    "total_magnetization_normalized_formula_units",
    "num_magnetic_sites",
    "num_unique_magnetic_sites",
    "types_of_magnetic_species",
    "bulk_modulus",
    "shear_modulus",
    "universal_anisotropy",
    "homogeneous_poisson",
    "e_total",
    "e_ionic",
    "e_electronic",
    "n",
    "e_ij_max",
    "weighted_surface_energy_EV_PER_ANG2",
    "weighted_surface_energy",
    "weighted_work_function",
    "surface_anisotropy",
    "shape_factor",
    "has_reconstructed",
    "possible_species",
    "has_props",
    "theoretical",
    "database_IDs"
  ]
}
