{"builder_meta": null, "nsites": null, "elements": null, "nelements": null, "composition": null, "composition_reduced": null, "formula_pretty": "V3Se4", "formula_anonymous": "A3B4", "chemsys": null, "volume": 127.5220958137311, "density": 6.102751891055088, "density_atomic": 18.21744225910444, "symmetry": null, "property_name": null, "material_id": "mp-22700", "deprecated": null, "deprecation_reasons": null, "last_updated": null, "origins": null, "warnings": null, "structure": {"@module": "pymatgen.core.structure", "@class": "Structure", "charge": 0, "lattice": {"matrix": [[3.31289435, -1e-08, -0.86605052], [-0.69000037, 5.52963418, -2.63945529], [0.040560599999999, 0.05091842, 6.92458832]], "pbc": [true, true, true], "a": 3.424224361436352, "b": 6.166009966188296, "c": 6.924894313218656, "alpha": 114.9677344353836, "beta": 104.3142958418316, "gamma": 89.99999119726766, "volume": 127.52209581373108}, "properties": {}, "sites": [{"species": [{"element": "V", "occu": 1}], "abc": [0.25516875, 0.3232056, 0.5103375], "properties": {"magmom": -0.15}, "label": "V", "xyz": [0.64303472178799, 1.8131943095424705, 2.4598013324551258]}, {"species": [{"element": "V", "occu": 1}], "abc": [0.7448312500000001, 0.6767944, 0.4896625], "properties": {"magmom": -0.15}, "label": "V", "xyz": [2.020419858212009, 3.7673582804575294, 0.9592811775448737]}, {"species": [{"element": "V", "occu": 1}], "abc": [-0.0, -0.0, -0.0], "properties": {"magmom": 2.088}, "label": "V", "xyz": [0.0, 0.0, 0.0]}, {"species": [{"element": "Se", "occu": 1}], "abc": [0.64178799, 0.98319749, 0.28357399], "properties": {"magmom": -0.043000000000000003}, "label": "Se", "xyz": [1.4592711052645786, 5.451161579500225, -1.1872934995546798]}, {"species": [{"element": "Se", "occu": 1}], "abc": [0.35821201, 0.01680251, 0.7164260100000001], "properties": {"magmom": -0.043000000000000003}, "label": "Se", "xyz": [1.2041834747354203, 0.12939101049977592, 4.606376009554681]}, {"species": [{"element": "Se", "occu": 1}], "abc": [0.10922961, 0.45497678, 0.21845723], "properties": {"magmom": -0.02}, "label": "Se", "xyz": [0.05679276760343268, 2.526978649691221, 0.21723715393948995]}, {"species": [{"element": "Se", "occu": 1}], "abc": [0.89077039, 0.54502322, 0.78154277], "properties": {"magmom": -0.02}, "label": "Se", "xyz": [2.606661812396567, 3.0535739403087794, 3.2018453560605096]}]}, "task_ids": null, "uncorrected_energy_per_atom": null, "energy_per_atom": -15.130187641428572, "formation_energy_per_atom": -0.91376362517857, "energy_above_hull": 0.0, "is_stable": true, "equilibrium_reaction_energy_per_atom": null, "decomposes_to": null, "xas": null, "grain_boundaries": null, "band_gap": 0.0, "cbm": null, "vbm": null, "efermi": 5.61580624, "is_gap_direct": null, "is_metal": null, "es_source_calc_id": null, "bandstructure": null, "dos": null, "dos_energy_up": null, "dos_energy_down": null, "is_magnetic": null, "ordering": null, "total_magnetization": 1.8925252, "total_magnetization_normalized_vol": null, "total_magnetization_normalized_formula_units": null, "num_magnetic_sites": null, "num_unique_magnetic_sites": null, "types_of_magnetic_species": null, "bulk_modulus": null, "shear_modulus": null, "universal_anisotropy": null, "homogeneous_poisson": null, "e_total": null, "e_ionic": null, "e_electronic": null, "n": null, "e_ij_max": null, "weighted_surface_energy_EV_PER_ANG2": null, "weighted_surface_energy": null, "weighted_work_function": null, "surface_anisotropy": null, "shape_factor": null, "has_reconstructed": null, "possible_species": null, "has_props": null, "theoretical": null, "database_IDs": null, "fields_not_requested": ["builder_meta", "nsites", "elements", "nelements", "composition", "composition_reduced", "chemsys", "symmetry", "property_name", "deprecated", "deprecation_reasons", "last_updated", "origins", "warnings", "task_ids", "uncorrected_energy_per_atom", "equilibrium_reaction_energy_per_atom", "decomposes_to", "xas", "grain_boundaries", "cbm", "vbm", "is_gap_direct", "is_metal", "es_source_calc_id", "bandstructure", "dos", "dos_energy_up", "dos_energy_down", "is_magnetic", "ordering", "total_magnetization_normalized_vol", "total_magnetization_normalized_formula_units", "num_magnetic_sites", "num_unique_magnetic_sites", "types_of_magnetic_species", "bulk_modulus", "shear_modulus", "universal_anisotropy", "homogeneous_poisson", "e_total", "e_ionic", "e_electronic", "n", "e_ij_max", "weighted_surface_energy_EV_PER_ANG2", "weighted_surface_energy", "weighted_work_function", "surface_anisotropy", "shape_factor", "has_reconstructed", "possible_species", "has_props", "theoretical", "database_IDs"]}