{"builder_meta": null, "nsites": null, "elements": null, "nelements": null, "composition": null, "composition_reduced": null, "formula_pretty": "V3Si", "formula_anonymous": "AB3", "chemsys": null, "volume": 102.74389070544781, "density": 5.847707741569444, "density_atomic": 12.842986338180976, "symmetry": null, "property_name": null, "material_id": "mp-2567", "deprecated": null, "deprecation_reasons": null, "last_updated": null, "origins": null, "warnings": null, "structure": {"@module": "pymatgen.core.structure", "@class": "Structure", "charge": 0, "lattice": {"matrix": [[4.68366958, 0.0, -0.0], [0.0, 4.68364206, -0.0], [0.0, 0.0, 4.68366755]], "pbc": [true, true, true], "a": 4.68366958, "b": 4.68364206, "c": 4.68366755, "alpha": 90.0, "beta": 90.0, "gamma": 90.0, "volume": 102.74389070544781}, "properties": {}, "sites": [{"species": [{"element": "V", "occu": 1}], "abc": [0.250001, -0.0, 0.5], "properties": {"magmom": 0.225}, "label": "V", "xyz": [1.17092207866958, 0.0, 2.341833775]}, {"species": [{"element": "V", "occu": 1}], "abc": [0.749999, -0.0, 0.5], "properties": {"magmom": 0.225}, "label": "V", "xyz": [3.51274750133042, 0.0, 2.341833775]}, {"species": [{"element": "V", "occu": 1}], "abc": [0.0, 0.5, 0.249998], "properties": {"magmom": 0.225}, "label": "V", "xyz": [0.0, 2.34182103, 1.1709075201649]}, {"species": [{"element": "V", "occu": 1}], "abc": [0.0, 0.5, 0.750002], "properties": {"magmom": 0.225}, "label": "V", "xyz": [0.0, 2.34182103, 3.5127600298351]}, {"species": [{"element": "V", "occu": 1}], "abc": [0.5, 0.75, -0.0], "properties": {"magmom": 0.225}, "label": "V", "xyz": [2.34183479, 3.5127315450000003, 0.0]}, {"species": [{"element": "V", "occu": 1}], "abc": [0.5, 0.25, -0.0], "properties": {"magmom": 0.225}, "label": "V", "xyz": [2.34183479, 1.170910515, 0.0]}, {"species": [{"element": "Si", "occu": 1}], "abc": [0.0, -0.0, -0.0], "properties": {"magmom": -0.016}, "label": "Si", "xyz": [0.0, 0.0, 0.0]}, {"species": [{"element": "Si", "occu": 1}], "abc": [0.5, 0.5, 0.5], "properties": {"magmom": -0.016}, "label": "Si", "xyz": [2.34183479, 2.34182103, 2.341833775]}]}, "task_ids": null, "uncorrected_energy_per_atom": null, "energy_per_atom": -13.25793674625, "formation_energy_per_atom": -0.49731380000000003, "energy_above_hull": 0.0, "is_stable": true, "equilibrium_reaction_energy_per_atom": null, "decomposes_to": null, "xas": null, "grain_boundaries": null, "band_gap": 0.0, "cbm": null, "vbm": null, "efermi": 7.35063881, "is_gap_direct": null, "is_metal": null, "es_source_calc_id": null, "bandstructure": null, "dos": null, "dos_energy_up": null, "dos_energy_down": null, "is_magnetic": null, "ordering": null, "total_magnetization": 1.5797354000000001, "total_magnetization_normalized_vol": null, "total_magnetization_normalized_formula_units": null, "num_magnetic_sites": null, "num_unique_magnetic_sites": null, "types_of_magnetic_species": null, "bulk_modulus": null, "shear_modulus": null, "universal_anisotropy": null, "homogeneous_poisson": null, "e_total": null, "e_ionic": null, "e_electronic": null, "n": null, "e_ij_max": null, "weighted_surface_energy_EV_PER_ANG2": null, "weighted_surface_energy": null, "weighted_work_function": null, "surface_anisotropy": null, "shape_factor": null, "has_reconstructed": null, "possible_species": null, "has_props": null, "theoretical": null, "database_IDs": null, "fields_not_requested": ["builder_meta", "nsites", "elements", "nelements", "composition", "composition_reduced", "chemsys", "symmetry", "property_name", "deprecated", "deprecation_reasons", "last_updated", "origins", "warnings", "task_ids", "uncorrected_energy_per_atom", "equilibrium_reaction_energy_per_atom", "decomposes_to", "xas", "grain_boundaries", "cbm", "vbm", "is_gap_direct", "is_metal", "es_source_calc_id", "bandstructure", "dos", "dos_energy_up", "dos_energy_down", "is_magnetic", "ordering", "total_magnetization_normalized_vol", "total_magnetization_normalized_formula_units", "num_magnetic_sites", "num_unique_magnetic_sites", "types_of_magnetic_species", "bulk_modulus", "shear_modulus", "universal_anisotropy", "homogeneous_poisson", "e_total", "e_ionic", "e_electronic", "n", "e_ij_max", "weighted_surface_energy_EV_PER_ANG2", "weighted_surface_energy", "weighted_work_function", "surface_anisotropy", "shape_factor", "has_reconstructed", "possible_species", "has_props", "theoretical", "database_IDs"]}