{"builder_meta": null, "nsites": null, "elements": null, "nelements": null, "composition": null, "composition_reduced": null, "formula_pretty": "V3Sn", "formula_anonymous": "AB3", "chemsys": null, "volume": 120.45046183427421, "density": 7.486789810736877, "density_atomic": 15.056307729284276, "symmetry": null, "property_name": null, "material_id": "mp-21342", "deprecated": null, "deprecation_reasons": null, "last_updated": null, "origins": null, "warnings": null, "structure": {"@module": "pymatgen.core.structure", "@class": "Structure", "charge": 0, "lattice": {"matrix": [[4.93853807, 0.0, 0.0], [0.0, 4.93863323, 0.0], [0.0, 0.0, 4.9385936]], "pbc": [true, true, true], "a": 4.93853807, "b": 4.93863323, "c": 4.9385936, "alpha": 90.0, "beta": 90.0, "gamma": 90.0, "volume": 120.45046183427421}, "properties": {}, "sites": [{"species": [{"element": "V", "occu": 1}], "abc": [0.50000162, 0.25000484, -0.0], "properties": {"magmom": -0.0}, "label": "V", "xyz": [2.4692770354316735, 1.2346822104848332, 0.0]}, {"species": [{"element": "V", "occu": 1}], "abc": [0.50000162, 0.74999516, -0.0], "properties": {"magmom": -0.0}, "label": "V", "xyz": [2.4692770354316735, 3.703951019515167, 0.0]}, {"species": [{"element": "V", "occu": 1}], "abc": [0.25000674, 0.0, 0.5], "properties": {"magmom": -0.0}, "label": "V", "xyz": [1.2346678032465919, 0.0, 2.4692968]}, {"species": [{"element": "V", "occu": 1}], "abc": [0.74999505, 0.0, 0.5], "properties": {"magmom": -0.0}, "label": "V", "xyz": [3.7038791067365535, 0.0, 2.4692968]}, {"species": [{"element": "V", "occu": 1}], "abc": [-1.57e-06, 0.5, 0.24998622], "properties": {"magmom": -0.0}, "label": "V", "xyz": [-7.7535047699e-06, 2.469316615, 1.234580346180192]}, {"species": [{"element": "V", "occu": 1}], "abc": [-1.57e-06, 0.5, 0.75001378], "properties": {"magmom": -0.0}, "label": "V", "xyz": [-7.7535047699e-06, 2.469316615, 3.7040132538198076]}, {"species": [{"element": "Sn", "occu": 1}], "abc": [0.49999972000000004, 0.5, 0.5], "properties": {"magmom": 0.0}, "label": "Sn", "xyz": [2.4692676522093406, 2.469316615, 2.4692968]}, {"species": [{"element": "Sn", "occu": 1}], "abc": [3.899999999999998e-07, 0.0, 0.0], "properties": {"magmom": 0.0}, "label": "Sn", "xyz": [1.926029847299999e-06, 0.0, 0.0]}]}, "task_ids": null, "uncorrected_energy_per_atom": null, "energy_per_atom": -16.85436483375, "formation_energy_per_atom": -0.100637091249999, "energy_above_hull": 0.0, "is_stable": true, "equilibrium_reaction_energy_per_atom": null, "decomposes_to": null, "xas": null, "grain_boundaries": null, "band_gap": 0.0, "cbm": null, "vbm": null, "efermi": 7.74350295, "is_gap_direct": null, "is_metal": null, "es_source_calc_id": null, "bandstructure": null, "dos": null, "dos_energy_up": null, "dos_energy_down": null, "is_magnetic": null, "ordering": null, "total_magnetization": 0.0004228, "total_magnetization_normalized_vol": null, "total_magnetization_normalized_formula_units": null, "num_magnetic_sites": null, "num_unique_magnetic_sites": null, "types_of_magnetic_species": null, "bulk_modulus": null, "shear_modulus": null, "universal_anisotropy": null, "homogeneous_poisson": null, "e_total": null, "e_ionic": null, "e_electronic": null, "n": null, "e_ij_max": null, "weighted_surface_energy_EV_PER_ANG2": null, "weighted_surface_energy": null, "weighted_work_function": null, "surface_anisotropy": null, "shape_factor": null, "has_reconstructed": null, "possible_species": null, "has_props": null, "theoretical": null, "database_IDs": null, "fields_not_requested": ["builder_meta", "nsites", "elements", "nelements", "composition", "composition_reduced", "chemsys", "symmetry", "property_name", "deprecated", "deprecation_reasons", "last_updated", "origins", "warnings", "task_ids", "uncorrected_energy_per_atom", "equilibrium_reaction_energy_per_atom", "decomposes_to", "xas", "grain_boundaries", "cbm", "vbm", "is_gap_direct", "is_metal", "es_source_calc_id", "bandstructure", "dos", "dos_energy_up", "dos_energy_down", "is_magnetic", "ordering", "total_magnetization_normalized_vol", "total_magnetization_normalized_formula_units", "num_magnetic_sites", "num_unique_magnetic_sites", "types_of_magnetic_species", "bulk_modulus", "shear_modulus", "universal_anisotropy", "homogeneous_poisson", "e_total", "e_ionic", "e_electronic", "n", "e_ij_max", "weighted_surface_energy_EV_PER_ANG2", "weighted_surface_energy", "weighted_work_function", "surface_anisotropy", "shape_factor", "has_reconstructed", "possible_species", "has_props", "theoretical", "database_IDs"]}