{
  "builder_meta": null,
  "nsites": null,
  "elements": null,
  "nelements": null,
  "composition": null,
  "composition_reduced": null,
  "formula_pretty": "V3Te4",
  "formula_anonymous": "A3B4",
  "chemsys": null,
  "volume": 171.55194678761427,
  "density": 6.41968927079389,
  "density_atomic": 24.507420969659183,
  "symmetry": null,
  "property_name": null,
  "material_id": "mp-1028",
  "deprecated": null,
  "deprecation_reasons": null,
  "last_updated": null,
  "origins": null,
  "warnings": null,
  "structure": {
    "@module": "pymatgen.core.structure",
    "@class": "Structure",
    "charge": 0,
    "lattice": {
      "matrix": [
        [3.86581659, -1e-8, -1.01861926],
        [-0.79682133, 6.16853829, -3.02405754],
        [-0.14513319, -0.11810873000000001, 7.29419154]
      ],
      "pbc": [true, true, true],
      "a": 3.997764763510001,
      "b": 6.915975193157501,
      "c": 7.296591227220376,
      "alpha": 116.69614100817833,
      "beta": 105.89929891136923,
      "gamma": 90.00000398890835,
      "volume": 171.55194678761427
    },
    "properties": {},
    "sites": [
      {
        "species": [{ "element": "V", "occu": 1 }],
        "abc": [0.25727556, 0.28931509, 0.5145521200000001],
        "properties": { "magmom": 2.278 },
        "label": "V",
        "xyz": [0.689369102649808, 1.723878110555033, 2.6162704006995012]
      },
      {
        "species": [{ "element": "V", "occu": 1 }],
        "abc": [0.74272444, 0.71068491, 0.48544788],
        "properties": { "magmom": 2.278 },
        "label": "V",
        "xyz": [2.2344929673501923, 4.326551439444966, 0.6352443393004994]
      },
      {
        "species": [{ "element": "V", "occu": 1 }],
        "abc": [0.0, 0.0, -0.0],
        "properties": { "magmom": 2.342 },
        "label": "V",
        "xyz": [0.0, 0.0, 0.0]
      },
      {
        "species": [{ "element": "Te", "occu": 1 }],
        "abc": [0.63576801, 0.97587307, 0.27153703],
        "properties": { "magmom": -0.163 },
        "label": "Te",
        "xyz": [1.6407570075336773, 5.9876394983558985, -1.6180587482715942]
      },
      {
        "species": [{ "element": "Te", "occu": 1 }],
        "abc": [0.36423199, 0.02412693, 0.72846297],
        "properties": { "magmom": -0.163 },
        "label": "Te",
        "xyz": [1.283105062466323, 0.06279005164410169, 4.869573488271595]
      },
      {
        "species": [{ "element": "Te", "occu": 1 }],
        "abc": [0.11287653, 0.45248083, 0.22575206],
        "properties": { "magmom": -0.185 },
        "label": "Te",
        "xyz": [0.04304946891865746, 2.7644820351157318, 0.16337249306264634]
      },
      {
        "species": [{ "element": "Te", "occu": 1 }],
        "abc": [0.88712347, 0.54751917, 0.77424794],
        "properties": { "magmom": -0.185 },
        "label": "Te",
        "xyz": [2.880812601081343, 3.2859475148842687, 3.088142246937353]
      }
    ]
  },
  "task_ids": null,
  "uncorrected_energy_per_atom": null,
  "energy_per_atom": -6.24867144714286,
  "formation_energy_per_atom": -0.559394049523812,
  "energy_above_hull": 0.014480818857139002,
  "is_stable": false,
  "equilibrium_reaction_energy_per_atom": null,
  "decomposes_to": null,
  "xas": null,
  "grain_boundaries": null,
  "band_gap": 0.0,
  "cbm": null,
  "vbm": null,
  "efermi": 6.66379999,
  "is_gap_direct": null,
  "is_metal": null,
  "es_source_calc_id": null,
  "bandstructure": null,
  "dos": null,
  "dos_energy_up": null,
  "dos_energy_down": null,
  "is_magnetic": null,
  "ordering": null,
  "total_magnetization": 7.0081111,
  "total_magnetization_normalized_vol": null,
  "total_magnetization_normalized_formula_units": null,
  "num_magnetic_sites": null,
  "num_unique_magnetic_sites": null,
  "types_of_magnetic_species": null,
  "bulk_modulus": null,
  "shear_modulus": null,
  "universal_anisotropy": null,
  "homogeneous_poisson": null,
  "e_total": null,
  "e_ionic": null,
  "e_electronic": null,
  "n": null,
  "e_ij_max": null,
  "weighted_surface_energy_EV_PER_ANG2": null,
  "weighted_surface_energy": null,
  "weighted_work_function": null,
  "surface_anisotropy": null,
  "shape_factor": null,
  "has_reconstructed": null,
  "possible_species": null,
  "has_props": null,
  "theoretical": null,
  "database_IDs": null,
  "fields_not_requested": [
    "builder_meta",
    "nsites",
    "elements",
    "nelements",
    "composition",
    "composition_reduced",
    "chemsys",
    "symmetry",
    "property_name",
    "deprecated",
    "deprecation_reasons",
    "last_updated",
    "origins",
    "warnings",
    "task_ids",
    "uncorrected_energy_per_atom",
    "equilibrium_reaction_energy_per_atom",
    "decomposes_to",
    "xas",
    "grain_boundaries",
    "cbm",
    "vbm",
    "is_gap_direct",
    "is_metal",
    "es_source_calc_id",
    "bandstructure",
    "dos",
    "dos_energy_up",
    "dos_energy_down",
    "is_magnetic",
    "ordering",
    "total_magnetization_normalized_vol",
    "total_magnetization_normalized_formula_units",
    "num_magnetic_sites",
    "num_unique_magnetic_sites",
    "types_of_magnetic_species",
    "bulk_modulus",
    "shear_modulus",
    "universal_anisotropy",
    "homogeneous_poisson",
    "e_total",
    "e_ionic",
    "e_electronic",
    "n",
    "e_ij_max",
    "weighted_surface_energy_EV_PER_ANG2",
    "weighted_surface_energy",
    "weighted_work_function",
    "surface_anisotropy",
    "shape_factor",
    "has_reconstructed",
    "possible_species",
    "has_props",
    "theoretical",
    "database_IDs"
  ]
}
