{
  "builder_meta": null,
  "nsites": null,
  "elements": null,
  "nelements": null,
  "composition": null,
  "composition_reduced": null,
  "formula_pretty": "V4As3",
  "formula_anonymous": "A3B4",
  "chemsys": null,
  "volume": 219.20199314562345,
  "density": 6.492569929951467,
  "density_atomic": 15.657285224687389,
  "symmetry": null,
  "property_name": null,
  "material_id": "mp-2623",
  "deprecated": null,
  "deprecation_reasons": null,
  "last_updated": null,
  "origins": null,
  "warnings": null,
  "structure": {
    "@module": "pymatgen.core.structure",
    "@class": "Structure",
    "charge": 0,
    "lattice": {
      "matrix": [
        [3.43615534, 0.0, 0.0],
        [-1.71807818, 6.71665561, -1.32262557],
        [0.0, -0.03476487, 9.50454977]
      ],
      "pbc": [true, true, true],
      "a": 3.43615534,
      "b": 7.057945424438645,
      "c": 9.504613349663057,
      "alpha": 101.00384260254782,
      "beta": 90.0,
      "gamma": 104.0887569269507,
      "volume": 219.20199314562345
    },
    "properties": {},
    "sites": [
      {
        "species": [{ "element": "V", "occu": 1 }],
        "abc": [0.5670564, 0.13411181, 0.721546599999999],
        "properties": { "magmom": -1.552 },
        "label": "V",
        "xyz": [1.7180793024998704, 0.8756983672558121, 6.680595861929291]
      },
      {
        "species": [{ "element": "V", "occu": 1 }],
        "abc": [0.4329436, 0.8658881900000001, 0.278453399999999],
        "properties": { "magmom": -1.552 },
        "label": "V",
        "xyz": [-2.142499870405601e-6, 5.806192372744188, 1.5013283380706905]
      },
      {
        "species": [{ "element": "V", "occu": 1 }],
        "abc": [0.7773279, 0.55465581, 0.82465591],
        "properties": { "magmom": 1.671 },
        "label": "V",
        "xyz": [1.71807736994476, 3.6967630023497127, 7.1043811828645795]
      },
      {
        "species": [{ "element": "V", "occu": 1 }],
        "abc": [0.222672099999999, 0.44534419000000003, 0.17534409],
        "properties": { "magmom": 1.671 },
        "label": "V",
        "xyz": [-2.0994476357394376e-7, 2.985127737650288, 1.077543017135421]
      },
      {
        "species": [{ "element": "V", "occu": 1 }],
        "abc": [0.34863808, 0.69727717, 0.5615764],
        "properties": { "magmom": -1.603 },
        "label": "V",
        "xyz": [-2.0908698032950923e-6, 4.663847485064355, 4.415294229038191]
      },
      {
        "species": [{ "element": "V", "occu": 1 }],
        "abc": [0.65136192, 0.30272283, 0.438423599999999],
        "properties": { "magmom": -1.603 },
        "label": "V",
        "xyz": [1.7180792508698035, 2.018043254935644, 3.7666299709618003]
      },
      {
        "species": [{ "element": "V", "occu": 1 }],
        "abc": [-0.0, -0.0, -0.0],
        "properties": { "magmom": 1.625 },
        "label": "V",
        "xyz": [0.0, 0.0, 0.0]
      },
      {
        "species": [{ "element": "V", "occu": 1 }],
        "abc": [-0.0, -0.0, 0.5],
        "properties": { "magmom": 1.395 },
        "label": "V",
        "xyz": [0.0, -0.017382435, 4.752274885]
      },
      {
        "species": [{ "element": "As", "occu": 1 }],
        "abc": [0.18376282, 0.36752563, 0.64502698],
        "properties": { "magmom": 0.04 },
        "label": "As",
        "xyz": [-1.7025729459607675e-7, 2.446118805452092, 5.644592238534436]
      },
      {
        "species": [{ "element": "As", "occu": 1 }],
        "abc": [0.81623718, 0.6324743700000001, 0.35497302000000003],
        "properties": { "magmom": 0.04 },
        "label": "As",
        "xyz": [1.7180773302572945, 4.235771934547908, 2.537331961465565]
      },
      {
        "species": [{ "element": "As", "occu": 1 }],
        "abc": [0.64192021, 0.28383843000000003, 0.9880369],
        "properties": { "magmom": -0.073 },
        "label": "As",
        "xyz": [1.718080944216964, 1.8720960088093894, 9.015433925379858]
      },
      {
        "species": [{ "element": "As", "occu": 1 }],
        "abc": [0.35807979, 0.71616157, 0.011963099999999002],
        "properties": { "magmom": -0.073 },
        "label": "As",
        "xyz": [-3.7842169640089907e-6, 4.809794731190611, -0.8335097253798674]
      },
      {
        "species": [{ "element": "As", "occu": 1 }],
        "abc": [0.9353229999999991, 0.870644, 0.7353661300000001],
        "properties": { "magmom": 0.031 },
        "label": "As",
        "xyz": [1.718080662126897, 5.822250999000986, 5.837787964990211]
      },
      {
        "species": [{ "element": "As", "occu": 1 }],
        "abc": [0.064677, 0.129356, 0.26463387],
        "properties": { "magmom": 0.031 },
        "label": "As",
        "xyz": [-3.502126900006841e-6, 0.8596397409990131, 2.3441362350097896]
      }
    ]
  },
  "task_ids": null,
  "uncorrected_energy_per_atom": null,
  "energy_per_atom": -14.961777919285714,
  "formation_energy_per_atom": -0.607364221785715,
  "energy_above_hull": 0.0,
  "is_stable": true,
  "equilibrium_reaction_energy_per_atom": null,
  "decomposes_to": null,
  "xas": null,
  "grain_boundaries": null,
  "band_gap": 0.0,
  "cbm": null,
  "vbm": null,
  "efermi": 7.0446785,
  "is_gap_direct": null,
  "is_metal": null,
  "es_source_calc_id": null,
  "bandstructure": null,
  "dos": null,
  "dos_energy_up": null,
  "dos_energy_down": null,
  "is_magnetic": null,
  "ordering": null,
  "total_magnetization": 0.0604995,
  "total_magnetization_normalized_vol": null,
  "total_magnetization_normalized_formula_units": null,
  "num_magnetic_sites": null,
  "num_unique_magnetic_sites": null,
  "types_of_magnetic_species": null,
  "bulk_modulus": null,
  "shear_modulus": null,
  "universal_anisotropy": null,
  "homogeneous_poisson": null,
  "e_total": null,
  "e_ionic": null,
  "e_electronic": null,
  "n": null,
  "e_ij_max": null,
  "weighted_surface_energy_EV_PER_ANG2": null,
  "weighted_surface_energy": null,
  "weighted_work_function": null,
  "surface_anisotropy": null,
  "shape_factor": null,
  "has_reconstructed": null,
  "possible_species": null,
  "has_props": null,
  "theoretical": null,
  "database_IDs": null,
  "fields_not_requested": [
    "builder_meta",
    "nsites",
    "elements",
    "nelements",
    "composition",
    "composition_reduced",
    "chemsys",
    "symmetry",
    "property_name",
    "deprecated",
    "deprecation_reasons",
    "last_updated",
    "origins",
    "warnings",
    "task_ids",
    "uncorrected_energy_per_atom",
    "equilibrium_reaction_energy_per_atom",
    "decomposes_to",
    "xas",
    "grain_boundaries",
    "cbm",
    "vbm",
    "is_gap_direct",
    "is_metal",
    "es_source_calc_id",
    "bandstructure",
    "dos",
    "dos_energy_up",
    "dos_energy_down",
    "is_magnetic",
    "ordering",
    "total_magnetization_normalized_vol",
    "total_magnetization_normalized_formula_units",
    "num_magnetic_sites",
    "num_unique_magnetic_sites",
    "types_of_magnetic_species",
    "bulk_modulus",
    "shear_modulus",
    "universal_anisotropy",
    "homogeneous_poisson",
    "e_total",
    "e_ionic",
    "e_electronic",
    "n",
    "e_ij_max",
    "weighted_surface_energy_EV_PER_ANG2",
    "weighted_surface_energy",
    "weighted_work_function",
    "surface_anisotropy",
    "shape_factor",
    "has_reconstructed",
    "possible_species",
    "has_props",
    "theoretical",
    "database_IDs"
  ]
}
