{"builder_meta": null, "nsites": null, "elements": null, "nelements": null, "composition": null, "composition_reduced": null, "formula_pretty": "V4Bi3", "formula_anonymous": "A3B4", "chemsys": null, "volume": 292.75589028475173, "density": 9.423699432070809, "density_atomic": 20.911135020339408, "symmetry": null, "property_name": null, "material_id": "mp-1120821", "deprecated": null, "deprecation_reasons": null, "last_updated": null, "origins": null, "warnings": null, "structure": {"@module": "pymatgen.core.structure", "@class": "Structure", "charge": 0, "lattice": {"matrix": [[2.121131, 6.904104, 0.0], [-2.121131, 6.904104, 0.0], [0.0, 3.603645, 9.995415]], "pbc": [true, true, true], "a": 7.222592938964302, "b": 7.222592938964302, "c": 10.62518603640661, "alpha": 71.0825857747848, "beta": 71.0825857747848, "gamma": 34.156800967809595, "volume": 292.75589028475173}, "properties": {}, "sites": [{"species": [{"element": "V", "occu": 1}], "abc": [0.439978999999999, 0.439978999999999, 0.646378999999999], "properties": {"magmom": -0.494}, "label": "V", "xyz": [0.0, 8.404641999086984, 6.4608263522849905]}, {"species": [{"element": "V", "occu": 1}], "abc": [0.560021, 0.560021, 0.353620999999999], "properties": {"magmom": -0.494}, "label": "V", "xyz": [0.0, 9.007211000912998, 3.53458864771499]}, {"species": [{"element": "V", "occu": 1}], "abc": [0.209128999999999, 0.209128999999999, 0.847497], "properties": {"magmom": 1.931}, "label": "V", "xyz": [0.0, 5.9417750573969865, 8.471084226255]}, {"species": [{"element": "V", "occu": 1}], "abc": [0.790871, 0.790871, 0.152503], "properties": {"magmom": 1.931}, "label": "V", "xyz": [0.0, 11.470077942603002, 1.5243307737449998]}, {"species": [{"element": "V", "occu": 1}], "abc": [0.636717, 0.636717, 0.523806], "properties": {"magmom": 0.921}, "label": "V", "xyz": [0.0, 10.679531646006001, 5.2356583494899995]}, {"species": [{"element": "V", "occu": 1}], "abc": [0.363282999999999, 0.363282999999999, 0.476194], "properties": {"magmom": 0.921}, "label": "V", "xyz": [0.0, 6.732321353993987, 4.75975665051]}, {"species": [{"element": "V", "occu": 1}], "abc": [0.0, 0.0, 0.0], "properties": {"magmom": 0.678}, "label": "V", "xyz": [0.0, 0.0, 0.0]}, {"species": [{"element": "V", "occu": 1}], "abc": [0.0, 0.0, 0.5], "properties": {"magmom": 0.215}, "label": "V", "xyz": [0.0, 1.8018225, 4.9977075]}, {"species": [{"element": "Bi", "occu": 1}], "abc": [0.785951, 0.785951, 0.664609], "properties": {"magmom": -0.051000000000000004}, "label": "Bi", "xyz": [0.0, 13.247589785613, 6.6430427677349995]}, {"species": [{"element": "Bi", "occu": 1}], "abc": [0.214049, 0.214049, 0.335391], "properties": {"magmom": -0.051000000000000004}, "label": "Bi", "xyz": [0.0, 4.164263214387, 3.3523722322649996]}, {"species": [{"element": "Bi", "occu": 1}], "abc": [0.370839, 0.370839, 0.958738], "properties": {"magmom": -0.073}, "label": "Bi", "xyz": [0.0, 8.575573446522, 9.58298418627]}, {"species": [{"element": "Bi", "occu": 1}], "abc": [0.629161, 0.629161, 0.041262], "properties": {"magmom": -0.073}, "label": "Bi", "xyz": [0.0, 8.836279553478, 0.41243081372999996]}, {"species": [{"element": "Bi", "occu": 1}], "abc": [0.056794, 0.056794, 0.725082], "properties": {"magmom": -0.044}, "label": "Bi", "xyz": [0.0, 3.3971614890420003, 7.247495499029999]}, {"species": [{"element": "Bi", "occu": 1}], "abc": [0.943206, 0.943206, 0.274918], "properties": {"magmom": -0.044}, "label": "Bi", "xyz": [0.0, 14.014691510958, 2.7479195009699997]}]}, "task_ids": null, "uncorrected_energy_per_atom": null, "energy_per_atom": -32.86515038214286, "formation_energy_per_atom": 0.258438782857138, "energy_above_hull": 0.25843878285714, "is_stable": false, "equilibrium_reaction_energy_per_atom": null, "decomposes_to": null, "xas": null, "grain_boundaries": null, "band_gap": 0.0, "cbm": null, "vbm": null, "efermi": 6.63716485, "is_gap_direct": null, "is_metal": null, "es_source_calc_id": null, "bandstructure": null, "dos": null, "dos_energy_up": null, "dos_energy_down": null, "is_magnetic": null, "ordering": null, "total_magnetization": 6.1267725, "total_magnetization_normalized_vol": null, "total_magnetization_normalized_formula_units": null, "num_magnetic_sites": null, "num_unique_magnetic_sites": null, "types_of_magnetic_species": null, "bulk_modulus": null, "shear_modulus": null, "universal_anisotropy": null, "homogeneous_poisson": null, "e_total": null, "e_ionic": null, "e_electronic": null, "n": null, "e_ij_max": null, "weighted_surface_energy_EV_PER_ANG2": null, "weighted_surface_energy": null, "weighted_work_function": null, "surface_anisotropy": null, "shape_factor": null, "has_reconstructed": null, "possible_species": null, "has_props": null, "theoretical": null, "database_IDs": null, "fields_not_requested": ["builder_meta", "nsites", "elements", "nelements", "composition", "composition_reduced", "chemsys", "symmetry", "property_name", "deprecated", "deprecation_reasons", "last_updated", "origins", "warnings", "task_ids", "uncorrected_energy_per_atom", "equilibrium_reaction_energy_per_atom", "decomposes_to", "xas", "grain_boundaries", "cbm", "vbm", "is_gap_direct", "is_metal", "es_source_calc_id", "bandstructure", "dos", "dos_energy_up", "dos_energy_down", "is_magnetic", "ordering", "total_magnetization_normalized_vol", "total_magnetization_normalized_formula_units", "num_magnetic_sites", "num_unique_magnetic_sites", "types_of_magnetic_species", "bulk_modulus", "shear_modulus", "universal_anisotropy", "homogeneous_poisson", "e_total", "e_ionic", "e_electronic", "n", "e_ij_max", "weighted_surface_energy_EV_PER_ANG2", "weighted_surface_energy", "weighted_work_function", "surface_anisotropy", "shape_factor", "has_reconstructed", "possible_species", "has_props", "theoretical", "database_IDs"]}