{"builder_meta": null, "nsites": null, "elements": null, "nelements": null, "composition": null, "composition_reduced": null, "formula_pretty": "V4O7", "formula_anonymous": "A4B7", "chemsys": null, "volume": 221.52079523329417, "density": 4.733955600761849, "density_atomic": 10.069127056058825, "symmetry": null, "property_name": null, "material_id": "mp-555597", "deprecated": null, "deprecation_reasons": null, "last_updated": null, "origins": null, "warnings": null, "structure": {"@module": "pymatgen.core.structure", "@class": "Structure", "charge": 0, "lattice": {"matrix": [[5.23454829, -0.00858379, 1.8461832], [0.81895239, 6.06865813, 2.92508386], [0.033868050000000004, 0.00702255, 6.98684479]], "pbc": [true, true, true], "a": 5.550582121701734, "b": 6.786413640792484, "c": 6.98693040473207, "alpha": 64.3737399039066, "beta": 70.29505848782975, "gamma": 75.17998095895899, "volume": 221.52079523329417}, "properties": {}, "sites": [{"species": [{"element": "V", "occu": 1}], "abc": [0.18942649, 0.09843254, 0.25562265], "properties": {"magmom": 1.374}, "label": "V", "xyz": [1.080831113888305, 0.5975225597577106, 2.423635217884266]}, {"species": [{"element": "V", "occu": 1}], "abc": [0.71888154, 0.37314962, 0.41340335], "properties": {"magmom": 1.643}, "label": "V", "xyz": [4.082613074374127, 2.2612498926407167, 5.307065994881308]}, {"species": [{"element": "V", "occu": 1}], "abc": [0.2811589, 0.62685619, 0.58655718], "properties": {"magmom": 1.643}, "label": "V", "xyz": [2.004970762100174, 3.805881631954503, 6.450861738740666]}, {"species": [{"element": "V", "occu": 1}], "abc": [0.28626385, 0.62441652, 0.08475941000000001], "properties": {"magmom": 1.58}, "label": "V", "xyz": [2.0126999838516495, 3.787508389026012, 2.9471670373686614]}, {"species": [{"element": "V", "occu": 1}], "abc": [0.71369405, 0.37559669, 0.9152546500000001], "properties": {"magmom": 1.581}, "label": "V", "xyz": [4.074459666211196, 2.2796691280624977, 8.811003963714157]}, {"species": [{"element": "V", "occu": 1}], "abc": [0.18494216, 0.09359052, 0.758824899999999], "properties": {"magmom": 1.544}, "label": "V", "xyz": [1.0704347670666943, 0.5717102512268363, 5.916989027351984]}, {"species": [{"element": "V", "occu": 1}], "abc": [0.81509894, 0.90642188, 0.24115213], "properties": {"magmom": 1.5430000000000001}, "label": "V", "xyz": [5.017158479928553, 5.4954613760322335, 5.841074483992568]}, {"species": [{"element": "V", "occu": 1}], "abc": [0.81055731, 0.90159177, 0.74437687], "properties": {"magmom": 1.373}, "label": "V", "xyz": [5.006472708905334, 5.469721995008003, 9.33451447905103]}, {"species": [{"element": "O", "occu": 1}], "abc": [0.79641386, 0.0542155, 0.43476307000000003], "properties": {"magmom": -0.04}, "label": "O", "xyz": [4.227991299688258, 0.3252322309169141, 4.666532863104887]}, {"species": [{"element": "O", "occu": 1}], "abc": [0.82626764, 0.22413992, 0.7025355600000001], "properties": {"magmom": -0.023}, "label": "O", "xyz": [4.532491294695602, 1.358069630956872, 7.089576415221072]}, {"species": [{"element": "O", "occu": 1}], "abc": [0.9750632300000001, 0.82790315, 0.98001187], "properties": {"magmom": -0.033}, "label": "O", "xyz": [5.81521991763316, 5.022773626454737, 11.069022323919553]}, {"species": [{"element": "O", "occu": 1}], "abc": [0.0834856, 0.38796779000000003, 0.25756567], "properties": {"magmom": -0.096}, "label": "O", "xyz": [0.7634598005729856, 2.3555360278990674, 3.088539392413149]}, {"species": [{"element": "O", "occu": 1}], "abc": [0.47275416000000003, 0.89594468, 0.86214578], "properties": {"magmom": -0.105}, "label": "O", "xyz": [3.237589713196501, 5.439178405728521, 9.517182862056464]}, {"species": [{"element": "O", "occu": 1}], "abc": [0.02492502, 0.17207286, 0.02000726], "properties": {"magmom": -0.033}, "label": "O", "xyz": [0.2720683076523942, 1.044177911637639, 0.689131319006879]}, {"species": [{"element": "O", "occu": 1}], "abc": [0.4012299, 0.53280418, 0.83878865], "properties": {"magmom": -0.114}, "label": "O", "xyz": [2.5650066794924933, 3.2358527806857196, 8.159726917339848]}, {"species": [{"element": "O", "occu": 1}], "abc": [0.17373975, 0.77582784, 0.29744289], "properties": {"magmom": -0.023}, "label": "O", "xyz": [1.5548889857347297, 4.708831390734856, 4.6683042068639065]}, {"species": [{"element": "O", "occu": 1}], "abc": [0.35382632, 0.33254268, 0.59151351], "properties": {"magmom": -0.111}, "label": "O", "xyz": [2.1444909900083533, 2.0192046009262863, 5.758756519289082]}, {"species": [{"element": "O", "occu": 1}], "abc": [0.91653848, 0.61201042, 0.74242197], "properties": {"magmom": -0.096}, "label": "O", "xyz": [5.324016713768162, 3.7114283325438993, 8.669466818699394]}, {"species": [{"element": "O", "occu": 1}], "abc": [0.64614773, 0.66747365, 0.40848407000000003], "properties": {"magmom": -0.111}, "label": "O", "xyz": [3.9427551949953688, 4.047991596015756, 5.999338280711921]}, {"species": [{"element": "O", "occu": 1}], "abc": [0.20359329, 0.94576731, 0.56523646], "properties": {"magmom": -0.04}, "label": "O", "xyz": [1.8594007636224483, 5.741760274175135, 7.091538621096388]}, {"species": [{"element": "O", "occu": 1}], "abc": [0.52729429, 0.10398698, 0.13791321], "properties": {"magmom": -0.105}, "label": "O", "xyz": [2.8499786613380875, 0.6275037505504738, 2.2412306892627467]}, {"species": [{"element": "O", "occu": 1}], "abc": [0.59869552, 0.46728934, 0.16121789], "properties": {"magmom": -0.114}, "label": "O", "xyz": [3.522048467820598, 2.8318123363291328, 3.5985664921246094]}]}, "task_ids": null, "uncorrected_energy_per_atom": null, "energy_per_atom": -8.94279136590909, "formation_energy_per_atom": -2.490850337272725, "energy_above_hull": 0.037108528750001, "is_stable": false, "equilibrium_reaction_energy_per_atom": null, "decomposes_to": null, "xas": null, "grain_boundaries": null, "band_gap": 0.5857, "cbm": null, "vbm": null, "efermi": 3.9103383, "is_gap_direct": null, "is_metal": null, "es_source_calc_id": null, "bandstructure": null, "dos": null, "dos_energy_up": null, "dos_energy_down": null, "is_magnetic": null, "ordering": null, "total_magnetization": 12.0, "total_magnetization_normalized_vol": null, "total_magnetization_normalized_formula_units": null, "num_magnetic_sites": null, "num_unique_magnetic_sites": null, "types_of_magnetic_species": null, "bulk_modulus": null, "shear_modulus": null, "universal_anisotropy": null, "homogeneous_poisson": null, "e_total": null, "e_ionic": null, "e_electronic": null, "n": null, "e_ij_max": null, "weighted_surface_energy_EV_PER_ANG2": null, "weighted_surface_energy": null, "weighted_work_function": null, "surface_anisotropy": null, "shape_factor": null, "has_reconstructed": null, "possible_species": null, "has_props": null, "theoretical": null, "database_IDs": null, "fields_not_requested": ["builder_meta", "nsites", "elements", "nelements", "composition", "composition_reduced", "chemsys", "symmetry", "property_name", "deprecated", "deprecation_reasons", "last_updated", "origins", "warnings", "task_ids", "uncorrected_energy_per_atom", "equilibrium_reaction_energy_per_atom", "decomposes_to", "xas", "grain_boundaries", "cbm", "vbm", "is_gap_direct", "is_metal", "es_source_calc_id", "bandstructure", "dos", "dos_energy_up", "dos_energy_down", "is_magnetic", "ordering", "total_magnetization_normalized_vol", "total_magnetization_normalized_formula_units", "num_magnetic_sites", "num_unique_magnetic_sites", "types_of_magnetic_species", "bulk_modulus", "shear_modulus", "universal_anisotropy", "homogeneous_poisson", "e_total", "e_ionic", "e_electronic", "n", "e_ij_max", "weighted_surface_energy_EV_PER_ANG2", "weighted_surface_energy", "weighted_work_function", "surface_anisotropy", "shape_factor", "has_reconstructed", "possible_species", "has_props", "theoretical", "database_IDs"]}