{
  "builder_meta": null,
  "nsites": null,
  "elements": null,
  "nelements": null,
  "composition": null,
  "composition_reduced": null,
  "formula_pretty": "V4Ru",
  "formula_anonymous": "AB4",
  "chemsys": null,
  "volume": 67.77540637151017,
  "density": 7.468669153105346,
  "density_atomic": 13.555081274302035,
  "symmetry": null,
  "property_name": null,
  "material_id": "mp-1216449",
  "deprecated": null,
  "deprecation_reasons": null,
  "last_updated": null,
  "origins": null,
  "warnings": null,
  "structure": {
    "@module": "pymatgen.core.structure",
    "@class": "Structure",
    "charge": 0,
    "lattice": {
      "matrix": [
        [0.0, 2.19927, 10.256826],
        [1.5022790000000001, 0.0, 10.256826],
        [1.5022790000000001, 2.19927, 0.0]
      ],
      "pbc": [true, true, true],
      "a": 10.48996034917082,
      "b": 10.366258813483146,
      "c": 2.6633870779030597,
      "alpha": 85.31130136839542,
      "beta": 80.03068781642645,
      "gamma": 14.65801081517812,
      "volume": 67.77540637151019
    },
    "properties": {},
    "sites": [
      {
        "species": [{ "element": "V", "occu": 1 }],
        "abc": [0.399412, 0.399412, 0.600588],
        "properties": { "magmom": -0.0 },
        "label": "V",
        "xyz": [1.5022790000000001, 2.19927, 8.193398772624]
      },
      {
        "species": [{ "element": "V", "occu": 1 }],
        "abc": [0.799982, 0.799982, 0.200018],
        "properties": { "magmom": 0.005 },
        "label": "V",
        "xyz": [1.502279, 2.19927, 16.410552354264]
      },
      {
        "species": [{ "element": "V", "occu": 1 }],
        "abc": [0.200018, 0.200018, 0.799982],
        "properties": { "magmom": 0.005 },
        "label": "V",
        "xyz": [1.502279, 2.19927, 4.103099645736]
      },
      {
        "species": [{ "element": "V", "occu": 1 }],
        "abc": [0.600588, 0.600588, 0.399412],
        "properties": { "magmom": -0.0 },
        "label": "V",
        "xyz": [1.5022790000000001, 2.19927, 12.320253227376]
      },
      {
        "species": [{ "element": "Ru", "occu": 1 }],
        "abc": [0.0, 0.0, 0.0],
        "properties": { "magmom": -0.005 },
        "label": "Ru",
        "xyz": [0.0, 0.0, 0.0]
      }
    ]
  },
  "task_ids": null,
  "uncorrected_energy_per_atom": null,
  "energy_per_atom": -16.489939202000002,
  "formation_energy_per_atom": -0.133371559000002,
  "energy_above_hull": 0.119981821999999,
  "is_stable": false,
  "equilibrium_reaction_energy_per_atom": null,
  "decomposes_to": null,
  "xas": null,
  "grain_boundaries": null,
  "band_gap": 0.0,
  "cbm": null,
  "vbm": null,
  "efermi": 6.65440336,
  "is_gap_direct": null,
  "is_metal": null,
  "es_source_calc_id": null,
  "bandstructure": null,
  "dos": null,
  "dos_energy_up": null,
  "dos_energy_down": null,
  "is_magnetic": null,
  "ordering": null,
  "total_magnetization": 0.0078067,
  "total_magnetization_normalized_vol": null,
  "total_magnetization_normalized_formula_units": null,
  "num_magnetic_sites": null,
  "num_unique_magnetic_sites": null,
  "types_of_magnetic_species": null,
  "bulk_modulus": null,
  "shear_modulus": null,
  "universal_anisotropy": null,
  "homogeneous_poisson": null,
  "e_total": null,
  "e_ionic": null,
  "e_electronic": null,
  "n": null,
  "e_ij_max": null,
  "weighted_surface_energy_EV_PER_ANG2": null,
  "weighted_surface_energy": null,
  "weighted_work_function": null,
  "surface_anisotropy": null,
  "shape_factor": null,
  "has_reconstructed": null,
  "possible_species": null,
  "has_props": null,
  "theoretical": null,
  "database_IDs": null,
  "fields_not_requested": [
    "builder_meta",
    "nsites",
    "elements",
    "nelements",
    "composition",
    "composition_reduced",
    "chemsys",
    "symmetry",
    "property_name",
    "deprecated",
    "deprecation_reasons",
    "last_updated",
    "origins",
    "warnings",
    "task_ids",
    "uncorrected_energy_per_atom",
    "equilibrium_reaction_energy_per_atom",
    "decomposes_to",
    "xas",
    "grain_boundaries",
    "cbm",
    "vbm",
    "is_gap_direct",
    "is_metal",
    "es_source_calc_id",
    "bandstructure",
    "dos",
    "dos_energy_up",
    "dos_energy_down",
    "is_magnetic",
    "ordering",
    "total_magnetization_normalized_vol",
    "total_magnetization_normalized_formula_units",
    "num_magnetic_sites",
    "num_unique_magnetic_sites",
    "types_of_magnetic_species",
    "bulk_modulus",
    "shear_modulus",
    "universal_anisotropy",
    "homogeneous_poisson",
    "e_total",
    "e_ionic",
    "e_electronic",
    "n",
    "e_ij_max",
    "weighted_surface_energy_EV_PER_ANG2",
    "weighted_surface_energy",
    "weighted_work_function",
    "surface_anisotropy",
    "shape_factor",
    "has_reconstructed",
    "possible_species",
    "has_props",
    "theoretical",
    "database_IDs"
  ]
}
