{
  "builder_meta": null,
  "nsites": null,
  "elements": null,
  "nelements": null,
  "composition": null,
  "composition_reduced": null,
  "formula_pretty": "V4Zn5",
  "formula_anonymous": "A4B5",
  "chemsys": null,
  "volume": 122.66179354626934,
  "density": 7.185875707487733,
  "density_atomic": 13.629088171807703,
  "symmetry": null,
  "property_name": null,
  "material_id": "mp-30883",
  "deprecated": null,
  "deprecation_reasons": null,
  "last_updated": null,
  "origins": null,
  "warnings": null,
  "structure": {
    "@module": "pymatgen.core.structure",
    "@class": "Structure",
    "charge": 0,
    "lattice": {
      "matrix": [
        [3.08668405, 0.0, 0.78975887],
        [1.54288368, 6.20474316, 0.39667179],
        [0.0053405, 0.00184998, 6.40598635]
      ],
      "pbc": [true, true, true],
      "a": 3.18611636593331,
      "b": 6.405987530471702,
      "c": 6.405988843242905,
      "alpha": 86.42227447556924,
      "beta": 75.60042835505735,
      "gamma": 75.60042379417594,
      "volume": 122.66179354626934
    },
    "properties": {},
    "sites": [
      {
        "species": [{ "element": "V", "occu": 1 }],
        "abc": [0.34264897, 0.65735203, 0.6573510300000001],
        "properties": { "magmom": -0.0 },
        "label": "V",
        "xyz": [2.0753774127255142, 4.079916598113094, 4.742344795092539]
      },
      {
        "species": [{ "element": "V", "occu": 1 }],
        "abc": [-0.0, 0.34252843, 0.65747157],
        "properties": { "magmom": -0.0 },
        "label": "V",
        "xyz": [0.5319927515026075, 2.126517242403107, 4.347625268387059]
      },
      {
        "species": [{ "element": "V", "occu": 1 }],
        "abc": [0.0, 0.65747157, 0.34252843],
        "properties": { "magmom": -0.0 },
        "label": "V",
        "xyz": [1.0162314284973928, 4.080075897596892, 2.455032871612941]
      },
      {
        "species": [{ "element": "V", "occu": 1 }],
        "abc": [0.6573510300000001, 0.34264797, 0.34264897],
        "properties": { "magmom": -0.0 },
        "label": "V",
        "xyz": [2.5595308172744864, 2.126676541886906, 2.8500722149074615]
      },
      {
        "species": [{ "element": "Zn", "occu": 1 }],
        "abc": [-0.0, 0.0, 0.0],
        "properties": { "magmom": 0.0 },
        "label": "Zn",
        "xyz": [0.0, 0.0, 0.0]
      },
      {
        "species": [{ "element": "Zn", "occu": 1 }],
        "abc": [0.33049073, 2.7230000000000002e-5, 0.3389893],
        "properties": { "magmom": 0.0 },
        "label": "Zn",
        "xyz": [1.0219728500431131, 0.0007960785814608001, 2.4325796154391717]
      },
      {
        "species": [{ "element": "Zn", "occu": 1 }],
        "abc": [0.66950927, 0.6610107, 0.9999727700000001],
        "properties": { "magmom": 0.0 },
        "label": "Zn",
        "xyz": [3.091766560949705, 4.103251549136856, 7.196767097099569]
      },
      {
        "species": [{ "element": "Zn", "occu": 1 }],
        "abc": [0.33049073, 0.3389893, 2.7230000000000002e-5],
        "properties": { "magmom": 0.0 },
        "label": "Zn",
        "xyz": [1.5431416690502957, 2.103341590863143, 0.3956499129004326]
      },
      {
        "species": [{ "element": "Zn", "occu": 1 }],
        "abc": [0.66950927, 0.9999727700000001, 0.6610107],
        "properties": { "magmom": 0.0 },
        "label": "Zn",
        "xyz": [3.612935379956888, 6.205797061418539, 5.159837394560828]
      }
    ]
  },
  "task_ids": null,
  "uncorrected_energy_per_atom": null,
  "energy_per_atom": -11.285578304444444,
  "formation_energy_per_atom": -0.07320986611111001,
  "energy_above_hull": 0.0,
  "is_stable": true,
  "equilibrium_reaction_energy_per_atom": null,
  "decomposes_to": null,
  "xas": null,
  "grain_boundaries": null,
  "band_gap": 0.0,
  "cbm": null,
  "vbm": null,
  "efermi": 4.40697686,
  "is_gap_direct": null,
  "is_metal": null,
  "es_source_calc_id": null,
  "bandstructure": null,
  "dos": null,
  "dos_energy_up": null,
  "dos_energy_down": null,
  "is_magnetic": null,
  "ordering": null,
  "total_magnetization": 0.0002091,
  "total_magnetization_normalized_vol": null,
  "total_magnetization_normalized_formula_units": null,
  "num_magnetic_sites": null,
  "num_unique_magnetic_sites": null,
  "types_of_magnetic_species": null,
  "bulk_modulus": null,
  "shear_modulus": null,
  "universal_anisotropy": null,
  "homogeneous_poisson": null,
  "e_total": null,
  "e_ionic": null,
  "e_electronic": null,
  "n": null,
  "e_ij_max": null,
  "weighted_surface_energy_EV_PER_ANG2": null,
  "weighted_surface_energy": null,
  "weighted_work_function": null,
  "surface_anisotropy": null,
  "shape_factor": null,
  "has_reconstructed": null,
  "possible_species": null,
  "has_props": null,
  "theoretical": null,
  "database_IDs": null,
  "fields_not_requested": [
    "builder_meta",
    "nsites",
    "elements",
    "nelements",
    "composition",
    "composition_reduced",
    "chemsys",
    "symmetry",
    "property_name",
    "deprecated",
    "deprecation_reasons",
    "last_updated",
    "origins",
    "warnings",
    "task_ids",
    "uncorrected_energy_per_atom",
    "equilibrium_reaction_energy_per_atom",
    "decomposes_to",
    "xas",
    "grain_boundaries",
    "cbm",
    "vbm",
    "is_gap_direct",
    "is_metal",
    "es_source_calc_id",
    "bandstructure",
    "dos",
    "dos_energy_up",
    "dos_energy_down",
    "is_magnetic",
    "ordering",
    "total_magnetization_normalized_vol",
    "total_magnetization_normalized_formula_units",
    "num_magnetic_sites",
    "num_unique_magnetic_sites",
    "types_of_magnetic_species",
    "bulk_modulus",
    "shear_modulus",
    "universal_anisotropy",
    "homogeneous_poisson",
    "e_total",
    "e_ionic",
    "e_electronic",
    "n",
    "e_ij_max",
    "weighted_surface_energy_EV_PER_ANG2",
    "weighted_surface_energy",
    "weighted_work_function",
    "surface_anisotropy",
    "shape_factor",
    "has_reconstructed",
    "possible_species",
    "has_props",
    "theoretical",
    "database_IDs"
  ]
}
