{"builder_meta": null, "nsites": null, "elements": null, "nelements": null, "composition": null, "composition_reduced": null, "formula_pretty": "V5As3", "formula_anonymous": "A3B5", "chemsys": null, "volume": 458.45470783952027, "density": 6.946662096716909, "density_atomic": 14.326709619985008, "symmetry": null, "property_name": null, "material_id": "mp-505541", "deprecated": null, "deprecation_reasons": null, "last_updated": null, "origins": null, "warnings": null, "structure": {"@module": "pymatgen.core.structure", "@class": "Structure", "charge": 0, "lattice": {"matrix": [[6.463946, 0.0, 0.0], [0.0, 7.521616, 0.0], [0.0, 0.0, 9.429476]], "pbc": [true, true, true], "a": 6.463946, "b": 7.521616, "c": 9.429476, "alpha": 90.0, "beta": 90.0, "gamma": 90.0, "volume": 458.45470783952027}, "properties": {}, "sites": [{"species": [{"element": "V", "occu": 1}], "abc": [0.649795, 0.75, 0.278385999999999], "properties": {"magmom": -0.001}, "label": "V", "xyz": [4.2002397910700005, 5.6412119999999994, 2.6250341057359905]}, {"species": [{"element": "V", "occu": 1}], "abc": [0.149794999999999, 0.25, 0.221613999999999], "properties": {"magmom": -0.001}, "label": "V", "xyz": [0.9682667910699936, 1.880404, 2.0897038942639905]}, {"species": [{"element": "V", "occu": 1}], "abc": [0.350205, 0.25, 0.721614], "properties": {"magmom": -0.001}, "label": "V", "xyz": [2.26370620893, 1.880404, 6.8044418942639995]}, {"species": [{"element": "V", "occu": 1}], "abc": [0.850205, 0.75, 0.778385999999999], "properties": {"magmom": -0.001}, "label": "V", "xyz": [5.4956792089299995, 5.6412119999999994, 7.339772105735991]}, {"species": [{"element": "V", "occu": 1}], "abc": [0.19876000000000002, 0.75, 0.247607], "properties": {"magmom": 0.001}, "label": "V", "xyz": [1.2847739069600002, 5.6412119999999994, 2.334804263932]}, {"species": [{"element": "V", "occu": 1}], "abc": [0.69876, 0.25, 0.252393], "properties": {"magmom": 0.001}, "label": "V", "xyz": [4.51674690696, 1.880404, 2.3799337360679997]}, {"species": [{"element": "V", "occu": 1}], "abc": [0.8012400000000001, 0.25, 0.752393], "properties": {"magmom": 0.001}, "label": "V", "xyz": [5.17917209304, 1.880404, 7.094671736067999]}, {"species": [{"element": "V", "occu": 1}], "abc": [0.30124, 0.75, 0.747607], "properties": {"magmom": 0.001}, "label": "V", "xyz": [1.94719909304, 5.6412119999999994, 7.049542263932]}, {"species": [{"element": "V", "occu": 1}], "abc": [0.471595999999999, 0.75, 0.009556], "properties": {"magmom": -0.0}, "label": "V", "xyz": [3.0483710778159936, 5.6412119999999994, 0.090108072656]}, {"species": [{"element": "V", "occu": 1}], "abc": [0.9715959999999991, 0.25, 0.490444], "properties": {"magmom": -0.001}, "label": "V", "xyz": [6.280344077815994, 1.880404, 4.6246299273439995]}, {"species": [{"element": "V", "occu": 1}], "abc": [0.528404, 0.25, 0.990444], "properties": {"magmom": -0.001}, "label": "V", "xyz": [3.4155749221839997, 1.880404, 9.339367927344]}, {"species": [{"element": "V", "occu": 1}], "abc": [0.028404, 0.75, 0.509556], "properties": {"magmom": -0.0}, "label": "V", "xyz": [0.18360192218399998, 5.6412119999999994, 4.804846072656]}, {"species": [{"element": "V", "occu": 1}], "abc": [0.794995999999999, 0.941384, 0.076814], "properties": {"magmom": 0.0}, "label": "V", "xyz": [5.138811214215994, 7.080728956544, 0.7243157694639999]}, {"species": [{"element": "V", "occu": 1}], "abc": [0.294996, 0.058615999999999, 0.423186], "properties": {"magmom": 0.0}, "label": "V", "xyz": [1.9068382142159999, 0.4408870434559925, 3.9904222305359998]}, {"species": [{"element": "V", "occu": 1}], "abc": [0.205004, 0.441384, 0.923186], "properties": {"magmom": 0.0}, "label": "V", "xyz": [1.325134785784, 3.3199209565439998, 8.705160230535999]}, {"species": [{"element": "V", "occu": 1}], "abc": [0.705004, 0.558616, 0.576813999999999], "properties": {"magmom": 0.0}, "label": "V", "xyz": [4.557107785784, 4.201695043456, 5.439053769463991]}, {"species": [{"element": "V", "occu": 1}], "abc": [0.205004, 0.058615999999999, 0.923186], "properties": {"magmom": -0.0}, "label": "V", "xyz": [1.325134785784, 0.4408870434559925, 8.705160230535999]}, {"species": [{"element": "V", "occu": 1}], "abc": [0.705004, 0.941384, 0.576813999999999], "properties": {"magmom": 0.0}, "label": "V", "xyz": [4.557107785784, 7.080728956544, 5.439053769463991]}, {"species": [{"element": "V", "occu": 1}], "abc": [0.794995999999999, 0.558616, 0.076814], "properties": {"magmom": 0.0}, "label": "V", "xyz": [5.138811214215994, 4.201695043456, 0.7243157694639999]}, {"species": [{"element": "V", "occu": 1}], "abc": [0.294996, 0.441384, 0.423186], "properties": {"magmom": 0.0}, "label": "V", "xyz": [1.9068382142159999, 3.3199209565439998, 3.9904222305359998]}, {"species": [{"element": "As", "occu": 1}], "abc": [0.417421, 0.75, 0.489193], "properties": {"magmom": 0.0}, "label": "As", "xyz": [2.6981868032659997, 5.6412119999999994, 4.612833652868]}, {"species": [{"element": "As", "occu": 1}], "abc": [0.917420999999999, 0.25, 0.010806999999999001], "properties": {"magmom": 0.0}, "label": "As", "xyz": [5.930159803265994, 1.880404, 0.10190434713199058]}, {"species": [{"element": "As", "occu": 1}], "abc": [0.582579, 0.25, 0.510807], "properties": {"magmom": 0.0}, "label": "As", "xyz": [3.765759196734, 1.880404, 4.8166423471319995]}, {"species": [{"element": "As", "occu": 1}], "abc": [0.082579, 0.75, 0.989193], "properties": {"magmom": 0.0}, "label": "As", "xyz": [0.533786196734, 5.6412119999999994, 9.327571652867999]}, {"species": [{"element": "As", "occu": 1}], "abc": [0.926037999999999, 0.515278999999999, 0.32853000000000004], "properties": {"magmom": 0.0}, "label": "As", "xyz": [5.9858596259479935, 3.8757307708639925, 3.09786575028]}, {"species": [{"element": "As", "occu": 1}], "abc": [0.426038, 0.484720999999999, 0.17147], "properties": {"magmom": 0.0}, "label": "As", "xyz": [2.7538866259479997, 3.6458852291359927, 1.6168722497199999]}, {"species": [{"element": "As", "occu": 1}], "abc": [0.073962, 0.015279, 0.67147], "properties": {"magmom": 0.0}, "label": "As", "xyz": [0.478086374052, 0.11492277086399999, 6.33161024972]}, {"species": [{"element": "As", "occu": 1}], "abc": [0.573962, 0.984721, 0.8285300000000001], "properties": {"magmom": 0.0}, "label": "As", "xyz": [3.710059374052, 7.406693229136, 7.81260375028]}, {"species": [{"element": "As", "occu": 1}], "abc": [0.073962, 0.484720999999999, 0.67147], "properties": {"magmom": 0.0}, "label": "As", "xyz": [0.478086374052, 3.6458852291359927, 6.33161024972]}, {"species": [{"element": "As", "occu": 1}], "abc": [0.573962, 0.515278999999999, 0.8285300000000001], "properties": {"magmom": 0.0}, "label": "As", "xyz": [3.710059374052, 3.8757307708639925, 7.81260375028]}, {"species": [{"element": "As", "occu": 1}], "abc": [0.926037999999999, 0.984721, 0.32853000000000004], "properties": {"magmom": 0.0}, "label": "As", "xyz": [5.9858596259479935, 7.406693229136, 3.09786575028]}, {"species": [{"element": "As", "occu": 1}], "abc": [0.426038, 0.015279, 0.17147], "properties": {"magmom": 0.0}, "label": "As", "xyz": [2.7538866259479997, 0.11492277086399999, 1.6168722497199999]}]}, "task_ids": null, "uncorrected_energy_per_atom": null, "energy_per_atom": -14.866019826562498, "formation_energy_per_atom": -0.544710874999998, "energy_above_hull": 0.0454854159375, "is_stable": false, "equilibrium_reaction_energy_per_atom": null, "decomposes_to": null, "xas": null, "grain_boundaries": null, "band_gap": 0.0, "cbm": null, "vbm": null, "efermi": 7.45892466, "is_gap_direct": null, "is_metal": null, "es_source_calc_id": null, "bandstructure": null, "dos": null, "dos_energy_up": null, "dos_energy_down": null, "is_magnetic": null, "ordering": null, "total_magnetization": 0.003086599999999, "total_magnetization_normalized_vol": null, "total_magnetization_normalized_formula_units": null, "num_magnetic_sites": null, "num_unique_magnetic_sites": null, "types_of_magnetic_species": null, "bulk_modulus": null, "shear_modulus": null, "universal_anisotropy": null, "homogeneous_poisson": null, "e_total": null, "e_ionic": null, "e_electronic": null, "n": null, "e_ij_max": null, "weighted_surface_energy_EV_PER_ANG2": null, "weighted_surface_energy": null, "weighted_work_function": null, "surface_anisotropy": null, "shape_factor": null, "has_reconstructed": null, "possible_species": null, "has_props": null, "theoretical": null, "database_IDs": null, "fields_not_requested": ["builder_meta", "nsites", "elements", "nelements", "composition", "composition_reduced", "chemsys", "symmetry", "property_name", "deprecated", "deprecation_reasons", "last_updated", "origins", "warnings", "task_ids", "uncorrected_energy_per_atom", "equilibrium_reaction_energy_per_atom", "decomposes_to", "xas", "grain_boundaries", "cbm", "vbm", "is_gap_direct", "is_metal", "es_source_calc_id", "bandstructure", "dos", "dos_energy_up", "dos_energy_down", "is_magnetic", "ordering", "total_magnetization_normalized_vol", "total_magnetization_normalized_formula_units", "num_magnetic_sites", "num_unique_magnetic_sites", "types_of_magnetic_species", "bulk_modulus", "shear_modulus", "universal_anisotropy", "homogeneous_poisson", "e_total", "e_ionic", "e_electronic", "n", "e_ij_max", "weighted_surface_energy_EV_PER_ANG2", "weighted_surface_energy", "weighted_work_function", "surface_anisotropy", "shape_factor", "has_reconstructed", "possible_species", "has_props", "theoretical", "database_IDs"]}