{
  "builder_meta": null,
  "nsites": null,
  "elements": null,
  "nelements": null,
  "composition": null,
  "composition_reduced": null,
  "formula_pretty": "V5B3",
  "formula_anonymous": "A3B5",
  "chemsys": null,
  "volume": 165.12049893639053,
  "density": 5.775273463008833,
  "density_atomic": 10.320031183524408,
  "symmetry": null,
  "property_name": null,
  "material_id": "mp-1188836",
  "deprecated": null,
  "deprecation_reasons": null,
  "last_updated": null,
  "origins": null,
  "warnings": null,
  "structure": {
    "@module": "pymatgen.core.structure",
    "@class": "Structure",
    "charge": 0,
    "lattice": {
      "matrix": [
        [5.643378, 0.0, 0.0],
        [0.0, 5.643378, 0.0],
        [-2.821689, -2.821689, 5.184689]
      ],
      "pbc": [true, true, true],
      "a": 5.643378,
      "b": 5.643378,
      "c": 6.5425421398843895,
      "alpha": 115.54902758785498,
      "beta": 115.54902758785498,
      "gamma": 90.0,
      "volume": 165.12049893639053
    },
    "properties": {},
    "sites": [
      {
        "species": [{ "element": "V", "occu": 1 }],
        "abc": [0.5, 0.5, 0.0],
        "properties": { "magmom": 0.0 },
        "label": "V",
        "xyz": [2.821689, 2.821689, 0.0]
      },
      {
        "species": [{ "element": "V", "occu": 1 }],
        "abc": [0.0, 0.0, 0.0],
        "properties": { "magmom": 0.0 },
        "label": "V",
        "xyz": [0.0, 0.0, 0.0]
      },
      {
        "species": [{ "element": "V", "occu": 1 }],
        "abc": [0.031275, 0.531274999999999, 0.714364],
        "properties": { "magmom": -0.0 },
        "label": "V",
        "xyz": [-1.8392163938460002, 0.9824726061539946, 3.703755172796]
      },
      {
        "species": [{ "element": "V", "occu": 1 }],
        "abc": [0.683087999999999, 0.183088, 0.714364],
        "properties": { "magmom": 0.0 },
        "label": "V",
        "xyz": [1.8392107504679944, -0.9824782495320001, 3.703755172796]
      },
      {
        "species": [{ "element": "V", "occu": 1 }],
        "abc": [0.183088, 0.031275, 0.714364],
        "properties": { "magmom": -0.0 },
        "label": "V",
        "xyz": [-0.9824782495320001, -1.8392163938460002, 3.703755172796]
      },
      {
        "species": [{ "element": "V", "occu": 1 }],
        "abc": [0.531274999999999, 0.683087999999999, 0.714364],
        "properties": { "magmom": -0.0 },
        "label": "V",
        "xyz": [0.9824726061539946, 1.8392107504679944, 3.703755172796]
      },
      {
        "species": [{ "element": "V", "occu": 1 }],
        "abc": [0.968725, 0.468725, 0.285636],
        "properties": { "magmom": -0.0 },
        "label": "V",
        "xyz": [4.660905393846, 1.8392163938460002, 1.4809338272039998]
      },
      {
        "species": [{ "element": "V", "occu": 1 }],
        "abc": [0.31691199999999903, 0.816912, 0.285636],
        "properties": { "magmom": 0.0 },
        "label": "V",
        "xyz": [0.9824782495319945, 3.804167249532, 1.4809338272039998]
      },
      {
        "species": [{ "element": "V", "occu": 1 }],
        "abc": [0.816912, 0.968725, 0.285636],
        "properties": { "magmom": -0.0 },
        "label": "V",
        "xyz": [3.804167249532, 4.660905393846, 1.4809338272039998]
      },
      {
        "species": [{ "element": "V", "occu": 1 }],
        "abc": [0.468725, 0.31691199999999903, 0.285636],
        "properties": { "magmom": -0.0 },
        "label": "V",
        "xyz": [1.8392163938460002, 0.9824782495319945, 1.4809338272039998]
      },
      {
        "species": [{ "element": "B", "occu": 1 }],
        "abc": [0.25, 0.25, 0.5],
        "properties": { "magmom": 0.0 },
        "label": "B",
        "xyz": [0.0, 0.0, 2.5923445]
      },
      {
        "species": [{ "element": "B", "occu": 1 }],
        "abc": [0.75, 0.75, 0.5],
        "properties": { "magmom": 0.0 },
        "label": "B",
        "xyz": [2.8216890000000006, 2.8216890000000006, 2.5923445]
      },
      {
        "species": [{ "element": "B", "occu": 1 }],
        "abc": [0.613514999999999, 0.113514999999999, 0.0],
        "properties": { "magmom": 0.0 },
        "label": "B",
        "xyz": [3.4622970536699946, 0.6406080536699944, 0.0]
      },
      {
        "species": [{ "element": "B", "occu": 1 }],
        "abc": [0.386484999999999, 0.886485, 0.0],
        "properties": { "magmom": 0.0 },
        "label": "B",
        "xyz": [2.1810809463299945, 5.00276994633, 0.0]
      },
      {
        "species": [{ "element": "B", "occu": 1 }],
        "abc": [0.886485, 0.613514999999999, 0.0],
        "properties": { "magmom": 0.0 },
        "label": "B",
        "xyz": [5.00276994633, 3.4622970536699946, 0.0]
      },
      {
        "species": [{ "element": "B", "occu": 1 }],
        "abc": [0.113514999999999, 0.386484999999999, 0.0],
        "properties": { "magmom": 0.0 },
        "label": "B",
        "xyz": [0.6406080536699944, 2.1810809463299945, 0.0]
      }
    ]
  },
  "task_ids": null,
  "uncorrected_energy_per_atom": null,
  "energy_per_atom": -12.231379172187502,
  "formation_energy_per_atom": -0.6705115168750001,
  "energy_above_hull": 0.05791471718749801,
  "is_stable": false,
  "equilibrium_reaction_energy_per_atom": null,
  "decomposes_to": null,
  "xas": null,
  "grain_boundaries": null,
  "band_gap": 0.0,
  "cbm": null,
  "vbm": null,
  "efermi": 6.48645153,
  "is_gap_direct": null,
  "is_metal": null,
  "es_source_calc_id": null,
  "bandstructure": null,
  "dos": null,
  "dos_energy_up": null,
  "dos_energy_down": null,
  "is_magnetic": null,
  "ordering": null,
  "total_magnetization": 0.000793,
  "total_magnetization_normalized_vol": null,
  "total_magnetization_normalized_formula_units": null,
  "num_magnetic_sites": null,
  "num_unique_magnetic_sites": null,
  "types_of_magnetic_species": null,
  "bulk_modulus": null,
  "shear_modulus": null,
  "universal_anisotropy": null,
  "homogeneous_poisson": null,
  "e_total": null,
  "e_ionic": null,
  "e_electronic": null,
  "n": null,
  "e_ij_max": null,
  "weighted_surface_energy_EV_PER_ANG2": null,
  "weighted_surface_energy": null,
  "weighted_work_function": null,
  "surface_anisotropy": null,
  "shape_factor": null,
  "has_reconstructed": null,
  "possible_species": null,
  "has_props": null,
  "theoretical": null,
  "database_IDs": null,
  "fields_not_requested": [
    "builder_meta",
    "nsites",
    "elements",
    "nelements",
    "composition",
    "composition_reduced",
    "chemsys",
    "symmetry",
    "property_name",
    "deprecated",
    "deprecation_reasons",
    "last_updated",
    "origins",
    "warnings",
    "task_ids",
    "uncorrected_energy_per_atom",
    "equilibrium_reaction_energy_per_atom",
    "decomposes_to",
    "xas",
    "grain_boundaries",
    "cbm",
    "vbm",
    "is_gap_direct",
    "is_metal",
    "es_source_calc_id",
    "bandstructure",
    "dos",
    "dos_energy_up",
    "dos_energy_down",
    "is_magnetic",
    "ordering",
    "total_magnetization_normalized_vol",
    "total_magnetization_normalized_formula_units",
    "num_magnetic_sites",
    "num_unique_magnetic_sites",
    "types_of_magnetic_species",
    "bulk_modulus",
    "shear_modulus",
    "universal_anisotropy",
    "homogeneous_poisson",
    "e_total",
    "e_ionic",
    "e_electronic",
    "n",
    "e_ij_max",
    "weighted_surface_energy_EV_PER_ANG2",
    "weighted_surface_energy",
    "weighted_work_function",
    "surface_anisotropy",
    "shape_factor",
    "has_reconstructed",
    "possible_species",
    "has_props",
    "theoretical",
    "database_IDs"
  ]
}
