{"builder_meta": null, "nsites": null, "elements": null, "nelements": null, "composition": null, "composition_reduced": null, "formula_pretty": "V5B6", "formula_anonymous": "A5B6", "chemsys": null, "volume": 95.2502780590162, "density": 5.571262280948936, "density_atomic": 8.65911618718329, "symmetry": null, "property_name": null, "material_id": "mp-1206441", "deprecated": null, "deprecation_reasons": null, "last_updated": null, "origins": null, "warnings": null, "structure": {"@module": "pymatgen.core.structure", "@class": "Structure", "charge": 0, "lattice": {"matrix": [[2.96752672, -0.0, 0.0], [0.0, 0.0, 3.03389158], [-1.4837623500000001, -10.57965626, 0.0]], "pbc": [true, true, true], "a": 2.96752672, "b": 3.03389158, "c": 10.683196024179034, "alpha": 90.0, "beta": 97.98347558452024, "gamma": 90.0, "volume": 95.2502780590162}, "properties": {}, "sites": [{"species": [{"element": "V", "occu": 1}], "abc": [0.80573521, 0.5, 0.61146841], "properties": {"magmom": -0.0}, "label": "V", "xyz": [1.483766959947448, -6.469125591648746, 1.51694579]}, {"species": [{"element": "V", "occu": 1}], "abc": [0.19426479, 0.5, 0.38853059], "properties": {"magmom": -0.0}, "label": "V", "xyz": [-1.1061850978544285e-06, -4.110520088694994, 1.51694579]}, {"species": [{"element": "V", "occu": 1}], "abc": [0.61677036, -0.0, 0.23354172], "properties": {"magmom": 0.0}, "label": "V", "xyz": [1.483762112113777, -2.4707911199691672, 0.0]}, {"species": [{"element": "V", "occu": 1}], "abc": [0.38322964, 0.0, 0.76645828], "properties": {"magmom": 0.0}, "label": "V", "xyz": [2.2578862226563245e-06, -8.108865140030833, 0.0]}, {"species": [{"element": "V", "occu": 1}], "abc": [0.0, 0.0, 0.0], "properties": {"magmom": -0.0}, "label": "V", "xyz": [0.0, 0.0, 0.0]}, {"species": [{"element": "B", "occu": 1}], "abc": [0.91500336, 0.5, 0.83000772], "properties": {"magmom": -0.0}, "label": "B", "xyz": [1.4837627145444372, -8.781196370746327, 1.51694579]}, {"species": [{"element": "B", "occu": 1}], "abc": [0.08499664, 0.5, 0.16999228], "properties": {"magmom": -0.0}, "label": "B", "xyz": [1.655455562799002e-06, -1.7984598892536727, 1.51694579]}, {"species": [{"element": "B", "occu": 1}], "abc": [0.54084396, 0.5, 0.08168792], "properties": {"magmom": 0.0}, "label": "B", "xyz": [1.4837634425047994, -0.8642301141943792, 1.51694579]}, {"species": [{"element": "B", "occu": 1}], "abc": [0.45915604, 0.5, 0.91831208], "properties": {"magmom": 0.0}, "label": "B", "xyz": [9.2749520064217e-07, -9.71542614580562, 1.51694579]}, {"species": [{"element": "B", "occu": 1}], "abc": [0.72608986, 0.0, 0.45217973], "properties": {"magmom": 0.0}, "label": "B", "xyz": [1.4837638018638935, -4.7839061111396095, 0.0]}, {"species": [{"element": "B", "occu": 1}], "abc": [0.27391014, 0.0, 0.54782027], "properties": {"magmom": 0.0}, "label": "B", "xyz": [5.681361062714885e-07, -5.795750148860391, 0.0]}]}, "task_ids": null, "uncorrected_energy_per_atom": null, "energy_per_atom": -11.286286438181818, "formation_energy_per_atom": -0.874831544090908, "energy_above_hull": 0.0, "is_stable": true, "equilibrium_reaction_energy_per_atom": null, "decomposes_to": null, "xas": null, "grain_boundaries": null, "band_gap": 0.0, "cbm": null, "vbm": null, "efermi": 7.90459362, "is_gap_direct": null, "is_metal": null, "es_source_calc_id": null, "bandstructure": null, "dos": null, "dos_energy_up": null, "dos_energy_down": null, "is_magnetic": null, "ordering": null, "total_magnetization": 0.0, "total_magnetization_normalized_vol": null, "total_magnetization_normalized_formula_units": null, "num_magnetic_sites": null, "num_unique_magnetic_sites": null, "types_of_magnetic_species": null, "bulk_modulus": null, "shear_modulus": null, "universal_anisotropy": null, "homogeneous_poisson": null, "e_total": null, "e_ionic": null, "e_electronic": null, "n": null, "e_ij_max": null, "weighted_surface_energy_EV_PER_ANG2": null, "weighted_surface_energy": null, "weighted_work_function": null, "surface_anisotropy": null, "shape_factor": null, "has_reconstructed": null, "possible_species": null, "has_props": null, "theoretical": null, "database_IDs": null, "fields_not_requested": ["builder_meta", "nsites", "elements", "nelements", "composition", "composition_reduced", "chemsys", "symmetry", "property_name", "deprecated", "deprecation_reasons", "last_updated", "origins", "warnings", "task_ids", "uncorrected_energy_per_atom", "equilibrium_reaction_energy_per_atom", "decomposes_to", "xas", "grain_boundaries", "cbm", "vbm", "is_gap_direct", "is_metal", "es_source_calc_id", "bandstructure", "dos", "dos_energy_up", "dos_energy_down", "is_magnetic", "ordering", "total_magnetization_normalized_vol", "total_magnetization_normalized_formula_units", "num_magnetic_sites", "num_unique_magnetic_sites", "types_of_magnetic_species", "bulk_modulus", "shear_modulus", "universal_anisotropy", "homogeneous_poisson", "e_total", "e_ionic", "e_electronic", "n", "e_ij_max", "weighted_surface_energy_EV_PER_ANG2", "weighted_surface_energy", "weighted_work_function", "surface_anisotropy", "shape_factor", "has_reconstructed", "possible_species", "has_props", "theoretical", "database_IDs"]}