{
  "builder_meta": null,
  "nsites": null,
  "elements": null,
  "nelements": null,
  "composition": null,
  "composition_reduced": null,
  "formula_pretty": "V5Ga3",
  "formula_anonymous": "A3B5",
  "chemsys": null,
  "volume": 229.5440039068621,
  "density": 6.711436911592945,
  "density_atomic": 14.34650024417888,
  "symmetry": null,
  "property_name": null,
  "material_id": "mp-1190304",
  "deprecated": null,
  "deprecation_reasons": null,
  "last_updated": null,
  "origins": null,
  "warnings": null,
  "structure": {
    "@module": "pymatgen.core.structure",
    "@class": "Structure",
    "charge": 0,
    "lattice": {
      "matrix": [
        [7.351339, 0.0, 0.0],
        [-3.675669, 6.366446, 0.0],
        [0.0, 0.0, 4.904587]
      ],
      "pbc": [true, true, true],
      "a": 7.351339,
      "b": 7.351338467821829,
      "c": 4.904587,
      "alpha": 90.0,
      "beta": 90.0,
      "gamma": 119.99999789488383,
      "volume": 229.5440039068621
    },
    "properties": {},
    "sites": [
      {
        "species": [{ "element": "V", "occu": 1 }],
        "abc": [0.666667, 0.333333, 0.0],
        "properties": { "magmom": -0.024 },
        "label": "V",
        "xyz": [3.675673342336, 2.122146544518, 0.0]
      },
      {
        "species": [{ "element": "V", "occu": 1 }],
        "abc": [0.333333, 0.666667, 0.0],
        "properties": { "magmom": -0.024 },
        "label": "V",
        "xyz": [-3.34233600041145e-6, 4.244299455482, 0.0]
      },
      {
        "species": [{ "element": "V", "occu": 1 }],
        "abc": [0.333333, 0.666667, 0.5],
        "properties": { "magmom": -0.024 },
        "label": "V",
        "xyz": [-3.34233600041145e-6, 4.244299455482, 2.4522935]
      },
      {
        "species": [{ "element": "V", "occu": 1 }],
        "abc": [0.666667, 0.333333, 0.5],
        "properties": { "magmom": -0.024 },
        "label": "V",
        "xyz": [3.675673342336, 2.122146544518, 2.4522935]
      },
      {
        "species": [{ "element": "V", "occu": 1 }],
        "abc": [0.756903, 0.756903, 0.75],
        "properties": { "magmom": 0.436 },
        "label": "V",
        "xyz": [2.78212565001, 4.818782076738, 3.6784402500000004]
      },
      {
        "species": [{ "element": "V", "occu": 1 }],
        "abc": [0.243096999999999, 0.0, 0.75],
        "properties": { "magmom": 0.436 },
        "label": "V",
        "xyz": [1.7870884568829928, 0.0, 3.6784402500000004]
      },
      {
        "species": [{ "element": "V", "occu": 1 }],
        "abc": [0.0, 0.243096999999999, 0.75],
        "properties": { "magmom": 0.436 },
        "label": "V",
        "xyz": [-0.8935441068929963, 1.5476639232619935, 3.6784402500000004]
      },
      {
        "species": [{ "element": "V", "occu": 1 }],
        "abc": [0.243096999999999, 0.243096999999999, 0.25],
        "properties": { "magmom": 0.436 },
        "label": "V",
        "xyz": [0.8935443499899964, 1.5476639232619935, 1.22614675]
      },
      {
        "species": [{ "element": "V", "occu": 1 }],
        "abc": [0.756903, 0.0, 0.25],
        "properties": { "magmom": 0.436 },
        "label": "V",
        "xyz": [5.564250543117, 0.0, 1.22614675]
      },
      {
        "species": [{ "element": "V", "occu": 1 }],
        "abc": [0.0, 0.756903, 0.25],
        "properties": { "magmom": 0.436 },
        "label": "V",
        "xyz": [-2.782124893107, 4.818782076738, 1.22614675]
      },
      {
        "species": [{ "element": "Ga", "occu": 1 }],
        "abc": [0.394208, 0.394208, 0.75],
        "properties": { "magmom": -0.014 },
        "label": "Ga",
        "xyz": [1.44897851936, 2.509703944768, 3.6784402500000004]
      },
      {
        "species": [{ "element": "Ga", "occu": 1 }],
        "abc": [0.605792, 0.0, 0.75],
        "properties": { "magmom": -0.014 },
        "label": "Ga",
        "xyz": [4.453382355488, 0.0, 3.6784402500000004]
      },
      {
        "species": [{ "element": "Ga", "occu": 1 }],
        "abc": [0.0, 0.605792, 0.75],
        "properties": { "magmom": -0.014 },
        "label": "Ga",
        "xyz": [-2.226690874848, 3.856742055232, 3.6784402500000004]
      },
      {
        "species": [{ "element": "Ga", "occu": 1 }],
        "abc": [0.605792, 0.605792, 0.25],
        "properties": { "magmom": -0.014 },
        "label": "Ga",
        "xyz": [2.2266914806400004, 3.856742055232, 1.22614675]
      },
      {
        "species": [{ "element": "Ga", "occu": 1 }],
        "abc": [0.394208, 0.0, 0.25],
        "properties": { "magmom": -0.014 },
        "label": "Ga",
        "xyz": [2.897956644512, 0.0, 1.22614675]
      },
      {
        "species": [{ "element": "Ga", "occu": 1 }],
        "abc": [0.0, 0.394208, 0.25],
        "properties": { "magmom": -0.014 },
        "label": "Ga",
        "xyz": [-1.448978125152, 2.509703944768, 1.22614675]
      }
    ]
  },
  "task_ids": null,
  "uncorrected_energy_per_atom": null,
  "energy_per_atom": -13.259644098611112,
  "formation_energy_per_atom": -0.162618286111111,
  "energy_above_hull": 0.08278061909722101,
  "is_stable": false,
  "equilibrium_reaction_energy_per_atom": null,
  "decomposes_to": null,
  "xas": null,
  "grain_boundaries": null,
  "band_gap": 0.0,
  "cbm": null,
  "vbm": null,
  "efermi": 5.25423597,
  "is_gap_direct": null,
  "is_metal": null,
  "es_source_calc_id": null,
  "bandstructure": null,
  "dos": null,
  "dos_energy_up": null,
  "dos_energy_down": null,
  "is_magnetic": null,
  "ordering": null,
  "total_magnetization": 2.7529325,
  "total_magnetization_normalized_vol": null,
  "total_magnetization_normalized_formula_units": null,
  "num_magnetic_sites": null,
  "num_unique_magnetic_sites": null,
  "types_of_magnetic_species": null,
  "bulk_modulus": null,
  "shear_modulus": null,
  "universal_anisotropy": null,
  "homogeneous_poisson": null,
  "e_total": null,
  "e_ionic": null,
  "e_electronic": null,
  "n": null,
  "e_ij_max": null,
  "weighted_surface_energy_EV_PER_ANG2": null,
  "weighted_surface_energy": null,
  "weighted_work_function": null,
  "surface_anisotropy": null,
  "shape_factor": null,
  "has_reconstructed": null,
  "possible_species": null,
  "has_props": null,
  "theoretical": null,
  "database_IDs": null,
  "fields_not_requested": [
    "builder_meta",
    "nsites",
    "elements",
    "nelements",
    "composition",
    "composition_reduced",
    "chemsys",
    "symmetry",
    "property_name",
    "deprecated",
    "deprecation_reasons",
    "last_updated",
    "origins",
    "warnings",
    "task_ids",
    "uncorrected_energy_per_atom",
    "equilibrium_reaction_energy_per_atom",
    "decomposes_to",
    "xas",
    "grain_boundaries",
    "cbm",
    "vbm",
    "is_gap_direct",
    "is_metal",
    "es_source_calc_id",
    "bandstructure",
    "dos",
    "dos_energy_up",
    "dos_energy_down",
    "is_magnetic",
    "ordering",
    "total_magnetization_normalized_vol",
    "total_magnetization_normalized_formula_units",
    "num_magnetic_sites",
    "num_unique_magnetic_sites",
    "types_of_magnetic_species",
    "bulk_modulus",
    "shear_modulus",
    "universal_anisotropy",
    "homogeneous_poisson",
    "e_total",
    "e_ionic",
    "e_electronic",
    "n",
    "e_ij_max",
    "weighted_surface_energy_EV_PER_ANG2",
    "weighted_surface_energy",
    "weighted_work_function",
    "surface_anisotropy",
    "shape_factor",
    "has_reconstructed",
    "possible_species",
    "has_props",
    "theoretical",
    "database_IDs"
  ]
}
