{
  "builder_meta": null,
  "nsites": null,
  "elements": null,
  "nelements": null,
  "composition": null,
  "composition_reduced": null,
  "formula_pretty": "V5Ge3",
  "formula_anonymous": "A3B5",
  "chemsys": null,
  "volume": 222.5010074117655,
  "density": 7.054497746584059,
  "density_atomic": 13.906312963235344,
  "symmetry": null,
  "property_name": null,
  "material_id": "mp-1105285",
  "deprecated": null,
  "deprecation_reasons": null,
  "last_updated": null,
  "origins": null,
  "warnings": null,
  "structure": {
    "@module": "pymatgen.core.structure",
    "@class": "Structure",
    "charge": 0,
    "lattice": {
      "matrix": [
        [0.0, 0.0, 4.853066],
        [-4.787876, 4.787876, 2.426532],
        [-4.787876, -4.787876, 2.426532]
      ],
      "pbc": [true, true, true],
      "a": 4.853066,
      "b": 7.1927443114416345,
      "c": 7.1927443114416345,
      "alpha": 83.46497162060528,
      "beta": 70.2839910231668,
      "gamma": 70.2839910231668,
      "volume": 222.5010074117655
    },
    "properties": {},
    "sites": [
      {
        "species": [{ "element": "V", "occu": 1 }],
        "abc": [0.728588999999999, 0.846279, 0.696542],
        "properties": { "magmom": 0.0 },
        "label": "V",
        "xyz": [-7.386835638196, 0.7169221886120001, 7.279595030645995]
      },
      {
        "species": [{ "element": "V", "occu": 1 }],
        "abc": [0.271411, 0.153721, 0.303458],
        "properties": { "magmom": 0.0 },
        "label": "V",
        "xyz": [-2.188916361804, -0.7169221886120001, 2.426534969354]
      },
      {
        "species": [{ "element": "V", "occu": 1 }],
        "abc": [0.771411, 0.303458, 0.153721],
        "properties": { "magmom": -0.0 },
        "label": "V",
        "xyz": [-2.188916361804, 0.7169221886120001, 4.853067969354]
      },
      {
        "species": [{ "element": "V", "occu": 1 }],
        "abc": [0.228589, 0.696542, 0.846279],
        "properties": { "magmom": -0.0 },
        "label": "V",
        "xyz": [-7.386835638196, -0.7169221886120001, 4.853062030646]
      },
      {
        "species": [{ "element": "V", "occu": 1 }],
        "abc": [0.574867999999999, 0.696542, 0.153721],
        "properties": { "magmom": 0.0 },
        "label": "V",
        "xyz": [-4.070953811388, 2.598959638196, 4.853062723203996]
      },
      {
        "species": [{ "element": "V", "occu": 1 }],
        "abc": [0.425131999999999, 0.303458, 0.846279],
        "properties": { "magmom": 0.0 },
        "label": "V",
        "xyz": [-5.504798188612, -2.598959638196, 4.853067276795995]
      },
      {
        "species": [{ "element": "V", "occu": 1 }],
        "abc": [0.074867999999999, 0.153721, 0.696542],
        "properties": { "magmom": -0.0 },
        "label": "V",
        "xyz": [-4.070953811388, -2.598959638196, 2.426529723203995]
      },
      {
        "species": [{ "element": "V", "occu": 1 }],
        "abc": [0.925132, 0.846279, 0.303458],
        "properties": { "magmom": -0.0 },
        "label": "V",
        "xyz": [-5.504798188612, 2.598959638196, 7.279600276796]
      },
      {
        "species": [{ "element": "V", "occu": 1 }],
        "abc": [0.75, 0.5, 0.5],
        "properties": { "magmom": -0.0 },
        "label": "V",
        "xyz": [-4.787876, 0.0, 6.0663314999999995]
      },
      {
        "species": [{ "element": "V", "occu": 1 }],
        "abc": [0.25, 0.5, 0.5],
        "properties": { "magmom": -0.0 },
        "label": "V",
        "xyz": [-4.787876, 0.0, 3.6397985]
      },
      {
        "species": [{ "element": "Ge", "occu": 1 }],
        "abc": [0.166394, 0.5, 0.167212],
        "properties": { "magmom": -0.0 },
        "label": "Ge",
        "xyz": [-3.1945283217119997, 1.593347678288, 2.4265323327879997]
      },
      {
        "species": [{ "element": "Ge", "occu": 1 }],
        "abc": [0.833606, 0.5, 0.832788],
        "properties": { "magmom": -0.0 },
        "label": "Ge",
        "xyz": [-6.381223678287999, -1.5933476782879996, 7.279597667212]
      },
      {
        "species": [{ "element": "Ge", "occu": 1 }],
        "abc": [0.333605999999999, 0.832788, 0.5],
        "properties": { "magmom": -0.0 },
        "label": "Ge",
        "xyz": [-6.381223678287999, 1.5933476782879996, 4.853064667211996]
      },
      {
        "species": [{ "element": "Ge", "occu": 1 }],
        "abc": [0.666393999999999, 0.167212, 0.5],
        "properties": { "magmom": -0.0 },
        "label": "Ge",
        "xyz": [-3.1945283217119997, -1.593347678288, 4.853065332787995]
      },
      {
        "species": [{ "element": "Ge", "occu": 1 }],
        "abc": [0.25, 0.0, 0.0],
        "properties": { "magmom": -0.0 },
        "label": "Ge",
        "xyz": [0.0, 0.0, 1.2132665]
      },
      {
        "species": [{ "element": "Ge", "occu": 1 }],
        "abc": [0.75, 0.0, 0.0],
        "properties": { "magmom": -0.0 },
        "label": "Ge",
        "xyz": [0.0, 0.0, 3.6397995]
      }
    ]
  },
  "task_ids": null,
  "uncorrected_energy_per_atom": null,
  "energy_per_atom": -7.7813160450000005,
  "formation_energy_per_atom": -0.370239305624999,
  "energy_above_hull": 0.0,
  "is_stable": true,
  "equilibrium_reaction_energy_per_atom": null,
  "decomposes_to": null,
  "xas": null,
  "grain_boundaries": null,
  "band_gap": 0.0,
  "cbm": null,
  "vbm": null,
  "efermi": 6.17377365,
  "is_gap_direct": null,
  "is_metal": null,
  "es_source_calc_id": null,
  "bandstructure": null,
  "dos": null,
  "dos_energy_up": null,
  "dos_energy_down": null,
  "is_magnetic": null,
  "ordering": null,
  "total_magnetization": 0.0023243,
  "total_magnetization_normalized_vol": null,
  "total_magnetization_normalized_formula_units": null,
  "num_magnetic_sites": null,
  "num_unique_magnetic_sites": null,
  "types_of_magnetic_species": null,
  "bulk_modulus": null,
  "shear_modulus": null,
  "universal_anisotropy": null,
  "homogeneous_poisson": null,
  "e_total": null,
  "e_ionic": null,
  "e_electronic": null,
  "n": null,
  "e_ij_max": null,
  "weighted_surface_energy_EV_PER_ANG2": null,
  "weighted_surface_energy": null,
  "weighted_work_function": null,
  "surface_anisotropy": null,
  "shape_factor": null,
  "has_reconstructed": null,
  "possible_species": null,
  "has_props": null,
  "theoretical": null,
  "database_IDs": null,
  "fields_not_requested": [
    "builder_meta",
    "nsites",
    "elements",
    "nelements",
    "composition",
    "composition_reduced",
    "chemsys",
    "symmetry",
    "property_name",
    "deprecated",
    "deprecation_reasons",
    "last_updated",
    "origins",
    "warnings",
    "task_ids",
    "uncorrected_energy_per_atom",
    "equilibrium_reaction_energy_per_atom",
    "decomposes_to",
    "xas",
    "grain_boundaries",
    "cbm",
    "vbm",
    "is_gap_direct",
    "is_metal",
    "es_source_calc_id",
    "bandstructure",
    "dos",
    "dos_energy_up",
    "dos_energy_down",
    "is_magnetic",
    "ordering",
    "total_magnetization_normalized_vol",
    "total_magnetization_normalized_formula_units",
    "num_magnetic_sites",
    "num_unique_magnetic_sites",
    "types_of_magnetic_species",
    "bulk_modulus",
    "shear_modulus",
    "universal_anisotropy",
    "homogeneous_poisson",
    "e_total",
    "e_ionic",
    "e_electronic",
    "n",
    "e_ij_max",
    "weighted_surface_energy_EV_PER_ANG2",
    "weighted_surface_energy",
    "weighted_work_function",
    "surface_anisotropy",
    "shape_factor",
    "has_reconstructed",
    "possible_species",
    "has_props",
    "theoretical",
    "database_IDs"
  ]
}
