{"builder_meta": null, "nsites": null, "elements": null, "nelements": null, "composition": null, "composition_reduced": null, "formula_pretty": "V5O7", "formula_anonymous": "A5B7", "chemsys": null, "volume": 292.36764772295777, "density": 4.165475627988402, "density_atomic": 12.181985321789908, "symmetry": null, "property_name": null, "material_id": "mp-1046039", "deprecated": null, "deprecation_reasons": null, "last_updated": null, "origins": null, "warnings": null, "structure": {"@module": "pymatgen.core.structure", "@class": "Structure", "charge": 0, "lattice": {"matrix": [[1.513366, -5.115239, 0.0], [1.513366, 5.115239, 0.0], [0.0, 0.0, 18.883801]], "pbc": [true, true, true], "a": 5.334411558651713, "b": 5.334411558651713, "c": 18.883801, "alpha": 90.0, "beta": 90.0, "gamma": 147.0378329403661, "volume": 292.36764772295777}, "properties": {}, "sites": [{"species": [{"element": "V", "occu": 1}], "abc": [0.735667, 0.264333, 0.576063], "properties": {"magmom": 1.968}, "label": "V", "xyz": [1.513366, -2.4109860588259995, 10.878259055463]}, {"species": [{"element": "V", "occu": 1}], "abc": [0.0, 0.0, 0.5], "properties": {"magmom": -2.641}, "label": "V", "xyz": [0.0, 0.0, 9.4419005]}, {"species": [{"element": "V", "occu": 1}], "abc": [0.0, 0.0, 0.0], "properties": {"magmom": -2.642}, "label": "V", "xyz": [0.0, 0.0, 0.0]}, {"species": [{"element": "V", "occu": 1}], "abc": [0.264333, 0.735667, 0.423938], "properties": {"magmom": 1.97}, "label": "V", "xyz": [1.513366, 2.4109860588259995, 8.005560828337998]}, {"species": [{"element": "V", "occu": 1}], "abc": [0.264333, 0.735667, 0.076061999999999], "properties": {"magmom": 1.944}, "label": "V", "xyz": [1.513366, 2.4109860588259995, 1.4363396716619812]}, {"species": [{"element": "V", "occu": 1}], "abc": [0.735667, 0.264333, 0.923937999999999], "properties": {"magmom": 1.9460000000000002}, "label": "V", "xyz": [1.513366, -2.4109860588259995, 17.44746132833798]}, {"species": [{"element": "V", "occu": 1}], "abc": [0.520269, 0.479730999999999, 0.158304], "properties": {"magmom": 1.937}, "label": "V", "xyz": [1.5133659999999984, -0.20736155858200478, 2.9893812335039995]}, {"species": [{"element": "V", "occu": 1}], "abc": [0.479730999999999, 0.520269, 0.841696], "properties": {"magmom": 1.937}, "label": "V", "xyz": [1.5133659999999984, 0.20736155858200478, 15.894419766495998]}, {"species": [{"element": "V", "occu": 1}], "abc": [0.479730999999999, 0.520269, 0.658304], "properties": {"magmom": 1.9140000000000001}, "label": "V", "xyz": [1.5133659999999984, 0.20736155858200478, 12.431281733504]}, {"species": [{"element": "V", "occu": 1}], "abc": [0.520269, 0.479730999999999, 0.341696], "properties": {"magmom": 1.912}, "label": "V", "xyz": [1.5133659999999984, -0.20736155858200478, 6.452519266495999]}, {"species": [{"element": "O", "occu": 1}], "abc": [0.352834, 0.647166, 0.973773999999999], "properties": {"magmom": -0.009000000000000001}, "label": "O", "xyz": [1.513366, 1.5055785253480003, 18.38855443497398]}, {"species": [{"element": "O", "occu": 1}], "abc": [0.647166, 0.352834, 0.026226], "properties": {"magmom": -0.009000000000000001}, "label": "O", "xyz": [1.513366, -1.5055785253480003, 0.49524656502599995]}, {"species": [{"element": "O", "occu": 1}], "abc": [0.647166, 0.352834, 0.473774], "properties": {"magmom": -0.009000000000000001}, "label": "O", "xyz": [1.513366, -1.5055785253480003, 8.946653934973998]}, {"species": [{"element": "O", "occu": 1}], "abc": [0.352834, 0.647166, 0.526226], "properties": {"magmom": -0.009000000000000001}, "label": "O", "xyz": [1.513366, 1.5055785253480003, 9.937147065025998]}, {"species": [{"element": "O", "occu": 1}], "abc": [0.855472999999999, 0.144527, 0.846719], "properties": {"magmom": -0.073}, "label": "O", "xyz": [1.5133659999999984, -3.636658706093995, 15.989273098918998]}, {"species": [{"element": "O", "occu": 1}], "abc": [0.144527, 0.855472999999999, 0.153281], "properties": {"magmom": -0.07200000000000001}, "label": "O", "xyz": [1.5133659999999984, 3.636658706093995, 2.8945279010809997]}, {"species": [{"element": "O", "occu": 1}], "abc": [0.144527, 0.855472999999999, 0.346719], "properties": {"magmom": -0.08}, "label": "O", "xyz": [1.5133659999999984, 3.636658706093995, 6.547372598918999]}, {"species": [{"element": "O", "occu": 1}], "abc": [0.855472999999999, 0.144527, 0.653281], "properties": {"magmom": -0.08}, "label": "O", "xyz": [1.5133659999999984, -3.636658706093995, 12.336428401081]}, {"species": [{"element": "O", "occu": 1}], "abc": [0.101379, 0.898621, 0.896766], "properties": {"magmom": 0.004}, "label": "O", "xyz": [1.513366, 4.078083370838001, 16.934350687566]}, {"species": [{"element": "O", "occu": 1}], "abc": [0.898621, 0.101379, 0.10323399999999901], "properties": {"magmom": 0.004}, "label": "O", "xyz": [1.513366, -4.078083370838001, 1.949450312433981]}, {"species": [{"element": "O", "occu": 1}], "abc": [0.898621, 0.101379, 0.396766], "properties": {"magmom": 0.003}, "label": "O", "xyz": [1.513366, -4.078083370838001, 7.492450187566]}, {"species": [{"element": "O", "occu": 1}], "abc": [0.101379, 0.898621, 0.603233999999999], "properties": {"magmom": 0.003}, "label": "O", "xyz": [1.513366, 4.078083370838001, 11.39135081243398]}, {"species": [{"element": "O", "occu": 1}], "abc": [0.5255000000000001, 0.47450000000000003, 0.75], "properties": {"magmom": -0.162}, "label": "O", "xyz": [1.513366, -0.26087718900000034, 14.162850749999999]}, {"species": [{"element": "O", "occu": 1}], "abc": [0.47450000000000003, 0.5255000000000001, 0.25], "properties": {"magmom": -0.161}, "label": "O", "xyz": [1.513366, 0.26087718900000034, 4.72095025]}]}, "task_ids": null, "uncorrected_energy_per_atom": null, "energy_per_atom": -8.953961125416667, "formation_energy_per_atom": -2.2826896766666662, "energy_above_hull": 0.18145391399305402, "is_stable": false, "equilibrium_reaction_energy_per_atom": null, "decomposes_to": null, "xas": null, "grain_boundaries": null, "band_gap": 0.5427000000000001, "cbm": null, "vbm": null, "efermi": 3.95702505, "is_gap_direct": null, "is_metal": null, "es_source_calc_id": null, "bandstructure": null, "dos": null, "dos_energy_up": null, "dos_energy_down": null, "is_magnetic": null, "ordering": null, "total_magnetization": 9.9999999, "total_magnetization_normalized_vol": null, "total_magnetization_normalized_formula_units": null, "num_magnetic_sites": null, "num_unique_magnetic_sites": null, "types_of_magnetic_species": null, "bulk_modulus": null, "shear_modulus": null, "universal_anisotropy": null, "homogeneous_poisson": null, "e_total": null, "e_ionic": null, "e_electronic": null, "n": null, "e_ij_max": null, "weighted_surface_energy_EV_PER_ANG2": null, "weighted_surface_energy": null, "weighted_work_function": null, "surface_anisotropy": null, "shape_factor": null, "has_reconstructed": null, "possible_species": null, "has_props": null, "theoretical": null, "database_IDs": null, "fields_not_requested": ["builder_meta", "nsites", "elements", "nelements", "composition", "composition_reduced", "chemsys", "symmetry", "property_name", "deprecated", "deprecation_reasons", "last_updated", "origins", "warnings", "task_ids", "uncorrected_energy_per_atom", "equilibrium_reaction_energy_per_atom", "decomposes_to", "xas", "grain_boundaries", "cbm", "vbm", "is_gap_direct", "is_metal", "es_source_calc_id", "bandstructure", "dos", "dos_energy_up", "dos_energy_down", "is_magnetic", "ordering", "total_magnetization_normalized_vol", "total_magnetization_normalized_formula_units", "num_magnetic_sites", "num_unique_magnetic_sites", "types_of_magnetic_species", "bulk_modulus", "shear_modulus", "universal_anisotropy", "homogeneous_poisson", "e_total", "e_ionic", "e_electronic", "n", "e_ij_max", "weighted_surface_energy_EV_PER_ANG2", "weighted_surface_energy", "weighted_work_function", "surface_anisotropy", "shape_factor", "has_reconstructed", "possible_species", "has_props", "theoretical", "database_IDs"]}