{
  "builder_meta": null,
  "nsites": null,
  "elements": null,
  "nelements": null,
  "composition": null,
  "composition_reduced": null,
  "formula_pretty": "V5P3",
  "formula_anonymous": "A3B5",
  "chemsys": null,
  "volume": 198.33513111140326,
  "density": 5.8209675370471174,
  "density_atomic": 12.395945694462704,
  "symmetry": null,
  "property_name": null,
  "material_id": "mp-1188605",
  "deprecated": null,
  "deprecation_reasons": null,
  "last_updated": null,
  "origins": null,
  "warnings": null,
  "structure": {
    "@module": "pymatgen.core.structure",
    "@class": "Structure",
    "charge": 0,
    "lattice": {
      "matrix": [
        [3.45863058, -5.99052358, -0.0],
        [3.45863058, 5.99052358, 0.0],
        [-0.0, -0.0, 4.78630856]
      ],
      "pbc": [true, true, true],
      "a": 6.917260892249702,
      "b": 6.917260892249702,
      "c": 4.78630856,
      "alpha": 90.0,
      "beta": 90.0,
      "gamma": 119.99999743912838,
      "volume": 198.33513111140326
    },
    "properties": {},
    "sites": [
      {
        "species": [{ "element": "V", "occu": 1 }],
        "abc": [0.666667, 0.333333, -0.0],
        "properties": { "magmom": -0.0 },
        "label": "V",
        "xyz": [3.45863058, -1.9968451870157198, 0.0]
      },
      {
        "species": [{ "element": "V", "occu": 1 }],
        "abc": [0.333333, 0.666667, -0.0],
        "properties": { "magmom": -0.0 },
        "label": "V",
        "xyz": [3.45863058, 1.9968451870157198, 0.0]
      },
      {
        "species": [{ "element": "V", "occu": 1 }],
        "abc": [0.333333, 0.666667, 0.5],
        "properties": { "magmom": -0.0 },
        "label": "V",
        "xyz": [3.45863058, 1.9968451870157198, 2.39315428]
      },
      {
        "species": [{ "element": "V", "occu": 1 }],
        "abc": [0.666667, 0.333333, 0.5],
        "properties": { "magmom": -0.0 },
        "label": "V",
        "xyz": [3.45863058, -1.9968451870157198, 2.39315428]
      },
      {
        "species": [{ "element": "V", "occu": 1 }],
        "abc": [0.74530072, 0.74530072, 0.75],
        "properties": { "magmom": 0.0 },
        "label": "V",
        "xyz": [5.155439722976035, 0.0, 3.58973142]
      },
      {
        "species": [{ "element": "V", "occu": 1 }],
        "abc": [0.25469928000000003, -0.0, 0.75],
        "properties": { "magmom": 0.0 },
        "label": "V",
        "xyz": [0.8809107185119824, -1.5257820426490225, 3.58973142]
      },
      {
        "species": [{ "element": "V", "occu": 1 }],
        "abc": [-0.0, 0.25469928000000003, 0.75],
        "properties": { "magmom": 0.0 },
        "label": "V",
        "xyz": [0.8809107185119824, 1.5257820426490225, 3.58973142]
      },
      {
        "species": [{ "element": "V", "occu": 1 }],
        "abc": [0.25469928000000003, 0.25469928000000003, 0.25],
        "properties": { "magmom": 0.0 },
        "label": "V",
        "xyz": [1.7618214370239649, 0.0, 1.19657714]
      },
      {
        "species": [{ "element": "V", "occu": 1 }],
        "abc": [0.74530072, 0.0, 0.25],
        "properties": { "magmom": 0.0 },
        "label": "V",
        "xyz": [2.5777198614880175, -4.464741537350977, 1.19657714]
      },
      {
        "species": [{ "element": "V", "occu": 1 }],
        "abc": [0.0, 0.74530072, 0.25],
        "properties": { "magmom": 0.0 },
        "label": "V",
        "xyz": [2.5777198614880175, 4.464741537350977, 1.19657714]
      },
      {
        "species": [{ "element": "P", "occu": 1 }],
        "abc": [0.38615339, 0.38615339, 0.75],
        "properties": { "magmom": -0.0 },
        "label": "P",
        "xyz": [2.671123846449332, 0.0, 3.58973142]
      },
      {
        "species": [{ "element": "P", "occu": 1 }],
        "abc": [0.61384661, 0.0, 0.75],
        "properties": { "magmom": -0.0 },
        "label": "P",
        "xyz": [2.1230686567753336, -3.6772625917080632, 3.58973142]
      },
      {
        "species": [{ "element": "P", "occu": 1 }],
        "abc": [0.0, 0.61384661, 0.75],
        "properties": { "magmom": -0.0 },
        "label": "P",
        "xyz": [2.1230686567753336, 3.6772625917080632, 3.58973142]
      },
      {
        "species": [{ "element": "P", "occu": 1 }],
        "abc": [0.61384661, 0.61384661, 0.25],
        "properties": { "magmom": -0.0 },
        "label": "P",
        "xyz": [4.246137313550667, 0.0, 1.19657714]
      },
      {
        "species": [{ "element": "P", "occu": 1 }],
        "abc": [0.38615339, -0.0, 0.25],
        "properties": { "magmom": -0.0 },
        "label": "P",
        "xyz": [1.335561923224666, -2.313260988291936, 1.19657714]
      },
      {
        "species": [{ "element": "P", "occu": 1 }],
        "abc": [-0.0, 0.38615339, 0.25],
        "properties": { "magmom": -0.0 },
        "label": "P",
        "xyz": [1.335561923224666, 2.313260988291936, 1.19657714]
      }
    ]
  },
  "task_ids": null,
  "uncorrected_energy_per_atom": null,
  "energy_per_atom": -13.0079184925,
  "formation_energy_per_atom": -0.8261550442410691,
  "energy_above_hull": 0.066383251992187,
  "is_stable": false,
  "equilibrium_reaction_energy_per_atom": null,
  "decomposes_to": null,
  "xas": null,
  "grain_boundaries": null,
  "band_gap": 0.0,
  "cbm": null,
  "vbm": null,
  "efermi": 8.94618391,
  "is_gap_direct": null,
  "is_metal": null,
  "es_source_calc_id": null,
  "bandstructure": null,
  "dos": null,
  "dos_energy_up": null,
  "dos_energy_down": null,
  "is_magnetic": null,
  "ordering": null,
  "total_magnetization": 0.0013116,
  "total_magnetization_normalized_vol": null,
  "total_magnetization_normalized_formula_units": null,
  "num_magnetic_sites": null,
  "num_unique_magnetic_sites": null,
  "types_of_magnetic_species": null,
  "bulk_modulus": null,
  "shear_modulus": null,
  "universal_anisotropy": null,
  "homogeneous_poisson": null,
  "e_total": null,
  "e_ionic": null,
  "e_electronic": null,
  "n": null,
  "e_ij_max": null,
  "weighted_surface_energy_EV_PER_ANG2": null,
  "weighted_surface_energy": null,
  "weighted_work_function": null,
  "surface_anisotropy": null,
  "shape_factor": null,
  "has_reconstructed": null,
  "possible_species": null,
  "has_props": null,
  "theoretical": null,
  "database_IDs": null,
  "fields_not_requested": [
    "builder_meta",
    "nsites",
    "elements",
    "nelements",
    "composition",
    "composition_reduced",
    "chemsys",
    "symmetry",
    "property_name",
    "deprecated",
    "deprecation_reasons",
    "last_updated",
    "origins",
    "warnings",
    "task_ids",
    "uncorrected_energy_per_atom",
    "equilibrium_reaction_energy_per_atom",
    "decomposes_to",
    "xas",
    "grain_boundaries",
    "cbm",
    "vbm",
    "is_gap_direct",
    "is_metal",
    "es_source_calc_id",
    "bandstructure",
    "dos",
    "dos_energy_up",
    "dos_energy_down",
    "is_magnetic",
    "ordering",
    "total_magnetization_normalized_vol",
    "total_magnetization_normalized_formula_units",
    "num_magnetic_sites",
    "num_unique_magnetic_sites",
    "types_of_magnetic_species",
    "bulk_modulus",
    "shear_modulus",
    "universal_anisotropy",
    "homogeneous_poisson",
    "e_total",
    "e_ionic",
    "e_electronic",
    "n",
    "e_ij_max",
    "weighted_surface_energy_EV_PER_ANG2",
    "weighted_surface_energy",
    "weighted_work_function",
    "surface_anisotropy",
    "shape_factor",
    "has_reconstructed",
    "possible_species",
    "has_props",
    "theoretical",
    "database_IDs"
  ]
}
