{
  "builder_meta": null,
  "nsites": null,
  "elements": null,
  "nelements": null,
  "composition": null,
  "composition_reduced": null,
  "formula_pretty": "V5S4",
  "formula_anonymous": "A4B5",
  "chemsys": null,
  "volume": 253.37297115395103,
  "density": 5.01973428414145,
  "density_atomic": 14.076276175219501,
  "symmetry": null,
  "property_name": null,
  "material_id": "mp-1133",
  "deprecated": null,
  "deprecation_reasons": null,
  "last_updated": null,
  "origins": null,
  "warnings": null,
  "structure": {
    "@module": "pymatgen.core.structure",
    "@class": "Structure",
    "charge": 0,
    "lattice": {
      "matrix": [
        [3.07045634, -0.00019759, 0.78700304],
        [-1.5359665900000001, 6.32212803, -0.39221126],
        [-3.13963427, -0.00220716, 12.24798025]
      ],
      "pbc": [true, true, true],
      "a": 3.1697122834505413,
      "b": 6.517846720027918,
      "c": 12.643983882673362,
      "alpha": 89.99678546952633,
      "beta": 90.00130355494552,
      "gamma": 104.08005964136268,
      "volume": 253.37297115395103
    },
    "properties": {},
    "sites": [
      {
        "species": [{ "element": "V", "occu": 1 }],
        "abc": [0.15996258, 0.31978616, 0.46046017],
        "properties": { "magmom": 0.008 },
        "label": "V",
        "xyz": [-1.4456992694826631, 2.0206811294670657, 5.640174372073724]
      },
      {
        "species": [{ "element": "V", "occu": 1 }],
        "abc": [0.6598970200000001, 0.31967532, 0.96054521],
        "properties": { "magmom": -0.007 },
        "label": "V",
        "xyz": [-1.480586281561799, 2.0187778350533336, 12.15869946209094]
      },
      {
        "species": [{ "element": "V", "occu": 1 }],
        "abc": [0.53968753, 0.07897507000000001, 0.15985658],
        "properties": { "magmom": -0.014 },
        "label": "V",
        "xyz": [1.0338927322915321, 0.4988310378100466, 2.351681049719348]
      },
      {
        "species": [{ "element": "V", "occu": 1 }],
        "abc": [0.039714, 0.07900808000000001, 0.65985688],
        "properties": { "magmom": 0.015 },
        "label": "V",
        "xyz": [-2.0711229418765646, 0.4980349403639616, 8.082181214190198]
      },
      {
        "species": [{ "element": "V", "occu": 1 }],
        "abc": [9.6e-7, 2.059999999999999e-6, 6.44e-6],
        "properties": { "magmom": 0.008 },
        "label": "V",
        "xyz": [-2.04356977878e-5, 1.3009179944999994e-5, 7.88245605328e-5]
      },
      {
        "species": [{ "element": "V", "occu": 1 }],
        "abc": [0.50000285, -5.6e-6, 0.49998978],
        "properties": { "magmom": -0.009000000000000001 },
        "label": "V",
        "xyz": [
          -0.034539525724287756, -0.0012377569229243001, 6.517370909983565
        ]
      },
      {
        "species": [{ "element": "V", "occu": 1 }],
        "abc": [0.34004618000000003, 0.68023652, 0.039521099999999004],
        "properties": { "magmom": -0.007 },
        "label": "V",
        "xyz": [-0.12480541869217943, 4.300387951005875, 0.4848746070514348]
      },
      {
        "species": [{ "element": "V", "occu": 1 }],
        "abc": [0.8400946300000001, 0.68030785, 0.53946983],
        "properties": { "magmom": 0.008 },
        "label": "V",
        "xyz": [-0.15919421153035196, 4.299636636986111, 7.001748451972142]
      },
      {
        "species": [{ "element": "V", "occu": 1 }],
        "abc": [0.9603146300000001, 0.92101398, 0.34011979999999903],
        "properties": { "magmom": 0.015 },
        "label": "V",
        "xyz": [0.466105661889783, 5.82182785159435, 4.560319072626998]
      },
      {
        "species": [{ "element": "V", "occu": 1 }],
        "abc": [0.46029394, 0.9209980600000001, 0.840172199999999],
        "properties": { "magmom": -0.014 },
        "label": "V",
        "xyz": [-2.639143235099527, 5.820722306749066, 10.291439432702461]
      },
      {
        "species": [{ "element": "S", "occu": 1 }],
        "abc": [0.16781998, 0.33570942, 0.10354784],
        "properties": { "magmom": 0.001 },
        "label": "S",
        "xyz": [-0.3254568785470815, 2.12213622791666, 1.26865771907083]
      },
      {
        "species": [{ "element": "S", "occu": 1 }],
        "abc": [0.66786483, 0.33581228, 0.60350434],
        "properties": { "magmom": -0.001 },
        "label": "S",
        "xyz": [-0.3599295490129353, 2.121584234155374, 7.785611531166095]
      },
      {
        "species": [{ "element": "S", "occu": 1 }],
        "abc": [0.89642932, 0.79285813, 0.16791895],
        "properties": { "magmom": 0.0 },
        "label": "S",
        "xyz": [1.007439400663595, 5.012002858027363, 2.451192697017327]
      },
      {
        "species": [{ "element": "S", "occu": 1 }],
        "abc": [0.39644402, 0.79291767, 0.6678767800000001],
        "properties": { "magmom": -0.0 },
        "label": "S",
        "xyz": [-2.0975198217018094, 5.011374582701634, 8.181153021376453]
      },
      {
        "species": [{ "element": "S", "occu": 1 }],
        "abc": [0.33216857, 0.6642581200000001, 0.39642348],
        "properties": { "magmom": -0.001 },
        "label": "S",
        "xyz": [-1.244993930991637, 4.198584276371241, 4.856275113848291]
      },
      {
        "species": [{ "element": "S", "occu": 1 }],
        "abc": [0.83214075, 0.66422686, 0.896524],
        "properties": { "magmom": 0.001 },
        "label": "S",
        "xyz": [-1.2799358978082327, 4.1971840552822535, 11.374988291922437]
      },
      {
        "species": [{ "element": "S", "occu": 1 }],
        "abc": [0.60357983, 0.20714774, 0.33207209],
        "properties": { "magmom": -0.0 },
        "label": "S",
        "xyz": [0.49250859401109137, 1.308762335832378, 4.460985884877354]
      },
      {
        "species": [{ "element": "S", "occu": 1 }],
        "abc": [0.10354138, 0.20707027, 0.83213453],
        "properties": { "magmom": 0.0 },
        "label": "S",
        "xyz": [-2.6127318174672736, 1.3072676453561591, 10.192239378103588]
      }
    ]
  },
  "task_ids": null,
  "uncorrected_energy_per_atom": null,
  "energy_per_atom": -8.022397338888888,
  "formation_energy_per_atom": -1.136511936666666,
  "energy_above_hull": 0.0,
  "is_stable": true,
  "equilibrium_reaction_energy_per_atom": null,
  "decomposes_to": null,
  "xas": null,
  "grain_boundaries": null,
  "band_gap": 0.0,
  "cbm": null,
  "vbm": null,
  "efermi": 7.729894,
  "is_gap_direct": null,
  "is_metal": null,
  "es_source_calc_id": null,
  "bandstructure": null,
  "dos": null,
  "dos_energy_up": null,
  "dos_energy_down": null,
  "is_magnetic": null,
  "ordering": null,
  "total_magnetization": 0.003791199999999,
  "total_magnetization_normalized_vol": null,
  "total_magnetization_normalized_formula_units": null,
  "num_magnetic_sites": null,
  "num_unique_magnetic_sites": null,
  "types_of_magnetic_species": null,
  "bulk_modulus": null,
  "shear_modulus": null,
  "universal_anisotropy": null,
  "homogeneous_poisson": null,
  "e_total": null,
  "e_ionic": null,
  "e_electronic": null,
  "n": null,
  "e_ij_max": null,
  "weighted_surface_energy_EV_PER_ANG2": null,
  "weighted_surface_energy": null,
  "weighted_work_function": null,
  "surface_anisotropy": null,
  "shape_factor": null,
  "has_reconstructed": null,
  "possible_species": null,
  "has_props": null,
  "theoretical": null,
  "database_IDs": null,
  "fields_not_requested": [
    "builder_meta",
    "nsites",
    "elements",
    "nelements",
    "composition",
    "composition_reduced",
    "chemsys",
    "symmetry",
    "property_name",
    "deprecated",
    "deprecation_reasons",
    "last_updated",
    "origins",
    "warnings",
    "task_ids",
    "uncorrected_energy_per_atom",
    "equilibrium_reaction_energy_per_atom",
    "decomposes_to",
    "xas",
    "grain_boundaries",
    "cbm",
    "vbm",
    "is_gap_direct",
    "is_metal",
    "es_source_calc_id",
    "bandstructure",
    "dos",
    "dos_energy_up",
    "dos_energy_down",
    "is_magnetic",
    "ordering",
    "total_magnetization_normalized_vol",
    "total_magnetization_normalized_formula_units",
    "num_magnetic_sites",
    "num_unique_magnetic_sites",
    "types_of_magnetic_species",
    "bulk_modulus",
    "shear_modulus",
    "universal_anisotropy",
    "homogeneous_poisson",
    "e_total",
    "e_ionic",
    "e_electronic",
    "n",
    "e_ij_max",
    "weighted_surface_energy_EV_PER_ANG2",
    "weighted_surface_energy",
    "weighted_work_function",
    "surface_anisotropy",
    "shape_factor",
    "has_reconstructed",
    "possible_species",
    "has_props",
    "theoretical",
    "database_IDs"
  ]
}
