{
  "builder_meta": null,
  "nsites": null,
  "elements": null,
  "nelements": null,
  "composition": null,
  "composition_reduced": null,
  "formula_pretty": "V5S8",
  "formula_anonymous": "A5B8",
  "chemsys": null,
  "volume": 219.1861402459873,
  "density": 3.873024246503617,
  "density_atomic": 16.860472326614406,
  "symmetry": null,
  "property_name": null,
  "material_id": "mp-690772",
  "deprecated": null,
  "deprecation_reasons": null,
  "last_updated": null,
  "origins": null,
  "warnings": null,
  "structure": {
    "@module": "pymatgen.core.structure",
    "@class": "Structure",
    "charge": 0,
    "lattice": {
      "matrix": [
        [3.34000943, 5.77398552, -0.00526308],
        [-3.34000943, 5.77398552, -0.00526308],
        [-0.0, 5.62871075, 5.67763451]
      ],
      "pbc": [true, true, true],
      "a": 6.670427233518831,
      "b": 6.670427233518831,
      "c": 7.99486825009071,
      "alpha": 52.49260489213119,
      "beta": 52.49260489213119,
      "gamma": 60.09515569295598,
      "volume": 219.1861402459873
    },
    "properties": {},
    "sites": [
      {
        "species": [{ "element": "V", "occu": 1 }],
        "abc": [0.0, 0.0, 0.0],
        "properties": { "magmom": 2.006 },
        "label": "V",
        "xyz": [0.0, 0.0, 0.0]
      },
      {
        "species": [{ "element": "V", "occu": 1 }],
        "abc": [0.70966763, 0.29033237, 0.5],
        "properties": { "magmom": -0.298 },
        "label": "V",
        "xyz": [1.400583722731502, 8.588340895, 2.8335541749999997]
      },
      {
        "species": [{ "element": "V", "occu": 1 }],
        "abc": [0.29033237, 0.70966763, 0.5],
        "properties": { "magmom": -0.298 },
        "label": "V",
        "xyz": [-1.400583722731502, 8.588340895, 2.8335541749999997]
      },
      {
        "species": [{ "element": "V", "occu": 1 }],
        "abc": [0.27258061, 0.27258061, 0.48753727],
        "properties": { "magmom": -1.381 },
        "label": "V",
        "xyz": [0.0, 5.891959263020187, 2.76518920194943]
      },
      {
        "species": [{ "element": "V", "occu": 1 }],
        "abc": [0.72741939, 0.72741939, 0.51246273],
        "properties": { "magmom": -1.381 },
        "label": "V",
        "xyz": [0.0, 11.284722526979813, 2.90191914805057]
      },
      {
        "species": [{ "element": "S", "occu": 1 }],
        "abc": [0.01529643, 0.01529643, 0.29043613],
        "properties": { "magmom": -0.019 },
        "label": "S",
        "xyz": [0.0, 1.8114236977747848, 1.6488291819692376]
      },
      {
        "species": [{ "element": "S", "occu": 1 }],
        "abc": [0.98470357, 0.98470357, 0.70956387],
        "properties": { "magmom": -0.019 },
        "label": "S",
        "xyz": [0.0, 15.365258092225215, 4.0182791680307615]
      },
      {
        "species": [{ "element": "S", "occu": 1 }],
        "abc": [0.55658684, 0.55658684, 0.22504914],
        "properties": { "magmom": 0.044 },
        "label": "S",
        "xyz": [0.0, 7.694185223161369, 1.271888041578087]
      },
      {
        "species": [{ "element": "S", "occu": 1 }],
        "abc": [0.44341316000000003, 0.44341316000000003, 0.77495086],
        "properties": { "magmom": 0.044 },
        "label": "S",
        "xyz": [0.0, 9.48249656683863, 4.395220308421913]
      },
      {
        "species": [{ "element": "S", "occu": 1 }],
        "abc": [0.03476967, 0.53550474, 0.25293525],
        "properties": { "magmom": 0.019 },
        "label": "S",
        "xyz": [-1.67245985573171, 4.716455546495481, 1.4330725043536947]
      },
      {
        "species": [{ "element": "S", "occu": 1 }],
        "abc": [0.46449526, 0.96523033, 0.74706475],
        "properties": { "magmom": 0.019 },
        "label": "S",
        "xyz": [-1.67245985573171, 12.46022624350452, 4.234035845646305]
      },
      {
        "species": [{ "element": "S", "occu": 1 }],
        "abc": [0.53550474, 0.03476967, 0.25293525],
        "properties": { "magmom": 0.019 },
        "label": "S",
        "xyz": [1.67245985573171, 4.716455546495481, 1.4330725043536947]
      },
      {
        "species": [{ "element": "S", "occu": 1 }],
        "abc": [0.96523033, 0.46449526, 0.74706475],
        "properties": { "magmom": 0.019 },
        "label": "S",
        "xyz": [1.67245985573171, 12.46022624350452, 4.234035845646305]
      }
    ]
  },
  "task_ids": null,
  "uncorrected_energy_per_atom": null,
  "energy_per_atom": -7.287309887692308,
  "formation_energy_per_atom": -1.246817049999999,
  "energy_above_hull": 0.037621081538457,
  "is_stable": false,
  "equilibrium_reaction_energy_per_atom": null,
  "decomposes_to": null,
  "xas": null,
  "grain_boundaries": null,
  "band_gap": 0.0,
  "cbm": null,
  "vbm": null,
  "efermi": 5.79416439,
  "is_gap_direct": null,
  "is_metal": null,
  "es_source_calc_id": null,
  "bandstructure": null,
  "dos": null,
  "dos_energy_up": null,
  "dos_energy_down": null,
  "is_magnetic": null,
  "ordering": null,
  "total_magnetization": 1.302605,
  "total_magnetization_normalized_vol": null,
  "total_magnetization_normalized_formula_units": null,
  "num_magnetic_sites": null,
  "num_unique_magnetic_sites": null,
  "types_of_magnetic_species": null,
  "bulk_modulus": null,
  "shear_modulus": null,
  "universal_anisotropy": null,
  "homogeneous_poisson": null,
  "e_total": null,
  "e_ionic": null,
  "e_electronic": null,
  "n": null,
  "e_ij_max": null,
  "weighted_surface_energy_EV_PER_ANG2": null,
  "weighted_surface_energy": null,
  "weighted_work_function": null,
  "surface_anisotropy": null,
  "shape_factor": null,
  "has_reconstructed": null,
  "possible_species": null,
  "has_props": null,
  "theoretical": null,
  "database_IDs": null,
  "fields_not_requested": [
    "builder_meta",
    "nsites",
    "elements",
    "nelements",
    "composition",
    "composition_reduced",
    "chemsys",
    "symmetry",
    "property_name",
    "deprecated",
    "deprecation_reasons",
    "last_updated",
    "origins",
    "warnings",
    "task_ids",
    "uncorrected_energy_per_atom",
    "equilibrium_reaction_energy_per_atom",
    "decomposes_to",
    "xas",
    "grain_boundaries",
    "cbm",
    "vbm",
    "is_gap_direct",
    "is_metal",
    "es_source_calc_id",
    "bandstructure",
    "dos",
    "dos_energy_up",
    "dos_energy_down",
    "is_magnetic",
    "ordering",
    "total_magnetization_normalized_vol",
    "total_magnetization_normalized_formula_units",
    "num_magnetic_sites",
    "num_unique_magnetic_sites",
    "types_of_magnetic_species",
    "bulk_modulus",
    "shear_modulus",
    "universal_anisotropy",
    "homogeneous_poisson",
    "e_total",
    "e_ionic",
    "e_electronic",
    "n",
    "e_ij_max",
    "weighted_surface_energy_EV_PER_ANG2",
    "weighted_surface_energy",
    "weighted_work_function",
    "surface_anisotropy",
    "shape_factor",
    "has_reconstructed",
    "possible_species",
    "has_props",
    "theoretical",
    "database_IDs"
  ]
}
