{"builder_meta": null, "nsites": null, "elements": null, "nelements": null, "composition": null, "composition_reduced": null, "formula_pretty": "V5Sb4", "formula_anonymous": "A4B5", "chemsys": null, "volume": 168.5682295480667, "density": 7.306837739264904, "density_atomic": 18.729803283118525, "symmetry": null, "property_name": null, "material_id": "mp-30536", "deprecated": null, "deprecation_reasons": null, "last_updated": null, "origins": null, "warnings": null, "structure": {"@module": "pymatgen.core.structure", "@class": "Structure", "charge": 0, "lattice": {"matrix": [[3.3624266, 0.0, 0.84827566], [1.6807326200000001, 6.97102513, 0.4260468], [-0.024528480000000002, 0.00181524, 7.18542473]], "pbc": [true, true, true], "a": 3.467777996893111, "b": 7.1834232353950735, "c": 7.185466824912836, "alpha": 86.63159902982939, "beta": 76.0364168225921, "gamma": 76.0323649352521, "volume": 168.5682295480667}, "properties": {}, "sites": [{"species": [{"element": "V", "occu": 1}], "abc": [0.0, 0.0, -0.0], "properties": {"magmom": -0.629}, "label": "V", "xyz": [0.0, 0.0, 0.0]}, {"species": [{"element": "V", "occu": 1}], "abc": [0.31829894000000003, 0.07006008, 0.29334103], "properties": {"magmom": 0.486}, "label": "V", "xyz": [1.1808138748360792, 0.4889230626611076, 2.407634007583216]}, {"species": [{"element": "V", "occu": 1}], "abc": [0.61148483, 0.70670918, 0.07032217], "properties": {"magmom": 0.489}, "label": "V", "xyz": [3.2421371336275278, 4.926615104997564, 1.325093541803126]}, {"species": [{"element": "V", "occu": 1}], "abc": [0.38851517, 0.29329082, 0.92967783], "properties": {"magmom": 0.489}, "label": "V", "xyz": [1.7764936063724721, 2.046225265002436, 7.134653648196875]}, {"species": [{"element": "V", "occu": 1}], "abc": [0.68170106, 0.92993992, 0.70665897], "properties": {"magmom": 0.486}, "label": "V", "xyz": [3.837816865163921, 6.483917307338892, 6.052113182416784]}, {"species": [{"element": "Sb", "occu": 1}], "abc": [0.06493855, 0.22307828000000002, 0.64704462], "properties": {"magmom": -0.045}, "label": "Sb", "xyz": [0.5774150288741461, 1.5562588371131851, 4.799417992665649]}, {"species": [{"element": "Sb", "occu": 1}], "abc": [0.71217864, 0.35266263000000003, 0.22298008], "properties": {"magmom": -0.045}, "label": "Sb", "xyz": [2.9819106267511364, 2.4588248185023116, 2.356581172004365]}, {"species": [{"element": "Sb", "occu": 1}], "abc": [0.28782136, 0.64733737, 0.77701992], "properties": {"magmom": -0.045}, "label": "Sb", "xyz": [2.0367201132488644, 4.51401555149769, 6.103166017995636]}, {"species": [{"element": "Sb", "occu": 1}], "abc": [0.9350614500000001, 0.77692172, 0.35295538], "properties": {"magmom": -0.045}, "label": "Sb", "xyz": [4.441215711125855, 5.416581532886815, 3.6603291973343506]}]}, "task_ids": null, "uncorrected_energy_per_atom": null, "energy_per_atom": -19.41900891666667, "formation_energy_per_atom": -0.166437631111111, "energy_above_hull": 0.028563353148143, "is_stable": false, "equilibrium_reaction_energy_per_atom": null, "decomposes_to": null, "xas": null, "grain_boundaries": null, "band_gap": 0.0, "cbm": null, "vbm": null, "efermi": 7.8790591800000005, "is_gap_direct": null, "is_metal": null, "es_source_calc_id": null, "bandstructure": null, "dos": null, "dos_energy_up": null, "dos_energy_down": null, "is_magnetic": null, "ordering": null, "total_magnetization": 1.1977334, "total_magnetization_normalized_vol": null, "total_magnetization_normalized_formula_units": null, "num_magnetic_sites": null, "num_unique_magnetic_sites": null, "types_of_magnetic_species": null, "bulk_modulus": null, "shear_modulus": null, "universal_anisotropy": null, "homogeneous_poisson": null, "e_total": null, "e_ionic": null, "e_electronic": null, "n": null, "e_ij_max": null, "weighted_surface_energy_EV_PER_ANG2": null, "weighted_surface_energy": null, "weighted_work_function": null, "surface_anisotropy": null, "shape_factor": null, "has_reconstructed": null, "possible_species": null, "has_props": null, "theoretical": null, "database_IDs": null, "fields_not_requested": ["builder_meta", "nsites", "elements", "nelements", "composition", "composition_reduced", "chemsys", "symmetry", "property_name", "deprecated", "deprecation_reasons", "last_updated", "origins", "warnings", "task_ids", "uncorrected_energy_per_atom", "equilibrium_reaction_energy_per_atom", "decomposes_to", "xas", "grain_boundaries", "cbm", "vbm", "is_gap_direct", "is_metal", "es_source_calc_id", "bandstructure", "dos", "dos_energy_up", "dos_energy_down", "is_magnetic", "ordering", "total_magnetization_normalized_vol", "total_magnetization_normalized_formula_units", "num_magnetic_sites", "num_unique_magnetic_sites", "types_of_magnetic_species", "bulk_modulus", "shear_modulus", "universal_anisotropy", "homogeneous_poisson", "e_total", "e_ionic", "e_electronic", "n", "e_ij_max", "weighted_surface_energy_EV_PER_ANG2", "weighted_surface_energy", "weighted_work_function", "surface_anisotropy", "shape_factor", "has_reconstructed", "possible_species", "has_props", "theoretical", "database_IDs"]}