{"builder_meta": null, "nsites": null, "elements": null, "nelements": null, "composition": null, "composition_reduced": null, "formula_pretty": "V5Se4", "formula_anonymous": "A4B5", "chemsys": null, "volume": 143.49816014793774, "density": 6.602289619074109, "density_atomic": 15.944240016437526, "symmetry": null, "property_name": null, "material_id": "mp-1087497", "deprecated": null, "deprecation_reasons": null, "last_updated": null, "origins": null, "warnings": null, "structure": {"@module": "pymatgen.core.structure", "@class": "Structure", "charge": 0, "lattice": {"matrix": [[-0.0, -0.0, 3.33614369], [-4.63720484, 4.63783512, 1.66807236], [-4.63783512, -4.63720484, 1.66807236]], "pbc": [true, true, true], "a": 3.33614369, "b": 6.767248238879731, "c": 6.767248238879731, "alpha": 86.51666088635531, "beta": 75.72997824043432, "gamma": 75.72997824043432, "volume": 143.4981601479377}, "properties": {}, "sites": [{"species": [{"element": "V", "occu": 1}], "abc": [-0.0, 0.0, 0.0], "properties": {"magmom": -0.001}, "label": "V", "xyz": [0.0, 0.0, 0.0]}, {"species": [{"element": "V", "occu": 1}], "abc": [0.61745134, 0.69067153, 0.07442778], "properties": {"magmom": 0.001}, "label": "V", "xyz": [-3.5479691337538393, 2.8580838165716784, 3.3361474034891168]}, {"species": [{"element": "V", "occu": 1}], "abc": [0.38254866, 0.30932847, 0.9255722200000001], "properties": {"magmom": 0.001}, "label": "V", "xyz": [-5.727070826246162, -2.8574535365716787, 3.336141006510884]}, {"species": [{"element": "V", "occu": 1}], "abc": [0.30812188, 0.07442778, 0.30932847], "properties": {"magmom": 0.001}, "label": "V", "xyz": [-1.7797513034283217, -1.0892357062461613, 1.6680720593151874]}, {"species": [{"element": "V", "occu": 1}], "abc": [0.69187812, 0.9255722200000001, 0.69067153], "properties": {"magmom": 0.001}, "label": "V", "xyz": [-7.495288656571679, 1.0898659862461613, 5.004216350684813]}, {"species": [{"element": "Se", "occu": 1}], "abc": [0.72278245, 0.34140357, 0.21303252], "properties": {"magmom": -0.0}, "label": "Se", "xyz": [-2.5711679901553812, 0.5954980342179816, 3.336145626925713]}, {"species": [{"element": "Se", "occu": 1}], "abc": [0.27721755, 0.65859643, 0.78696748], "properties": {"magmom": -0.0}, "label": "Se", "xyz": [-6.703871969844618, -0.5948677542179817, 3.336142783074287]}, {"species": [{"element": "Se", "occu": 1}], "abc": [0.06418703, 0.21303252, 0.65859643], "properties": {"magmom": -0.0}, "label": "Se", "xyz": [-4.042337085782019, -2.0660368498446187, 1.6680773147851626]}, {"species": [{"element": "Se", "occu": 1}], "abc": [0.93581297, 0.78696748, 0.34140357], "properties": {"magmom": -0.0}, "label": "Se", "xyz": [-5.232702874217982, 2.0666671298446193, 5.0042110952148375]}]}, "task_ids": null, "uncorrected_energy_per_atom": null, "energy_per_atom": -14.910544715555554, "formation_energy_per_atom": -0.722309207361108, "energy_above_hull": 0.0, "is_stable": true, "equilibrium_reaction_energy_per_atom": null, "decomposes_to": null, "xas": null, "grain_boundaries": null, "band_gap": 0.0, "cbm": null, "vbm": null, "efermi": 6.80611954, "is_gap_direct": null, "is_metal": null, "es_source_calc_id": null, "bandstructure": null, "dos": null, "dos_energy_up": null, "dos_energy_down": null, "is_magnetic": null, "ordering": null, "total_magnetization": 0.0026221, "total_magnetization_normalized_vol": null, "total_magnetization_normalized_formula_units": null, "num_magnetic_sites": null, "num_unique_magnetic_sites": null, "types_of_magnetic_species": null, "bulk_modulus": null, "shear_modulus": null, "universal_anisotropy": null, "homogeneous_poisson": null, "e_total": null, "e_ionic": null, "e_electronic": null, "n": null, "e_ij_max": null, "weighted_surface_energy_EV_PER_ANG2": null, "weighted_surface_energy": null, "weighted_work_function": null, "surface_anisotropy": null, "shape_factor": null, "has_reconstructed": null, "possible_species": null, "has_props": null, "theoretical": null, "database_IDs": null, "fields_not_requested": ["builder_meta", "nsites", "elements", "nelements", "composition", "composition_reduced", "chemsys", "symmetry", "property_name", "deprecated", "deprecation_reasons", "last_updated", "origins", "warnings", "task_ids", "uncorrected_energy_per_atom", "equilibrium_reaction_energy_per_atom", "decomposes_to", "xas", "grain_boundaries", "cbm", "vbm", "is_gap_direct", "is_metal", "es_source_calc_id", "bandstructure", "dos", "dos_energy_up", "dos_energy_down", "is_magnetic", "ordering", "total_magnetization_normalized_vol", "total_magnetization_normalized_formula_units", "num_magnetic_sites", "num_unique_magnetic_sites", "types_of_magnetic_species", "bulk_modulus", "shear_modulus", "universal_anisotropy", "homogeneous_poisson", "e_total", "e_ionic", "e_electronic", "n", "e_ij_max", "weighted_surface_energy_EV_PER_ANG2", "weighted_surface_energy", "weighted_work_function", "surface_anisotropy", "shape_factor", "has_reconstructed", "possible_species", "has_props", "theoretical", "database_IDs"]}