{"builder_meta": null, "nsites": null, "elements": null, "nelements": null, "composition": null, "composition_reduced": null, "formula_pretty": "V5Se8", "formula_anonymous": "A5B8", "chemsys": null, "volume": 261.28378130265, "density": 5.633266116089307, "density_atomic": 20.098752407896157, "symmetry": null, "property_name": null, "material_id": "mp-1207893", "deprecated": null, "deprecation_reasons": null, "last_updated": null, "origins": null, "warnings": null, "structure": {"@module": "pymatgen.core.structure", "@class": "Structure", "charge": 0, "lattice": {"matrix": [[-4.30952591, -3.54747175, 4.12643895], [4.30770853, -3.54673853, -4.12781076], [4.41473742, 3.54905987, 4.32089974]], "pbc": [true, true, true], "a": 6.941474468301853, "b": 6.940787322054545, "c": 7.124318003256503, "alpha": 103.3362644724475, "beta": 106.18632252655583, "gamma": 118.53547588811811, "volume": 261.28378130265}, "properties": {}, "sites": [{"species": [{"element": "V", "occu": 1}], "abc": [0.0, 0.0, 0.0], "properties": {"magmom": 1.968999999999999}, "label": "V", "xyz": [0.0, 0.0, 0.0]}, {"species": [{"element": "V", "occu": 1}], "abc": [0.74810529, 0.25944439, 0.00804883], "properties": {"magmom": 1.689}, "label": "V", "xyz": [-2.070834847811198, -3.5454980171524526, 2.050851650147713]}, {"species": [{"element": "V", "occu": 1}], "abc": [0.25189471, 0.74055561, 0.99195117], "properties": {"magmom": 1.689}, "label": "V", "xyz": [6.483754887811199, 0.0003476071524519675, 2.2686762798522864]}, {"species": [{"element": "V", "occu": 1}], "abc": [0.21952725, 0.71957867, 0.49992851], "properties": {"magmom": -1.693}, "label": "V", "xyz": [4.360729903360852, -1.5566478992754487, 0.09572218717148573]}, {"species": [{"element": "V", "occu": 1}], "abc": [0.78047275, 0.28042133, 0.5000714900000001], "properties": {"magmom": -1.693}, "label": "V", "xyz": [0.0521901366391484, -1.9885025107245513, 4.223805742828514]}, {"species": [{"element": "Se", "occu": 1}], "abc": [0.71670005, 0.96398973, 0.17174449], "properties": {"magmom": -0.073}, "label": "Se", "xyz": [1.822156174261917, -5.351961221161268, -0.2796574560491144]}, {"species": [{"element": "Se", "occu": 1}], "abc": [0.28329995, 0.036010270000000004, 0.82825551], "properties": {"magmom": -0.073}, "label": "Se", "xyz": [2.5907638657380825, 1.806810811161268, 4.599185386049115]}, {"species": [{"element": "Se", "occu": 1}], "abc": [0.79227483, 0.5446573, 0.82826451], "properties": {"magmom": -0.073}, "label": "Se", "xyz": [2.5884663153658884, -1.8027692750306081, 4.599879360074308]}, {"species": [{"element": "Se", "occu": 1}], "abc": [0.20772517000000001, 0.4553427, 0.17173549], "properties": {"magmom": -0.073}, "label": "Se", "xyz": [1.824453724634112, -1.742381134969392, -0.2803514300743081]}, {"species": [{"element": "Se", "occu": 1}], "abc": [0.30314154, 0.028916360000000002, 0.3319611], "properties": {"magmom": -0.002}, "label": "Se", "xyz": [0.28368801975561153, 0.00020500085021124548, 2.5659044267510636]}, {"species": [{"element": "Se", "occu": 1}], "abc": [0.6968584600000001, 0.97108364, 0.6680389], "properties": {"magmom": -0.002}, "label": "Se", "xyz": [4.129232020244388, -3.545355410850212, 1.7536235032489365]}, {"species": [{"element": "Se", "occu": 1}], "abc": [0.78115448, 0.54888978, 0.32999366], "properties": {"magmom": 0.07200000000000001}, "label": "Se", "xyz": [0.4548870752280043, -3.546724725574739, 2.3835426519966116]}, {"species": [{"element": "Se", "occu": 1}], "abc": [0.21884552000000002, 0.45111022, 0.67000634], "properties": {"magmom": 0.07200000000000001}, "label": "Se", "xyz": [3.9580329647719963, 0.0015743155747394155, 1.9359852780033884]}]}, "task_ids": null, "uncorrected_energy_per_atom": null, "energy_per_atom": -15.169909097692308, "formation_energy_per_atom": -0.9437275209615361, "energy_above_hull": 0.0, "is_stable": true, "equilibrium_reaction_energy_per_atom": null, "decomposes_to": null, "xas": null, "grain_boundaries": null, "band_gap": 0.0, "cbm": null, "vbm": null, "efermi": 4.75532021, "is_gap_direct": null, "is_metal": null, "es_source_calc_id": null, "bandstructure": null, "dos": null, "dos_energy_up": null, "dos_energy_down": null, "is_magnetic": null, "ordering": null, "total_magnetization": 2.0289149, "total_magnetization_normalized_vol": null, "total_magnetization_normalized_formula_units": null, "num_magnetic_sites": null, "num_unique_magnetic_sites": null, "types_of_magnetic_species": null, "bulk_modulus": null, "shear_modulus": null, "universal_anisotropy": null, "homogeneous_poisson": null, "e_total": null, "e_ionic": null, "e_electronic": null, "n": null, "e_ij_max": null, "weighted_surface_energy_EV_PER_ANG2": null, "weighted_surface_energy": null, "weighted_work_function": null, "surface_anisotropy": null, "shape_factor": null, "has_reconstructed": null, "possible_species": null, "has_props": null, "theoretical": null, "database_IDs": null, "fields_not_requested": ["builder_meta", "nsites", "elements", "nelements", "composition", "composition_reduced", "chemsys", "symmetry", "property_name", "deprecated", "deprecation_reasons", "last_updated", "origins", "warnings", "task_ids", "uncorrected_energy_per_atom", "equilibrium_reaction_energy_per_atom", "decomposes_to", "xas", "grain_boundaries", "cbm", "vbm", "is_gap_direct", "is_metal", "es_source_calc_id", "bandstructure", "dos", "dos_energy_up", "dos_energy_down", "is_magnetic", "ordering", "total_magnetization_normalized_vol", "total_magnetization_normalized_formula_units", "num_magnetic_sites", "num_unique_magnetic_sites", "types_of_magnetic_species", "bulk_modulus", "shear_modulus", "universal_anisotropy", "homogeneous_poisson", "e_total", "e_ionic", "e_electronic", "n", "e_ij_max", "weighted_surface_energy_EV_PER_ANG2", "weighted_surface_energy", "weighted_work_function", "surface_anisotropy", "shape_factor", "has_reconstructed", "possible_species", "has_props", "theoretical", "database_IDs"]}