{"builder_meta": null, "nsites": null, "elements": null, "nelements": null, "composition": null, "composition_reduced": null, "formula_pretty": "V5Si3", "formula_anonymous": "A3B5", "chemsys": null, "volume": 205.76308345122715, "density": 5.4709810402352375, "density_atomic": 12.860192715701697, "symmetry": null, "property_name": null, "material_id": "mp-568671", "deprecated": null, "deprecation_reasons": null, "last_updated": null, "origins": null, "warnings": null, "structure": {"@module": "pymatgen.core.structure", "@class": "Structure", "charge": 0, "lattice": {"matrix": [[4.42619203, -5.9610000000000014e-05, 1.5786077600000001], [2.21300776, 6.61708007, 0.78933359], [-0.00991017, 2.9430000000000005e-05, 7.02183002]], "pbc": [true, true, true], "a": 4.699274236509409, "b": 7.021837331846538, "c": 7.0218370133540375, "alpha": 83.57109271149773, "beta": 70.45201450466936, "gamma": 70.45201551187873, "volume": 205.76308345122715}, "properties": {}, "sites": [{"species": [{"element": "V", "occu": 1}], "abc": [0.57428506, 0.70087771, 0.15033927], "properties": {"magmom": 0.0}, "label": "V", "xyz": [4.091453878837725, 4.637734117700529, 2.51545397042423]}, {"species": [{"element": "V", "occu": 1}], "abc": [0.25, 0.50001241, 0.49998759000000004], "properties": {"magmom": 0.0}, "label": "V", "xyz": [2.2081243889115116, 3.3086219650984425, 4.300156399719304]}, {"species": [{"element": "V", "occu": 1}], "abc": [0.07428506, 0.15033927, 0.70087771], "properties": {"magmom": 0.0}, "label": "V", "xyz": [0.6545560944074963, 0.9948231859539276, 5.1573789523019995]}, {"species": [{"element": "V", "occu": 1}], "abc": [0.92571494, 0.84966073, 0.29912229], "properties": {"magmom": 0.0}, "label": "V", "xyz": [5.974733525592504, 5.6222267040460725, 4.2323924176980015]}, {"species": [{"element": "V", "occu": 1}], "abc": [0.75, 0.49998759000000004, 0.50001241], "properties": {"magmom": 0.0}, "label": "V", "xyz": [4.42116523108849, 3.308427924901558, 5.089614970280696]}, {"species": [{"element": "V", "occu": 1}], "abc": [0.72472737, 0.84969761, 0.70086767], "properties": {"magmom": -0.0}, "label": "V", "xyz": [5.08122419584311, 5.622494546194635, 6.736128760335566]}, {"species": [{"element": "V", "occu": 1}], "abc": [0.42571494, 0.29912229, 0.84966073], "properties": {"magmom": 0.0}, "label": "V", "xyz": [2.5378357411622745, 1.979315772299471, 6.87431739957577]}, {"species": [{"element": "V", "occu": 1}], "abc": [0.77527263, 0.29913233, 0.15030239], "properties": {"magmom": -0.0}, "label": "V", "xyz": [4.091998181303714, 1.9793407885335266, 2.5153644199373213]}, {"species": [{"element": "V", "occu": 1}], "abc": [0.27527263, 0.15030239, 0.29913233], "properties": {"magmom": -0.0}, "label": "V", "xyz": [1.5480654241568894, 0.9945553438053649, 2.6536426096644354]}, {"species": [{"element": "V", "occu": 1}], "abc": [0.22472737, 0.70086767, 0.84969761], "properties": {"magmom": -0.0}, "label": "V", "xyz": [2.5372914386962866, 4.6377091014664735, 6.87440695006268]}, {"species": [{"element": "Si", "occu": 1}], "abc": [0.16607566, 0.49997703, 0.16791351000000002], "properties": {"magmom": -0.0}, "label": "Si", "xyz": [1.8398717584513462, 3.3083830825952987, 1.8358771149121298]}, {"species": [{"element": "Si", "occu": 1}], "abc": [0.25, 1.9060000000000004e-05, 0.99998094], "properties": {"magmom": 0.0}, "label": "Si", "xyz": [1.0966802063157457, 0.0001406484851984, 7.4163631686180445]}, {"species": [{"element": "Si", "occu": 1}], "abc": [0.6660756600000001, 0.16791351000000002, 0.49997703], "properties": {"magmom": -0.0}, "label": "Si", "xyz": [3.3148178209444326, 1.111072150058646, 4.694765697845363]}, {"species": [{"element": "Si", "occu": 1}], "abc": [0.83392434, 0.50002297, 0.83208649], "properties": {"magmom": -0.0}, "label": "Si", "xyz": [4.789417861548655, 3.308666807404701, 7.553894255087871]}, {"species": [{"element": "Si", "occu": 1}], "abc": [0.75, 0.99998094, 1.9060000000000004e-05], "properties": {"magmom": 0.0}, "label": "Si", "xyz": [5.532609413684254, 6.6169092415148025, 1.9734082013819558]}, {"species": [{"element": "Si", "occu": 1}], "abc": [0.33392434, 0.83208649, 0.50002297], "properties": {"magmom": -0.0}, "label": "Si", "xyz": [3.3144717990555677, 5.505977739941355, 4.695005672154637]}]}, "task_ids": null, "uncorrected_energy_per_atom": null, "energy_per_atom": -12.70675314, "formation_energy_per_atom": -0.610606585624999, "energy_above_hull": 0.0, "is_stable": true, "equilibrium_reaction_energy_per_atom": null, "decomposes_to": null, "xas": null, "grain_boundaries": null, "band_gap": 0.0, "cbm": null, "vbm": null, "efermi": 8.02343285, "is_gap_direct": null, "is_metal": null, "es_source_calc_id": null, "bandstructure": null, "dos": null, "dos_energy_up": null, "dos_energy_down": null, "is_magnetic": null, "ordering": null, "total_magnetization": 9e-07, "total_magnetization_normalized_vol": null, "total_magnetization_normalized_formula_units": null, "num_magnetic_sites": null, "num_unique_magnetic_sites": null, "types_of_magnetic_species": null, "bulk_modulus": null, "shear_modulus": null, "universal_anisotropy": null, "homogeneous_poisson": null, "e_total": null, "e_ionic": null, "e_electronic": null, "n": null, "e_ij_max": null, "weighted_surface_energy_EV_PER_ANG2": null, "weighted_surface_energy": null, "weighted_work_function": null, "surface_anisotropy": null, "shape_factor": null, "has_reconstructed": null, "possible_species": null, "has_props": null, "theoretical": null, "database_IDs": null, "fields_not_requested": ["builder_meta", "nsites", "elements", "nelements", "composition", "composition_reduced", "chemsys", "symmetry", "property_name", "deprecated", "deprecation_reasons", "last_updated", "origins", "warnings", "task_ids", "uncorrected_energy_per_atom", "equilibrium_reaction_energy_per_atom", "decomposes_to", "xas", "grain_boundaries", "cbm", "vbm", "is_gap_direct", "is_metal", "es_source_calc_id", "bandstructure", "dos", "dos_energy_up", "dos_energy_down", "is_magnetic", "ordering", "total_magnetization_normalized_vol", "total_magnetization_normalized_formula_units", "num_magnetic_sites", "num_unique_magnetic_sites", "types_of_magnetic_species", "bulk_modulus", "shear_modulus", "universal_anisotropy", "homogeneous_poisson", "e_total", "e_ionic", "e_electronic", "n", "e_ij_max", "weighted_surface_energy_EV_PER_ANG2", "weighted_surface_energy", "weighted_work_function", "surface_anisotropy", "shape_factor", "has_reconstructed", "possible_species", "has_props", "theoretical", "database_IDs"]}