{"builder_meta": null, "nsites": null, "elements": null, "nelements": null, "composition": null, "composition_reduced": null, "formula_pretty": "V5Te8", "formula_anonymous": "A5B8", "chemsys": null, "volume": 329.6602237723308, "density": 6.424888053689025, "density_atomic": 25.358478751717755, "symmetry": null, "property_name": null, "material_id": "mp-1207855", "deprecated": null, "deprecation_reasons": null, "last_updated": null, "origins": null, "warnings": null, "structure": {"@module": "pymatgen.core.structure", "@class": "Structure", "charge": 0, "lattice": {"matrix": [[-4.54585708, -3.95880814, 4.3552605], [4.54585926, -3.95881252, -4.35526267], [4.6655644800000005, 3.95881033, 4.68921812]], "pbc": [true, true, true], "a": 7.436751475205867, "b": 7.4367564102189085, "c": 7.708984221211554, "alpha": 105.04957756144206, "beta": 106.683381581895, "gamma": 115.67390523790549, "volume": 329.6602237723308}, "properties": {}, "sites": [{"species": [{"element": "V", "occu": 1}], "abc": [0.21496949, 0.71496949, 0.5], "properties": {"magmom": 1.982}, "label": "V", "xyz": [4.605712338633488, -1.7020479702936633, 0.16697725851620637]}, {"species": [{"element": "V", "occu": 1}], "abc": [0.78503051, 0.28503051, 0.5], "properties": {"magmom": 1.982}, "label": "V", "xyz": [0.0598543213665117, -2.256762359706337, 4.522238691483793]}, {"species": [{"element": "V", "occu": 1}], "abc": [0.76372284, 0.28378407, 0.04750591], "properties": {"magmom": 2.018}, "label": "V", "xyz": [-1.9600905506356423, -3.958813237744424, 2.313023325567242]}, {"species": [{"element": "V", "occu": 1}], "abc": [0.23627716, 0.7162159300000001, 0.9524940900000001], "properties": {"magmom": 2.018}, "label": "V", "xyz": [6.6256572106356435, 2.907744423907843e-06, 2.376192624432757]}, {"species": [{"element": "V", "occu": 1}], "abc": [-0.0, -0.0, -0.0], "properties": {"magmom": 2.027}, "label": "V", "xyz": [0.0, 0.0, 0.0]}, {"species": [{"element": "Te", "occu": 1}], "abc": [0.77687001, 0.56959678, 0.34646578], "properties": {"magmom": -0.217}, "label": "Te", "xyz": [0.6742251983345067, -3.95881387447006, 2.527381288837336]}, {"species": [{"element": "Te", "occu": 1}], "abc": [0.22312899, 0.43040322000000003, 0.65353422], "properties": {"magmom": -0.217}, "label": "Te", "xyz": [3.9913460075225746, 7.503278199649799e-06, 2.1618303059021637]}, {"species": [{"element": "Te", "occu": 1}], "abc": [0.70649852, 0.95653826, 0.16540249], "properties": {"magmom": -0.189}, "label": "Te", "xyz": [1.9083429898613213, -5.928850645401246, -0.3133819255391751]}, {"species": [{"element": "Te", "occu": 1}], "abc": [0.29350148, 0.04346174, 0.83459751], "properties": {"magmom": -0.189}, "label": "Te", "xyz": [2.7572236701386794, 1.9700403154012467, 5.002597875539175]}, {"species": [{"element": "Te", "occu": 1}], "abc": [0.79113477, 0.54109503, 0.83459751], "properties": {"magmom": -0.189}, "label": "Te", "xyz": [2.7572247549792515, -1.9700313026065248, 5.002596795674935]}, {"species": [{"element": "Te", "occu": 1}], "abc": [0.20886523, 0.45890497, 0.16540249], "properties": {"magmom": -0.189}, "label": "Te", "xyz": [1.9083419050207493, -1.9887790273934747, -0.3133808456749362]}, {"species": [{"element": "Te", "occu": 1}], "abc": [0.30681509, 0.012847899999999001, 0.31966299], "properties": {"magmom": -0.202}, "label": "Te", "xyz": [0.15507548777380742, 6.4378814990107e-07, 2.779273148024435]}, {"species": [{"element": "Te", "occu": 1}], "abc": [0.69318491, 0.9871521, 0.68033701], "properties": {"magmom": -0.202}, "label": "Te", "xyz": [4.510491172226189, -3.958810973788146, 1.9099428019755695]}]}, "task_ids": null, "uncorrected_energy_per_atom": null, "energy_per_atom": -6.02991742153846, "formation_energy_per_atom": -0.601765306410254, "energy_above_hull": 0.0, "is_stable": true, "equilibrium_reaction_energy_per_atom": null, "decomposes_to": null, "xas": null, "grain_boundaries": null, "band_gap": 0.0, "cbm": null, "vbm": null, "efermi": 6.42011466, "is_gap_direct": null, "is_metal": null, "es_source_calc_id": null, "bandstructure": null, "dos": null, "dos_energy_up": null, "dos_energy_down": null, "is_magnetic": null, "ordering": null, "total_magnetization": 9.2365601, "total_magnetization_normalized_vol": null, "total_magnetization_normalized_formula_units": null, "num_magnetic_sites": null, "num_unique_magnetic_sites": null, "types_of_magnetic_species": null, "bulk_modulus": null, "shear_modulus": null, "universal_anisotropy": null, "homogeneous_poisson": null, "e_total": null, "e_ionic": null, "e_electronic": null, "n": null, "e_ij_max": null, "weighted_surface_energy_EV_PER_ANG2": null, "weighted_surface_energy": null, "weighted_work_function": null, "surface_anisotropy": null, "shape_factor": null, "has_reconstructed": null, "possible_species": null, "has_props": null, "theoretical": null, "database_IDs": null, "fields_not_requested": ["builder_meta", "nsites", "elements", "nelements", "composition", "composition_reduced", "chemsys", "symmetry", "property_name", "deprecated", "deprecation_reasons", "last_updated", "origins", "warnings", "task_ids", "uncorrected_energy_per_atom", "equilibrium_reaction_energy_per_atom", "decomposes_to", "xas", "grain_boundaries", "cbm", "vbm", "is_gap_direct", "is_metal", "es_source_calc_id", "bandstructure", "dos", "dos_energy_up", "dos_energy_down", "is_magnetic", "ordering", "total_magnetization_normalized_vol", "total_magnetization_normalized_formula_units", "num_magnetic_sites", "num_unique_magnetic_sites", "types_of_magnetic_species", "bulk_modulus", "shear_modulus", "universal_anisotropy", "homogeneous_poisson", "e_total", "e_ionic", "e_electronic", "n", "e_ij_max", "weighted_surface_energy_EV_PER_ANG2", "weighted_surface_energy", "weighted_work_function", "surface_anisotropy", "shape_factor", "has_reconstructed", "possible_species", "has_props", "theoretical", "database_IDs"]}