{
  "builder_meta": null,
  "nsites": null,
  "elements": null,
  "nelements": null,
  "composition": null,
  "composition_reduced": null,
  "formula_pretty": "V5Te4",
  "formula_anonymous": "A4B5",
  "chemsys": null,
  "volume": 202.6009496979474,
  "density": 6.270902953775892,
  "density_atomic": 22.511216633105267,
  "symmetry": null,
  "property_name": null,
  "material_id": "mp-2026078",
  "deprecated": null,
  "deprecation_reasons": null,
  "last_updated": null,
  "origins": null,
  "warnings": null,
  "structure": {
    "@module": "pymatgen.core.structure",
    "@class": "Structure",
    "charge": 0,
    "lattice": {
      "matrix": [
        [3.96897682, -0.00352285, 1.0102813],
        [2.03587197, 7.21272658, 0.34889921],
        [0.2894276, -0.21928284, 7.15427218]
      ],
      "pbc": [true, true, true],
      "a": 4.095541199072367,
      "b": 7.50266153140396,
      "c": 7.163481257397285,
      "alpha": 88.39671853113234,
      "beta": 73.40874023344342,
      "gamma": 74.12067669567683,
      "volume": 202.60094969794739
    },
    "properties": {},
    "sites": [
      {
        "species": [{ "element": "V", "occu": 1 }],
        "abc": [7.509999999999997e-6, -1.429999999999999e-6, 3.45e-6],
        "properties": { "magmom": 1.746999999999999 },
        "label": "V",
        "xyz": [2.789424422109999e-5, -1.1097181410899993e-5, 3.17705257137e-5]
      },
      {
        "species": [{ "element": "V", "occu": 1 }],
        "abc": [0.34463104, 0.07257189, 0.23856902],
        "properties": { "magmom": -2.004 },
        "label": "V",
        "xyz": [1.5846281447663682, 0.4699130242629554, 2.0802822729966226]
      },
      {
        "species": [{ "element": "V", "occu": 1 }],
        "abc": [0.60120678, 0.71954373, 0.07972358],
        "properties": { "magmom": 2.354 },
        "label": "V",
        "xyz": [3.8741488893658955, 5.170272212501054, 1.4288003967086718]
      },
      {
        "species": [{ "element": "V", "occu": 1 }],
        "abc": [0.39877619000000003, 0.2804781, 0.92028668],
        "properties": { "magmom": 2.354 },
        "label": "V",
        "xyz": [2.420107321571141, 1.8198039414723852, 7.084716107503111]
      },
      {
        "species": [{ "element": "V", "occu": 1 }],
        "abc": [0.65533664, 0.9274571500000001, 0.76143833],
        "properties": { "magmom": -2.004 },
        "label": "V",
        "xyz": [4.7095812169176785, 6.5202158254465665, 6.433200480645344]
      },
      {
        "species": [{ "element": "Te", "occu": 1 }],
        "abc": [0.08058918, 0.18392487, 0.65311223],
        "properties": { "magmom": 0.006 },
        "label": "Te",
        "xyz": [0.8833327800412495, 1.1830995903461483, 4.818131640885448]
      },
      {
        "species": [{ "element": "Te", "occu": 1 }],
        "abc": [0.7243308900000001, 0.34582372, 0.20548483],
        "properties": { "magmom": -0.014 },
        "label": "Te",
        "xyz": [3.6383783117124064, 2.446720931063324, 2.3225299785676476]
      },
      {
        "species": [{ "element": "Te", "occu": 1 }],
        "abc": [0.27569948, 0.65416137, 0.79450847],
        "properties": { "magmom": -0.014 },
        "label": "Te",
        "xyz": [2.6559863220976245, 4.543093779389441, 6.190900257964606]
      },
      {
        "species": [{ "element": "Te", "occu": 1 }],
        "abc": [0.91942229, 0.8160426, 0.34687439999999903],
        "properties": { "magmom": 0.006 },
        "label": "Te",
        "xyz": [5.41091903756068, 5.806589561062685, 3.6952256347307078]
      }
    ]
  },
  "task_ids": null,
  "uncorrected_energy_per_atom": null,
  "energy_per_atom": -19.655903543333334,
  "formation_energy_per_atom": -0.531817333333334,
  "energy_above_hull": 0.0,
  "is_stable": true,
  "equilibrium_reaction_energy_per_atom": null,
  "decomposes_to": null,
  "xas": null,
  "grain_boundaries": null,
  "band_gap": 0.0,
  "cbm": null,
  "vbm": null,
  "efermi": 6.6350016499999995,
  "is_gap_direct": null,
  "is_metal": null,
  "es_source_calc_id": null,
  "bandstructure": null,
  "dos": null,
  "dos_energy_up": null,
  "dos_energy_down": null,
  "is_magnetic": null,
  "ordering": null,
  "total_magnetization": 2.9069184,
  "total_magnetization_normalized_vol": null,
  "total_magnetization_normalized_formula_units": null,
  "num_magnetic_sites": null,
  "num_unique_magnetic_sites": null,
  "types_of_magnetic_species": null,
  "bulk_modulus": null,
  "shear_modulus": null,
  "universal_anisotropy": null,
  "homogeneous_poisson": null,
  "e_total": null,
  "e_ionic": null,
  "e_electronic": null,
  "n": null,
  "e_ij_max": null,
  "weighted_surface_energy_EV_PER_ANG2": null,
  "weighted_surface_energy": null,
  "weighted_work_function": null,
  "surface_anisotropy": null,
  "shape_factor": null,
  "has_reconstructed": null,
  "possible_species": null,
  "has_props": null,
  "theoretical": null,
  "database_IDs": null,
  "fields_not_requested": [
    "builder_meta",
    "nsites",
    "elements",
    "nelements",
    "composition",
    "composition_reduced",
    "chemsys",
    "symmetry",
    "property_name",
    "deprecated",
    "deprecation_reasons",
    "last_updated",
    "origins",
    "warnings",
    "task_ids",
    "uncorrected_energy_per_atom",
    "equilibrium_reaction_energy_per_atom",
    "decomposes_to",
    "xas",
    "grain_boundaries",
    "cbm",
    "vbm",
    "is_gap_direct",
    "is_metal",
    "es_source_calc_id",
    "bandstructure",
    "dos",
    "dos_energy_up",
    "dos_energy_down",
    "is_magnetic",
    "ordering",
    "total_magnetization_normalized_vol",
    "total_magnetization_normalized_formula_units",
    "num_magnetic_sites",
    "num_unique_magnetic_sites",
    "types_of_magnetic_species",
    "bulk_modulus",
    "shear_modulus",
    "universal_anisotropy",
    "homogeneous_poisson",
    "e_total",
    "e_ionic",
    "e_electronic",
    "n",
    "e_ij_max",
    "weighted_surface_energy_EV_PER_ANG2",
    "weighted_surface_energy",
    "weighted_work_function",
    "surface_anisotropy",
    "shape_factor",
    "has_reconstructed",
    "possible_species",
    "has_props",
    "theoretical",
    "database_IDs"
  ]
}
