{"builder_meta": null, "nsites": null, "elements": null, "nelements": null, "composition": null, "composition_reduced": null, "formula_pretty": "V6C5", "formula_anonymous": "A5B6", "chemsys": null, "volume": 321.4882712806797, "density": 5.666738188465111, "density_atomic": 9.742068826687264, "symmetry": null, "property_name": null, "material_id": "mp-28731", "deprecated": null, "deprecation_reasons": null, "last_updated": null, "origins": null, "warnings": null, "structure": {"@module": "pymatgen.core.structure", "@class": "Structure", "charge": 0, "lattice": {"matrix": [[5.09042847, -8.92e-06, 1.7e-06], [-2.545222459999999, 4.40843965, -4.91e-06], [4.78e-06, -1.3240000000000002e-05, 14.32604575]], "pbc": [true, true, true], "a": 5.090428470008099, "b": 5.090431957958448, "c": 14.326045750006918, "alpha": 90.00011068147556, "beta": 89.99996174820686, "gamma": 120.00018463263537, "volume": 321.4882712806797}, "properties": {}, "sites": [{"species": [{"element": "V", "occu": 1}], "abc": [0.77806106, 0.52896951, 0.41491473], "properties": {"magmom": -0.0}, "label": "V", "xyz": [2.6143210770075935, 2.3319177277493917, 5.944086129792406]}, {"species": [{"element": "V", "occu": 1}], "abc": [0.75090388, 0.22194118000000002, 0.08159787], "properties": {"magmom": -0.0}, "label": "V", "xyz": [3.257533202888379, 0.9784065194613787, 1.1689750055279549]}, {"species": [{"element": "V", "occu": 1}], "abc": [0.47103515, 0.24909529, 0.74826001], "properties": {"magmom": -0.0}, "label": "V", "xyz": [1.7637713878253554, 1.0981074444681782, 10.71960671385734]}, {"species": [{"element": "V", "occu": 1}], "abc": [0.75089616, 0.5289570100000001, 0.9184015600000001], "properties": {"magmom": 0.0}, "label": "V", "xyz": [2.476074318610688, 2.3318561983990453, 13.157061444775925]}, {"species": [{"element": "V", "occu": 1}], "abc": [0.77806197, 0.249098799999999, 0.58508601], "properties": {"magmom": 0.0}, "label": "V", "xyz": [3.3266597397043687, 1.0981223398358708, 8.3819690465752]}, {"species": [{"element": "V", "occu": 1}], "abc": [0.47103864, 0.22193772, 0.25174061000000003], "properties": {"magmom": -0.0}, "label": "V", "xyz": [1.8329088371810054, 0.978391509968253, 3.606447207044391]}, {"species": [{"element": "V", "occu": 1}], "abc": [0.11080341, 0.5275679, 0.74905739], "properties": {"magmom": -0.0}, "label": "V", "xyz": [-0.7787372549236264, 2.3257403425409744, 10.731028036523002]}, {"species": [{"element": "V", "occu": 1}], "abc": [0.47243522, 0.58323823, 0.08239549], "properties": {"magmom": 0.0}, "label": "V", "xyz": [0.9204270454425104, 2.5711652334893693, 1.1803994987738324]}, {"species": [{"element": "V", "occu": 1}], "abc": [0.41676805, 0.88919821, 0.41571214], "properties": {"magmom": -0.0}, "label": "V", "xyz": [-0.14167732127338273, 3.9199674240732865, 5.955507479012879]}, {"species": [{"element": "V", "occu": 1}], "abc": [0.47244202, 0.88919819, 0.9176044600000001], "properties": {"magmom": 0.0}, "label": "V", "xyz": [0.14172949060228207, 3.919960194238365, 13.145639911552367]}, {"species": [{"element": "V", "occu": 1}], "abc": [0.41676128, 0.52756295, 0.58428879], "properties": {"magmom": 0.0}, "label": "V", "xyz": [0.7787312084022012, 2.3257179731567703, 8.370546054912234]}, {"species": [{"element": "V", "occu": 1}], "abc": [0.110801199999999, 0.58324053, 0.25094338], "properties": {"magmom": -0.0}, "label": "V", "xyz": [-0.9204501140387877, 2.571176367101959, 3.595023667190673]}, {"species": [{"element": "V", "occu": 1}], "abc": [0.13543929, 0.88855248, 0.59037963], "properties": {"magmom": -0.0}, "label": "V", "xyz": [-1.5721168891974824, 3.917120959193064, 8.457801456702189]}, {"species": [{"element": "V", "occu": 1}], "abc": [0.11144724, 0.24689125, 0.9236969500000001], "properties": {"magmom": -0.0}, "label": "V", "xyz": [-0.0610745360071309, 1.0883919518810639, 13.232923742059734]}, {"species": [{"element": "V", "occu": 1}], "abc": [0.75311144, 0.86455863, 0.25703532], "properties": {"magmom": 0.0}, "label": "V", "xyz": [1.6331671008246975, 3.8113444233399982, 3.6822967889924647]}, {"species": [{"element": "V", "occu": 1}], "abc": [0.11144817, 0.86456111, 0.07630457], "properties": {"magmom": -0.0}, "label": "V", "xyz": [-1.6331810529812851, 3.8113634727818284, 1.0931387052209165]}, {"species": [{"element": "V", "occu": 1}], "abc": [0.75311468, 0.8885526300000001, 0.74296714], "properties": {"magmom": -0.0}, "label": "V", "xyz": [1.5721158488618003, 3.9171140905359008, 10.643778155888198]}, {"species": [{"element": "V", "occu": 1}], "abc": [0.13543407, 0.24688279999999901, 0.40962304], "properties": {"magmom": -0.0}, "label": "V", "xyz": [0.0610477561864189, 1.0883612929420616, 5.868277429337451]}, {"species": [{"element": "C", "occu": 1}], "abc": [0.44007866, 0.22004334, -9.519999999999999e-06], "properties": {"magmom": 0.0}, "label": "C", "xyz": [1.6801296887165282, 0.9700438593988286, -0.00013671623461739997]}, {"species": [{"element": "C", "occu": 1}], "abc": [0.77995453, 0.5599110900000001, 0.66666121], "properties": {"magmom": -0.0}, "label": "C", "xyz": [2.545207649586972, 2.468318465841891, 9.550617570969608]}, {"species": [{"element": "C", "occu": 1}], "abc": [0.7799465600000001, 0.22003493000000002, 0.33331894], "properties": {"magmom": -0.0}, "label": "C", "xyz": [3.410225921546569, 0.9699993395308938, 4.77514262931915]}, {"species": [{"element": "C", "occu": 1}], "abc": [0.1117542, 0.55586915, -9.41e-06], "properties": {"magmom": -0.0}, "label": "C", "xyz": [-0.8459338841240143, 2.450514604348922, -0.000137347425894]}, {"species": [{"element": "C", "occu": 1}], "abc": [0.44412305, 0.88824547, 0.6666609], "properties": {"magmom": 0.0}, "label": "C", "xyz": [-2.5156949194179542e-06, 3.9157637607129634, 9.550610946860102]}, {"species": [{"element": "C", "occu": 1}], "abc": [0.44414053000000003, 0.5558955800000001, 0.33331869000000003], "properties": {"magmom": 0.0}, "label": "C", "xyz": [0.8459892762255012, 2.4506237412587644, 4.7751368278616715]}, {"species": [{"element": "C", "occu": 1}], "abc": [0.7840074300000001, 0.89200826, -9.45e-06], "properties": {"magmom": 0.0}, "label": "C", "xyz": [1.720574284460843, 3.9323575882903516, -0.0001384280802631]}, {"species": [{"element": "C", "occu": 1}], "abc": [0.10800095, 0.21600153, 0.6666613100000001], "properties": {"magmom": -0.0}, "label": "C", "xyz": [2.351757744764261e-06, 0.9522199193484461, 9.550619549849037]}, {"species": [{"element": "C", "occu": 1}], "abc": [0.10799054, 0.89199018, 0.33331871], "properties": {"magmom": 0.0}, "label": "C", "xyz": [-1.720593727665334, 3.9322795005073, 4.775134892703117]}, {"species": [{"element": "C", "occu": 1}], "abc": [0.44105418, 0.22052952, 0.50001284], "properties": {"magmom": -0.0}, "label": "C", "xyz": [1.683860457348861, 0.9721805255901808, 7.163206488419593]}, {"species": [{"element": "C", "occu": 1}], "abc": [0.77947511, 0.55894672, 0.16669136], "properties": {"magmom": 0.0}, "label": "C", "xyz": [2.545219342697752, 2.4640737227738603, 2.388026630169012]}, {"species": [{"element": "C", "occu": 1}], "abc": [0.77947025, 0.22052424, 0.83333668], "properties": {"magmom": -0.0}, "label": "C", "xyz": [3.406558286844918, 0.9721498171498428, 11.938419645158517]}, {"species": [{"element": "C", "occu": 1}], "abc": [0.10854317000000001, 0.5542698500000001, 0.50001209], "properties": {"magmom": 0.0}, "label": "C", "xyz": [-0.8582064382709903, 2.4434575951744044, 7.163193539951544]}, {"species": [{"element": "C", "occu": 1}], "abc": [0.44572586000000003, 0.89145684, 0.16669075], "properties": {"magmom": -0.0}, "label": "C", "xyz": [-1.9566947606181805e-05, 3.929927496859505, 2.3880156912826904]}, {"species": [{"element": "C", "occu": 1}], "abc": [0.44573001, 0.55427287, 0.8333358200000001], "properties": {"magmom": -0.0}, "label": "C", "xyz": [0.8582129584899446, 2.4434634877493497, 11.938405118694991]}]}, "task_ids": null, "uncorrected_energy_per_atom": null, "energy_per_atom": -9.692741181515151, "formation_energy_per_atom": -0.543035374015151, "energy_above_hull": 0.0, "is_stable": true, "equilibrium_reaction_energy_per_atom": null, "decomposes_to": null, "xas": null, "grain_boundaries": null, "band_gap": 0.0, "cbm": null, "vbm": null, "efermi": 7.44154974, "is_gap_direct": null, "is_metal": null, "es_source_calc_id": null, "bandstructure": null, "dos": null, "dos_energy_up": null, "dos_energy_down": null, "is_magnetic": null, "ordering": null, "total_magnetization": 1.6e-06, "total_magnetization_normalized_vol": null, "total_magnetization_normalized_formula_units": null, "num_magnetic_sites": null, "num_unique_magnetic_sites": null, "types_of_magnetic_species": null, "bulk_modulus": null, "shear_modulus": null, "universal_anisotropy": null, "homogeneous_poisson": null, "e_total": null, "e_ionic": null, "e_electronic": null, "n": null, "e_ij_max": null, "weighted_surface_energy_EV_PER_ANG2": null, "weighted_surface_energy": null, "weighted_work_function": null, "surface_anisotropy": null, "shape_factor": null, "has_reconstructed": null, "possible_species": null, "has_props": null, "theoretical": null, "database_IDs": null, "fields_not_requested": ["builder_meta", "nsites", "elements", "nelements", "composition", "composition_reduced", "chemsys", "symmetry", "property_name", "deprecated", "deprecation_reasons", "last_updated", "origins", "warnings", "task_ids", "uncorrected_energy_per_atom", "equilibrium_reaction_energy_per_atom", "decomposes_to", "xas", "grain_boundaries", "cbm", "vbm", "is_gap_direct", "is_metal", "es_source_calc_id", "bandstructure", "dos", "dos_energy_up", "dos_energy_down", "is_magnetic", "ordering", "total_magnetization_normalized_vol", "total_magnetization_normalized_formula_units", "num_magnetic_sites", "num_unique_magnetic_sites", "types_of_magnetic_species", "bulk_modulus", "shear_modulus", "universal_anisotropy", "homogeneous_poisson", "e_total", "e_ionic", "e_electronic", "n", "e_ij_max", "weighted_surface_energy_EV_PER_ANG2", "weighted_surface_energy", "weighted_work_function", "surface_anisotropy", "shape_factor", "has_reconstructed", "possible_species", "has_props", "theoretical", "database_IDs"]}