{"builder_meta": null, "nsites": null, "elements": null, "nelements": null, "composition": null, "composition_reduced": null, "formula_pretty": "V6Ga5", "formula_anonymous": "A5B6", "chemsys": null, "volume": 312.27123414093876, "density": 6.958251757378579, "density_atomic": 14.194147006406308, "symmetry": null, "property_name": null, "material_id": "mp-571557", "deprecated": null, "deprecation_reasons": null, "last_updated": null, "origins": null, "warnings": null, "structure": {"@module": "pymatgen.core.structure", "@class": "Structure", "charge": 0, "lattice": {"matrix": [[8.41740908, -1e-08, -0.0], [-4.20870555, 7.2896908400000004, 0.0], [-0.0, 0.0, 5.08914044]], "pbc": [true, true, true], "a": 8.41740908, "b": 8.41741022817474, "c": 5.08914044, "alpha": 90.0, "beta": 90.0, "gamma": 120.00000349427022, "volume": 312.2712341409388}, "properties": {}, "sites": [{"species": [{"element": "V", "occu": 1}], "abc": [0.6871553300000001, 0.8435776700000001, 0.25], "properties": {"magmom": 0.0}, "label": "V", "xyz": [2.2336974925273285, 6.149420406955991, 1.27228511]}, {"species": [{"element": "V", "occu": 1}], "abc": [0.8435776700000001, 0.15642333, 0.75], "properties": {"magmom": 0.0}, "label": "V", "xyz": [6.442398602022763, 1.1402777074275205, 3.81685533]}, {"species": [{"element": "V", "occu": 1}], "abc": [0.5, -0.0, 0.0], "properties": {"magmom": -0.0}, "label": "V", "xyz": [4.20870454, -5e-09, 0.0]}, {"species": [{"element": "V", "occu": 1}], "abc": [0.15642333, 0.8435776700000001, 0.25], "properties": {"magmom": 0.0}, "label": "V", "xyz": [-2.2336908633192323, 6.149420412263311, 1.27228511]}, {"species": [{"element": "V", "occu": 1}], "abc": [0.8435776700000001, 0.6871553300000001, 0.75], "properties": {"magmom": 0.0}, "label": "V", "xyz": [4.208703888060162, 5.009149906322402, 3.81685533]}, {"species": [{"element": "V", "occu": 1}], "abc": [0.31284467, 0.15642333, 0.75], "properties": {"magmom": 0.0}, "label": "V", "xyz": [1.975001828767122, 1.1402777127348507, 3.81685533]}, {"species": [{"element": "V", "occu": 1}], "abc": [-0.0, 0.5, 0.0], "properties": {"magmom": -0.0}, "label": "V", "xyz": [-2.104352775, 3.6448454200000002, 0.0]}, {"species": [{"element": "V", "occu": 1}], "abc": [0.5, -0.0, 0.5], "properties": {"magmom": -0.0}, "label": "V", "xyz": [4.20870454, -5e-09, 2.54457022]}, {"species": [{"element": "V", "occu": 1}], "abc": [0.15642333, 0.31284467, 0.25], "properties": {"magmom": 0.0}, "label": "V", "xyz": [8.059348917788256e-06, 2.2805409236775898, 1.27228511]}, {"species": [{"element": "V", "occu": 1}], "abc": [0.5, 0.5, -0.0], "properties": {"magmom": -0.0}, "label": "V", "xyz": [2.104351765, 3.6448454150000003, 0.0]}, {"species": [{"element": "V", "occu": 1}], "abc": [-0.0, 0.5, 0.5], "properties": {"magmom": -0.0}, "label": "V", "xyz": [-2.104352775, 3.6448454200000002, 2.54457022]}, {"species": [{"element": "V", "occu": 1}], "abc": [0.5, 0.5, 0.5], "properties": {"magmom": -0.0}, "label": "V", "xyz": [2.104351765, 3.6448454150000003, 2.54457022]}, {"species": [{"element": "Ga", "occu": 1}], "abc": [-0.0, -0.0, -0.0], "properties": {"magmom": -0.0}, "label": "Ga", "xyz": [0.0, 0.0, 0.0]}, {"species": [{"element": "Ga", "occu": 1}], "abc": [0.79670155, 0.20329845, 0.25], "properties": {"magmom": -0.0}, "label": "Ga", "xyz": [5.850539546198676, 1.4819828407841826, 1.27228511]}, {"species": [{"element": "Ga", "occu": 1}], "abc": [0.20329845, 0.4065989, 0.75], "properties": {"magmom": -0.0}, "label": "Ga", "xyz": [-8.82807396895835e-06, 2.9639802748510915, 3.81685533]}, {"species": [{"element": "Ga", "occu": 1}], "abc": [0.5934011, 0.79670155, 0.75], "properties": {"magmom": -0.0}, "label": "Ga", "xyz": [1.6418175720433856, 5.807707985314791, 3.81685533]}, {"species": [{"element": "Ga", "occu": 1}], "abc": [0.79670155, 0.5934011, 0.25], "properties": {"magmom": -0.0}, "label": "Ga", "xyz": [4.208712358073969, 4.325710555148909, 1.27228511]}, {"species": [{"element": "Ga", "occu": 1}], "abc": [-0.0, -0.0, 0.5], "properties": {"magmom": -0.0}, "label": "Ga", "xyz": [0.0, 0.0, 2.54457022]}, {"species": [{"element": "Ga", "occu": 1}], "abc": [0.4065989, 0.20329845, 0.25], "properties": {"magmom": -0.0}, "label": "Ga", "xyz": [2.5668859579566146, 1.481982844685209, 1.27228511]}, {"species": [{"element": "Ga", "occu": 1}], "abc": [0.20329845, 0.79670155, 0.75], "properties": {"magmom": -0.0}, "label": "Ga", "xyz": [-1.6418360161986765, 5.807707989215817, 3.81685533]}, {"species": [{"element": "Ga", "occu": 1}], "abc": [0.666667, 0.333333, 0.75], "properties": {"magmom": -0.0}, "label": "Ga", "xyz": [4.20870841203821, 2.42989451010305, 3.81685533]}, {"species": [{"element": "Ga", "occu": 1}], "abc": [0.333333, 0.666667, 0.25], "properties": {"magmom": -0.0}, "label": "Ga", "xyz": [-4.882038210585193e-06, 4.85979631989695, 1.27228511]}]}, "task_ids": null, "uncorrected_energy_per_atom": null, "energy_per_atom": -13.144400614545454, "formation_energy_per_atom": -0.257915693636363, "energy_above_hull": 0.0, "is_stable": true, "equilibrium_reaction_energy_per_atom": null, "decomposes_to": null, "xas": null, "grain_boundaries": null, "band_gap": 0.0, "cbm": null, "vbm": null, "efermi": 5.14169189, "is_gap_direct": null, "is_metal": null, "es_source_calc_id": null, "bandstructure": null, "dos": null, "dos_energy_up": null, "dos_energy_down": null, "is_magnetic": null, "ordering": null, "total_magnetization": 7.580000000000001e-05, "total_magnetization_normalized_vol": null, "total_magnetization_normalized_formula_units": null, "num_magnetic_sites": null, "num_unique_magnetic_sites": null, "types_of_magnetic_species": null, "bulk_modulus": null, "shear_modulus": null, "universal_anisotropy": null, "homogeneous_poisson": null, "e_total": null, "e_ionic": null, "e_electronic": null, "n": null, "e_ij_max": null, "weighted_surface_energy_EV_PER_ANG2": null, "weighted_surface_energy": null, "weighted_work_function": null, "surface_anisotropy": null, "shape_factor": null, "has_reconstructed": null, "possible_species": null, "has_props": null, "theoretical": null, "database_IDs": null, "fields_not_requested": ["builder_meta", "nsites", "elements", "nelements", "composition", "composition_reduced", "chemsys", "symmetry", "property_name", "deprecated", "deprecation_reasons", "last_updated", "origins", "warnings", "task_ids", "uncorrected_energy_per_atom", "equilibrium_reaction_energy_per_atom", "decomposes_to", "xas", "grain_boundaries", "cbm", "vbm", "is_gap_direct", "is_metal", "es_source_calc_id", "bandstructure", "dos", "dos_energy_up", "dos_energy_down", "is_magnetic", "ordering", "total_magnetization_normalized_vol", "total_magnetization_normalized_formula_units", "num_magnetic_sites", "num_unique_magnetic_sites", "types_of_magnetic_species", "bulk_modulus", "shear_modulus", "universal_anisotropy", "homogeneous_poisson", "e_total", "e_ionic", "e_electronic", "n", "e_ij_max", "weighted_surface_energy_EV_PER_ANG2", "weighted_surface_energy", "weighted_work_function", "surface_anisotropy", "shape_factor", "has_reconstructed", "possible_species", "has_props", "theoretical", "database_IDs"]}