{"builder_meta": null, "nsites": null, "elements": null, "nelements": null, "composition": null, "composition_reduced": null, "formula_pretty": "V6Ga7", "formula_anonymous": "A6B7", "chemsys": null, "volume": 382.1778437091334, "density": 6.897241607518067, "density_atomic": 14.69914783496667, "symmetry": null, "property_name": null, "material_id": "mp-1216505", "deprecated": null, "deprecation_reasons": null, "last_updated": null, "origins": null, "warnings": null, "structure": {"@module": "pymatgen.core.structure", "@class": "Structure", "charge": 0, "lattice": {"matrix": [[6.449702, 4.585833, 0.0], [-6.449702, 4.585833, 0.0], [0.0, 4.415103, 6.460671]], "pbc": [true, true, true], "a": 7.913818306777898, "b": 7.913818306777898, "c": 7.825177587176536, "alpha": 70.91635904321154, "beta": 70.91635904321154, "gamma": 109.17322647258034, "volume": 382.1778437091334}, "properties": {}, "sites": [{"species": [{"element": "V", "occu": 1}], "abc": [0.006392999999999, 0.006392999999999, 0.660277999999999], "properties": {"magmom": 0.001}, "label": "V", "xyz": [0.0, 2.973829839371987, 4.2658389265379935]}, {"species": [{"element": "V", "occu": 1}], "abc": [0.0015769999999990002, 0.342188, 0.991794], "properties": {"magmom": 0.0}, "label": "V", "xyz": [-2.1968394479220064, 5.955321546026996, 6.407654733774]}, {"species": [{"element": "V", "occu": 1}], "abc": [0.342188, 0.0015769999999990002, 0.991794], "properties": {"magmom": 0.0}, "label": "V", "xyz": [2.1968394479220064, 5.955321546026996, 6.407654733774]}, {"species": [{"element": "V", "occu": 1}], "abc": [0.655137, 0.655137, 0.34307000000000004], "properties": {"magmom": 0.0}, "label": "V", "xyz": [0.0, 7.523387134451999, 2.21646239997]}, {"species": [{"element": "V", "occu": 1}], "abc": [0.997803999999999, 0.997803999999999, 0.207270999999999], "properties": {"magmom": 0.0}, "label": "V", "xyz": [0.0, 10.066647835376987, 1.3391097388409936]}, {"species": [{"element": "V", "occu": 1}], "abc": [0.007803, 0.795196, 0.993073], "properties": {"magmom": -0.0}, "label": "V", "xyz": [-5.078450206886, 8.066938894686, 6.4159179319829995]}, {"species": [{"element": "V", "occu": 1}], "abc": [0.795196, 0.007803, 0.993073], "properties": {"magmom": -0.0}, "label": "V", "xyz": [5.078450206886, 8.066938894686, 6.4159179319829995]}, {"species": [{"element": "V", "occu": 1}], "abc": [0.213028, 0.213028, 0.784397999999999], "properties": {"magmom": -0.0}, "label": "V", "xyz": [0.0, 5.417019627641996, 5.067737411057993]}, {"species": [{"element": "V", "occu": 1}], "abc": [0.994656, 0.654938999999999, 0.350485999999999], "properties": {"magmom": 0.0}, "label": "V", "xyz": [2.1910734143340056, 9.11219897769299, 2.2643747361059936]}, {"species": [{"element": "V", "occu": 1}], "abc": [0.340037, 0.340037, 0.012029], "properties": {"magmom": -0.002}, "label": "V", "xyz": [0.0, 3.1718150656289996, 0.07771541145899999]}, {"species": [{"element": "V", "occu": 1}], "abc": [0.654938999999999, 0.994656, 0.350485999999999], "properties": {"magmom": 0.0}, "label": "V", "xyz": [-2.1910734143340056, 9.11219897769299, 2.2643747361059936]}, {"species": [{"element": "V", "occu": 1}], "abc": [0.649435, 0.649435, 0.008516], "properties": {"magmom": 0.001}, "label": "V", "xyz": [0.0, 5.993999925858, 0.05501907423599999]}, {"species": [{"element": "Ga", "occu": 1}], "abc": [0.361409, 0.998518999999999, 0.6373], "properties": {"magmom": -0.0}, "label": "Ga", "xyz": [-4.109169641219994, 9.050147841923996, 4.117385628299999]}, {"species": [{"element": "Ga", "occu": 1}], "abc": [0.998518999999999, 0.361409, 0.6373], "properties": {"magmom": -0.0}, "label": "Ga", "xyz": [4.109169641219994, 9.050147841923996, 4.117385628299999]}, {"species": [{"element": "Ga", "occu": 1}], "abc": [0.991691, 0.260858, 0.345977], "properties": {"magmom": -0.0}, "label": "Ga", "xyz": [4.7136550617660005, 7.271504628948, 2.2352435705669995]}, {"species": [{"element": "Ga", "occu": 1}], "abc": [0.729103, 0.729103, 0.618383999999999], "properties": {"magmom": 0.0}, "label": "Ga", "xyz": [0.0, 9.417318249149995, 3.9951755756639935]}, {"species": [{"element": "Ga", "occu": 1}], "abc": [0.260858, 0.991691, 0.345977], "properties": {"magmom": -0.0}, "label": "Ga", "xyz": [-4.7136550617660005, 7.271504628948, 2.2352435705669995]}, {"species": [{"element": "Ga", "occu": 1}], "abc": [0.990058, 0.650594, 0.735822], "properties": {"magmom": 0.0}, "label": "Ga", "xyz": [2.189441639728, 10.772486002782, 4.753903856561999]}, {"species": [{"element": "Ga", "occu": 1}], "abc": [0.265648, 0.640378, 0.018306], "properties": {"magmom": 0.0}, "label": "Ga", "xyz": [-2.4168968304600003, 4.235706805176, 0.118269043326]}, {"species": [{"element": "Ga", "occu": 1}], "abc": [0.742028, 0.393075, 0.265557], "properties": {"magmom": -0.0}, "label": "Ga", "xyz": [2.250642862006, 6.37785430317, 1.7156764087469998]}, {"species": [{"element": "Ga", "occu": 1}], "abc": [0.393075, 0.742028, 0.265557], "properties": {"magmom": -0.0}, "label": "Ga", "xyz": [-2.250642862006, 6.37785430317, 1.7156764087469998]}, {"species": [{"element": "Ga", "occu": 1}], "abc": [0.640378, 0.265648, 0.018306], "properties": {"magmom": 0.0}, "label": "Ga", "xyz": [2.4168968304600003, 4.235706805176, 0.118269043326]}, {"species": [{"element": "Ga", "occu": 1}], "abc": [0.650594, 0.990058, 0.735822], "properties": {"magmom": 0.0}, "label": "Ga", "xyz": [-2.189441639728, 10.772486002782, 4.753903856561999]}, {"species": [{"element": "Ga", "occu": 1}], "abc": [0.612848, 0.353211999999999, 0.657683], "properties": {"magmom": -0.0}, "label": "Ga", "xyz": [1.6745748284720063, 7.333928014328997, 4.249073485293]}, {"species": [{"element": "Ga", "occu": 1}], "abc": [0.352386, 0.352386, 0.374059], "properties": {"magmom": 0.0}, "label": "Ga", "xyz": [0.0, 4.883475708153, 2.4166721335889996]}, {"species": [{"element": "Ga", "occu": 1}], "abc": [0.353211999999999, 0.612848, 0.657683], "properties": {"magmom": -0.0}, "label": "Ga", "xyz": [-1.6745748284720063, 7.333928014328997, 4.249073485293]}]}, "task_ids": null, "uncorrected_energy_per_atom": null, "energy_per_atom": -12.885156538461537, "formation_energy_per_atom": -0.22078068999999803, "energy_above_hull": 0.040851295384616, "is_stable": false, "equilibrium_reaction_energy_per_atom": null, "decomposes_to": null, "xas": null, "grain_boundaries": null, "band_gap": 0.0, "cbm": null, "vbm": null, "efermi": 5.35144982, "is_gap_direct": null, "is_metal": null, "es_source_calc_id": null, "bandstructure": null, "dos": null, "dos_energy_up": null, "dos_energy_down": null, "is_magnetic": null, "ordering": null, "total_magnetization": 5.9000000000000025e-05, "total_magnetization_normalized_vol": null, "total_magnetization_normalized_formula_units": null, "num_magnetic_sites": null, "num_unique_magnetic_sites": null, "types_of_magnetic_species": null, "bulk_modulus": null, "shear_modulus": null, "universal_anisotropy": null, "homogeneous_poisson": null, "e_total": null, "e_ionic": null, "e_electronic": null, "n": null, "e_ij_max": null, "weighted_surface_energy_EV_PER_ANG2": null, "weighted_surface_energy": null, "weighted_work_function": null, "surface_anisotropy": null, "shape_factor": null, "has_reconstructed": null, "possible_species": null, "has_props": null, "theoretical": null, "database_IDs": null, "fields_not_requested": ["builder_meta", "nsites", "elements", "nelements", "composition", "composition_reduced", "chemsys", "symmetry", "property_name", "deprecated", "deprecation_reasons", "last_updated", "origins", "warnings", "task_ids", "uncorrected_energy_per_atom", "equilibrium_reaction_energy_per_atom", "decomposes_to", "xas", "grain_boundaries", "cbm", "vbm", "is_gap_direct", "is_metal", "es_source_calc_id", "bandstructure", "dos", "dos_energy_up", "dos_energy_down", "is_magnetic", "ordering", "total_magnetization_normalized_vol", "total_magnetization_normalized_formula_units", "num_magnetic_sites", "num_unique_magnetic_sites", "types_of_magnetic_species", "bulk_modulus", "shear_modulus", "universal_anisotropy", "homogeneous_poisson", "e_total", "e_ionic", "e_electronic", "n", "e_ij_max", "weighted_surface_energy_EV_PER_ANG2", "weighted_surface_energy", "weighted_work_function", "surface_anisotropy", "shape_factor", "has_reconstructed", "possible_species", "has_props", "theoretical", "database_IDs"]}