{
  "builder_meta": null,
  "nsites": null,
  "elements": null,
  "nelements": null,
  "composition": null,
  "composition_reduced": null,
  "formula_pretty": "V6Si5",
  "formula_anonymous": "A5B6",
  "chemsys": null,
  "volume": 283.132526810431,
  "density": 5.232372721613457,
  "density_atomic": 12.869660309565045,
  "symmetry": null,
  "property_name": null,
  "material_id": "mp-976",
  "deprecated": null,
  "deprecation_reasons": null,
  "last_updated": null,
  "origins": null,
  "warnings": null,
  "structure": {
    "@module": "pymatgen.core.structure",
    "@class": "Structure",
    "charge": 0,
    "lattice": {
      "matrix": [
        [4.62979665, -3.0990000000000007e-5, -1.27495052],
        [-0.84086311, 6.74072706, -3.05300626],
        [0.00803715, -0.00384083, 9.07204317]
      ],
      "pbc": [true, true, true],
      "a": 4.802136592159773,
      "b": 7.447502889611679,
      "c": 9.072047543200977,
      "alpha": 114.23121632317763,
      "beta": 105.34569643615386,
      "gamma": 90.0012851464244,
      "volume": 283.132526810431
    },
    "properties": {},
    "sites": [
      {
        "species": [{ "element": "V", "occu": 1 }],
        "abc": [0.06036767, 0.31035595, 0.62074629],
        "properties": { "magmom": 0.0 },
        "label": "V",
        "xyz": [0.023512198054974544, 2.089638698629893, 4.606952690061405]
      },
      {
        "species": [{ "element": "V", "occu": 1 }],
        "abc": [0.43962073, 0.6896335100000001, 0.3792278],
        "properties": { "magmom": 0.0 },
        "label": "V",
        "xyz": [1.4585151157585088, 4.647161088982284, 0.7744208714120737]
      },
      {
        "species": [{ "element": "V", "occu": 1 }],
        "abc": [0.93963233, 0.6896440500000001, 0.37925371],
        "properties": { "magmom": 0.0 },
        "label": "V",
        "xyz": [3.7734584919450262, 4.647216541370108, 0.13713369993859592]
      },
      {
        "species": [{ "element": "V", "occu": 1 }],
        "abc": [0.56037927, 0.31036649, 0.6207722],
        "properties": { "magmom": 0.0 },
        "label": "V",
        "xyz": [2.338455574241492, 2.089694151017716, 3.9696655185879273]
      },
      {
        "species": [{ "element": "V", "occu": 1 }],
        "abc": [0.14351292000000002, 0.25760915, 0.28681899],
        "properties": { "magmom": 0.001 },
        "label": "V",
        "xyz": [0.45012681245974, 1.7353668978618466, 1.6325800396918009]
      },
      {
        "species": [{ "element": "V", "occu": 1 }],
        "abc": [0.8564870800000001, 0.74239085, 0.71318101],
        "properties": { "magmom": 0.001 },
        "label": "V",
        "xyz": [3.3468438775402607, 5.0014883421381535, 3.1115063503081988]
      },
      {
        "species": [{ "element": "V", "occu": 1 }],
        "abc": [0.35662837000000003, 0.9708115900000001, 0.71326771],
        "properties": { "magmom": 0.001 },
        "label": "V",
        "xyz": [0.8405298195049421, 6.54122536294284, 3.0522180695582346]
      },
      {
        "species": [{ "element": "V", "occu": 1 }],
        "abc": [0.64337163, 0.02918841, 0.28673229],
        "properties": { "magmom": 0.001 },
        "label": "V",
        "xyz": [2.956440870495058, 0.19562987705716023, 1.6918683204417655]
      },
      {
        "species": [{ "element": "V", "occu": 1 }],
        "abc": [0.43471776, 0.68173508, 0.86931194],
        "properties": { "magmom": -0.0 },
        "label": "V",
        "xyz": [1.4463957398371763, 4.592037750225373, 5.250850346809614]
      },
      {
        "species": [{ "element": "V", "occu": 1 }],
        "abc": [0.56528224, 0.31826492, 0.13068806],
        "properties": { "magmom": -0.0 },
        "label": "V",
        "xyz": [2.350574950162824, 2.1448174897746277, -0.5067639568096138]
      },
      {
        "species": [{ "element": "V", "occu": 1 }],
        "abc": [0.06541225, 0.81240841, 0.13069423],
        "properties": { "magmom": -0.0 },
        "label": "V",
        "xyz": [-0.3792284371731481, 5.475719351613536, -1.378021646928607]
      },
      {
        "species": [{ "element": "V", "occu": 1 }],
        "abc": [0.93458775, 0.18759159, 0.86930577],
        "properties": { "magmom": -0.0 },
        "label": "V",
        "xyz": [4.176199127173149, 1.2611358883864638, 6.122108036928608]
      },
      {
        "species": [{ "element": "Si", "occu": 1 }],
        "abc": [0.75001904, 2.0350000000000003e-5, 3.6400000000000004e-5],
        "properties": { "magmom": -0.0 },
        "label": "Si",
        "xyz": [3.4724188198161876, 0.00011379089940940002, -0.9559690713639037]
      },
      {
        "species": [{ "element": "Si", "occu": 1 }],
        "abc": [0.24998096, 0.99997965, 0.9999636],
        "properties": { "magmom": -0.0 },
        "label": "Si",
        "xyz": [0.32455187018381254, 6.736741449100592, 5.700055461363904]
      },
      {
        "species": [{ "element": "Si", "occu": 1 }],
        "abc": [0.28577385, 0.58308685, 0.57149429],
        "properties": { "magmom": -0.0 },
        "label": "Si",
        "xyz": [0.8373717766293723, 3.9282254395796894, 3.0401055484549167]
      },
      {
        "species": [{ "element": "Si", "occu": 1 }],
        "abc": [0.71422615, 0.41691315, 0.42850571],
        "properties": { "magmom": -0.0 },
        "label": "Si",
        "xyz": [2.9595989133706277, 2.8086298004203116, 1.703980841545084]
      },
      {
        "species": [{ "element": "Si", "occu": 1 }],
        "abc": [0.21425531, 0.01163641, 0.42849839],
        "properties": { "magmom": -0.0 },
        "label": "Si",
        "xyz": [0.985617794416065, 0.076785434524934, 3.5786649408843085]
      },
      {
        "species": [{ "element": "Si", "occu": 1 }],
        "abc": [0.78574469, 0.9883635900000001, 0.57150161],
        "properties": { "magmom": -0.0 },
        "label": "Si",
        "xyz": [2.811352895583935, 6.660069805475066, 1.1654214491156916]
      },
      {
        "species": [{ "element": "Si", "occu": 1 }],
        "abc": [0.06324549, 0.473866599999999, 0.12672816],
        "properties": { "magmom": 0.0 },
        "label": "Si",
        "xyz": [-0.10462465204037268, 3.193716712153681, -0.37766922819340043]
      },
      {
        "species": [{ "element": "Si", "occu": 1 }],
        "abc": [0.93675451, 0.5261334, 0.87327184],
        "properties": { "magmom": 0.0 },
        "label": "Si",
        "xyz": [3.9015953420403737, 3.543138527846312, 5.121755618193404]
      },
      {
        "species": [{ "element": "Si", "occu": 1 }],
        "abc": [0.43658411, 0.34715059, 0.87328761],
        "properties": { "magmom": 0.0 },
        "label": "Si",
        "xyz": [1.7364082686902085, 2.3366796969152803, 6.306026835245193]
      },
      {
        "species": [{ "element": "Si", "occu": 1 }],
        "abc": [0.56341589, 0.65284941, 0.12671239],
        "properties": { "magmom": 0.0 },
        "label": "Si",
        "xyz": [2.0605624213097924, 4.40017554308472, -1.561940445245193]
      }
    ]
  },
  "task_ids": null,
  "uncorrected_energy_per_atom": null,
  "energy_per_atom": -12.230829966818181,
  "formation_energy_per_atom": -0.557532025454546,
  "energy_above_hull": 0.010512936818180002,
  "is_stable": false,
  "equilibrium_reaction_energy_per_atom": null,
  "decomposes_to": null,
  "xas": null,
  "grain_boundaries": null,
  "band_gap": 0.0,
  "cbm": null,
  "vbm": null,
  "efermi": 8.55858934,
  "is_gap_direct": null,
  "is_metal": null,
  "es_source_calc_id": null,
  "bandstructure": null,
  "dos": null,
  "dos_energy_up": null,
  "dos_energy_down": null,
  "is_magnetic": null,
  "ordering": null,
  "total_magnetization": 0.004508199999999,
  "total_magnetization_normalized_vol": null,
  "total_magnetization_normalized_formula_units": null,
  "num_magnetic_sites": null,
  "num_unique_magnetic_sites": null,
  "types_of_magnetic_species": null,
  "bulk_modulus": null,
  "shear_modulus": null,
  "universal_anisotropy": null,
  "homogeneous_poisson": null,
  "e_total": null,
  "e_ionic": null,
  "e_electronic": null,
  "n": null,
  "e_ij_max": null,
  "weighted_surface_energy_EV_PER_ANG2": null,
  "weighted_surface_energy": null,
  "weighted_work_function": null,
  "surface_anisotropy": null,
  "shape_factor": null,
  "has_reconstructed": null,
  "possible_species": null,
  "has_props": null,
  "theoretical": null,
  "database_IDs": null,
  "fields_not_requested": [
    "builder_meta",
    "nsites",
    "elements",
    "nelements",
    "composition",
    "composition_reduced",
    "chemsys",
    "symmetry",
    "property_name",
    "deprecated",
    "deprecation_reasons",
    "last_updated",
    "origins",
    "warnings",
    "task_ids",
    "uncorrected_energy_per_atom",
    "equilibrium_reaction_energy_per_atom",
    "decomposes_to",
    "xas",
    "grain_boundaries",
    "cbm",
    "vbm",
    "is_gap_direct",
    "is_metal",
    "es_source_calc_id",
    "bandstructure",
    "dos",
    "dos_energy_up",
    "dos_energy_down",
    "is_magnetic",
    "ordering",
    "total_magnetization_normalized_vol",
    "total_magnetization_normalized_formula_units",
    "num_magnetic_sites",
    "num_unique_magnetic_sites",
    "types_of_magnetic_species",
    "bulk_modulus",
    "shear_modulus",
    "universal_anisotropy",
    "homogeneous_poisson",
    "e_total",
    "e_ionic",
    "e_electronic",
    "n",
    "e_ij_max",
    "weighted_surface_energy_EV_PER_ANG2",
    "weighted_surface_energy",
    "weighted_work_function",
    "surface_anisotropy",
    "shape_factor",
    "has_reconstructed",
    "possible_species",
    "has_props",
    "theoretical",
    "database_IDs"
  ]
}
