{"builder_meta": null, "nsites": null, "elements": null, "nelements": null, "composition": null, "composition_reduced": null, "formula_pretty": "V7O3", "formula_anonymous": "A3B7", "chemsys": null, "volume": 147.0339768293617, "density": 4.569252337060819, "density_atomic": 14.70339768293617, "symmetry": null, "property_name": null, "material_id": "mp-1100921", "deprecated": null, "deprecation_reasons": null, "last_updated": null, "origins": null, "warnings": null, "structure": {"@module": "pymatgen.core.structure", "@class": "Structure", "charge": 0, "lattice": {"matrix": [[5.221566, 1.100104, -0.571713], [-0.370712999999999, 4.974632, -1.914501], [-0.631317999999999, -2.321152, 6.488814]], "pbc": [true, true, true], "a": 5.366734207834501, "b": 5.343192467317081, "c": 6.920333528871567, "alpha": 129.9343575753084, "beta": 104.915820554412, "gamma": 80.70529268350937, "volume": 147.0339768293617}, "properties": {}, "sites": [{"species": [{"element": "V", "occu": 1}], "abc": [0.5, 0.0, 0.5], "properties": {"magmom": 2.632}, "label": "V", "xyz": [2.2951240000000004, -0.6105240000000001, 2.9585505]}, {"species": [{"element": "V", "occu": 1}], "abc": [0.073581, 0.135157, 0.7758], "properties": {"magmom": 2.636}, "label": "V", "xyz": [-0.15567291349499918, -1.0474466319520002, 4.73319647529]}, {"species": [{"element": "V", "occu": 1}], "abc": [0.216128, 0.428548999999999, 0.360355], "properties": {"magmom": 2.627}, "label": "V", "xyz": [0.742159333121001, 1.5331981173199951, 1.3942558926570014]}, {"species": [{"element": "V", "occu": 1}], "abc": [0.357997, 0.713758999999999, 0.922844999999999], "properties": {"magmom": 2.6470000000000002}, "label": "V", "xyz": [1.0220965634250025, 1.8024587759359973, 4.417005697709995]}, {"species": [{"element": "V", "occu": 1}], "abc": [0.642003, 0.286240999999999, 0.077155], "properties": {"magmom": 2.6470000000000002}, "label": "V", "xyz": [3.197438436575001, 1.9511252240639951, -0.41440569770999813]}, {"species": [{"element": "V", "occu": 1}], "abc": [0.783872, 0.571450999999999, 0.639645], "properties": {"magmom": 2.627}, "label": "V", "xyz": [3.4773756668790017, 2.2203858826799943, 2.608344107343002]}, {"species": [{"element": "V", "occu": 1}], "abc": [0.926419, 0.864842999999999, 0.2242], "properties": {"magmom": 2.636}, "label": "V", "xyz": [4.375207913495002, 4.801030631951995, -0.7305964752899983]}, {"species": [{"element": "O", "occu": 1}], "abc": [0.719386, 0.430137, 0.862066999999999], "properties": {"magmom": 0.047}, "label": "O", "xyz": [3.0526256864890016, 0.9301841595440017, 4.359012373682994]}, {"species": [{"element": "O", "occu": 1}], "abc": [0.0, 0.0, 0.0], "properties": {"magmom": 0.046}, "label": "O", "xyz": [0.0, 0.0, 0.0]}, {"species": [{"element": "O", "occu": 1}], "abc": [0.280614, 0.569863, 0.137933], "properties": {"magmom": 0.047}, "label": "O", "xyz": [1.1669093135110007, 2.823399840456, -0.35641237368300005]}]}, "task_ids": null, "uncorrected_energy_per_atom": null, "energy_per_atom": -8.286693774, "formation_energy_per_atom": -0.44357122349999906, "energy_above_hull": 0.8237026231250011, "is_stable": false, "equilibrium_reaction_energy_per_atom": null, "decomposes_to": null, "xas": null, "grain_boundaries": null, "band_gap": 0.821299999999999, "cbm": null, "vbm": null, "efermi": 5.44623387, "is_gap_direct": null, "is_metal": null, "es_source_calc_id": null, "bandstructure": null, "dos": null, "dos_energy_up": null, "dos_energy_down": null, "is_magnetic": null, "ordering": null, "total_magnetization": 20.9999653, "total_magnetization_normalized_vol": null, "total_magnetization_normalized_formula_units": null, "num_magnetic_sites": null, "num_unique_magnetic_sites": null, "types_of_magnetic_species": null, "bulk_modulus": null, "shear_modulus": null, "universal_anisotropy": null, "homogeneous_poisson": null, "e_total": null, "e_ionic": null, "e_electronic": null, "n": null, "e_ij_max": null, "weighted_surface_energy_EV_PER_ANG2": null, "weighted_surface_energy": null, "weighted_work_function": null, "surface_anisotropy": null, "shape_factor": null, "has_reconstructed": null, "possible_species": null, "has_props": null, "theoretical": null, "database_IDs": null, "fields_not_requested": ["builder_meta", "nsites", "elements", "nelements", "composition", "composition_reduced", "chemsys", "symmetry", "property_name", "deprecated", "deprecation_reasons", "last_updated", "origins", "warnings", "task_ids", "uncorrected_energy_per_atom", "equilibrium_reaction_energy_per_atom", "decomposes_to", "xas", "grain_boundaries", "cbm", "vbm", "is_gap_direct", "is_metal", "es_source_calc_id", "bandstructure", "dos", "dos_energy_up", "dos_energy_down", "is_magnetic", "ordering", "total_magnetization_normalized_vol", "total_magnetization_normalized_formula_units", "num_magnetic_sites", "num_unique_magnetic_sites", "types_of_magnetic_species", "bulk_modulus", "shear_modulus", "universal_anisotropy", "homogeneous_poisson", "e_total", "e_ionic", "e_electronic", "n", "e_ij_max", "weighted_surface_energy_EV_PER_ANG2", "weighted_surface_energy", "weighted_work_function", "surface_anisotropy", "shape_factor", "has_reconstructed", "possible_species", "has_props", "theoretical", "database_IDs"]}