{"builder_meta": null, "nsites": null, "elements": null, "nelements": null, "composition": null, "composition_reduced": null, "formula_pretty": "V7O4", "formula_anonymous": "A4B7", "chemsys": null, "volume": 141.2735540209622, "density": 4.94362144307234, "density_atomic": 12.843050365542018, "symmetry": null, "property_name": null, "material_id": "mp-1205504", "deprecated": null, "deprecation_reasons": null, "last_updated": null, "origins": null, "warnings": null, "structure": {"@module": "pymatgen.core.structure", "@class": "Structure", "charge": 0, "lattice": {"matrix": [[1.568508, 5.140428, 0.0], [-1.568508, 5.140428, 0.0], [0.0, 0.262073, 8.760822]], "pbc": [true, true, true], "a": 5.374403908271875, "b": 5.374403908271875, "c": 8.764740975808298, "alpha": 88.36116954964477, "beta": 88.36116954964477, "gamma": 33.93722804704894, "volume": 141.2735540209622}, "properties": {}, "sites": [{"species": [{"element": "V", "occu": 1}], "abc": [0.443938, 0.443938, 0.309108], "properties": {"magmom": 2.497}, "label": "V", "xyz": [0.0, 4.6450715118120005, 2.7080401667759997]}, {"species": [{"element": "V", "occu": 1}], "abc": [0.556062, 0.556062, 0.690892], "properties": {"magmom": 2.497}, "label": "V", "xyz": [0.0, 5.8978574881879995, 6.052781833223999]}, {"species": [{"element": "V", "occu": 1}], "abc": [0.845262, 0.845262, 0.553588], "properties": {"magmom": 1.57}, "label": "V", "xyz": [0.0, 8.835097372196, 4.849885929336]}, {"species": [{"element": "V", "occu": 1}], "abc": [0.154738, 0.154738, 0.446412], "properties": {"magmom": 1.57}, "label": "V", "xyz": [0.0, 1.7078316278039998, 3.9109360706639995]}, {"species": [{"element": "V", "occu": 1}], "abc": [0.725731999999999, 0.725731999999999, 0.160182], "properties": {"magmom": 2.628}, "label": "V", "xyz": [0.0, 7.50312556387799, 1.4033259896039998]}, {"species": [{"element": "V", "occu": 1}], "abc": [0.274268, 0.274268, 0.839818], "properties": {"magmom": 2.628}, "label": "V", "xyz": [0.0, 3.039803436122, 7.357496010395999]}, {"species": [{"element": "V", "occu": 1}], "abc": [0.0, 0.0, 0.0], "properties": {"magmom": 2.705}, "label": "V", "xyz": [0.0, 0.0, 0.0]}, {"species": [{"element": "O", "occu": 1}], "abc": [0.3612, 0.3612, 0.075267], "properties": {"magmom": 0.036000000000000004}, "label": "O", "xyz": [0.0, 3.733170635691, 0.6594007894739999]}, {"species": [{"element": "O", "occu": 1}], "abc": [0.6388, 0.6388, 0.924732999999999], "properties": {"magmom": 0.036000000000000004}, "label": "O", "xyz": [0.0, 6.809758364309, 8.101421210525992]}, {"species": [{"element": "O", "occu": 1}], "abc": [0.081946999999999, 0.081946999999999, 0.224031999999999], "properties": {"magmom": 0.04}, "label": "O", "xyz": [0.0, 0.9011980449679896, 1.9627044743039912]}, {"species": [{"element": "O", "occu": 1}], "abc": [0.918053, 0.918053, 0.775968], "properties": {"magmom": 0.04}, "label": "O", "xyz": [0.0, 9.641730955032001, 6.798117525695999]}]}, "task_ids": null, "uncorrected_energy_per_atom": null, "energy_per_atom": -8.467943052727271, "formation_energy_per_atom": -0.8880170063636361, "energy_above_hull": 0.6480725046969711, "is_stable": false, "equilibrium_reaction_energy_per_atom": null, "decomposes_to": null, "xas": null, "grain_boundaries": null, "band_gap": 0.0, "cbm": null, "vbm": null, "efermi": 5.60660544, "is_gap_direct": null, "is_metal": null, "es_source_calc_id": null, "bandstructure": null, "dos": null, "dos_energy_up": null, "dos_energy_down": null, "is_magnetic": null, "ordering": null, "total_magnetization": 17.7890994, "total_magnetization_normalized_vol": null, "total_magnetization_normalized_formula_units": null, "num_magnetic_sites": null, "num_unique_magnetic_sites": null, "types_of_magnetic_species": null, "bulk_modulus": null, "shear_modulus": null, "universal_anisotropy": null, "homogeneous_poisson": null, "e_total": null, "e_ionic": null, "e_electronic": null, "n": null, "e_ij_max": null, "weighted_surface_energy_EV_PER_ANG2": null, "weighted_surface_energy": null, "weighted_work_function": null, "surface_anisotropy": null, "shape_factor": null, "has_reconstructed": null, "possible_species": null, "has_props": null, "theoretical": null, "database_IDs": null, "fields_not_requested": ["builder_meta", "nsites", "elements", "nelements", "composition", "composition_reduced", "chemsys", "symmetry", "property_name", "deprecated", "deprecation_reasons", "last_updated", "origins", "warnings", "task_ids", "uncorrected_energy_per_atom", "equilibrium_reaction_energy_per_atom", "decomposes_to", "xas", "grain_boundaries", "cbm", "vbm", "is_gap_direct", "is_metal", "es_source_calc_id", "bandstructure", "dos", "dos_energy_up", "dos_energy_down", "is_magnetic", "ordering", "total_magnetization_normalized_vol", "total_magnetization_normalized_formula_units", "num_magnetic_sites", "num_unique_magnetic_sites", "types_of_magnetic_species", "bulk_modulus", "shear_modulus", "universal_anisotropy", "homogeneous_poisson", "e_total", "e_ionic", "e_electronic", "n", "e_ij_max", "weighted_surface_energy_EV_PER_ANG2", "weighted_surface_energy", "weighted_work_function", "surface_anisotropy", "shape_factor", "has_reconstructed", "possible_species", "has_props", "theoretical", "database_IDs"]}