{
  "builder_meta": null,
  "nsites": null,
  "elements": null,
  "nelements": null,
  "composition": null,
  "composition_reduced": null,
  "formula_pretty": "V8C7",
  "formula_anonymous": "A7B8",
  "chemsys": null,
  "volume": 579.0249436813262,
  "density": 5.639359559676576,
  "density_atomic": 9.650415728022104,
  "symmetry": null,
  "property_name": null,
  "material_id": "mp-542730",
  "deprecated": null,
  "deprecation_reasons": null,
  "last_updated": null,
  "origins": null,
  "warnings": null,
  "structure": {
    "@module": "pymatgen.core.structure",
    "@class": "Structure",
    "charge": 0,
    "lattice": {
      "matrix": [
        [8.334875, 0.0, 0.0],
        [0.0, 8.334875, 0.0],
        [0.0, 0.0, 8.334875]
      ],
      "pbc": [true, true, true],
      "a": 8.334875,
      "b": 8.334875,
      "c": 8.334875,
      "alpha": 90.0,
      "beta": 90.0,
      "gamma": 90.0,
      "volume": 579.0249436813262
    },
    "properties": {},
    "sites": [
      {
        "species": [{ "element": "V", "occu": 1 }],
        "abc": [0.378166, 0.378166, 0.378166],
        "properties": { "magmom": 0.0 },
        "label": "V",
        "xyz": [3.15196633925, 3.15196633925, 3.15196633925]
      },
      {
        "species": [{ "element": "V", "occu": 1 }],
        "abc": [0.128166, 0.371834, 0.628166],
        "properties": { "magmom": 0.0 },
        "label": "V",
        "xyz": [1.06824758925, 3.0991899107500003, 5.23568508925]
      },
      {
        "species": [{ "element": "V", "occu": 1 }],
        "abc": [0.628166, 0.128166, 0.371834],
        "properties": { "magmom": 0.0 },
        "label": "V",
        "xyz": [5.23568508925, 1.06824758925, 3.0991899107500003]
      },
      {
        "species": [{ "element": "V", "occu": 1 }],
        "abc": [0.371834, 0.628166, 0.128166],
        "properties": { "magmom": 0.0 },
        "label": "V",
        "xyz": [3.0991899107500003, 5.23568508925, 1.06824758925]
      },
      {
        "species": [{ "element": "V", "occu": 1 }],
        "abc": [0.121834, 0.621834, 0.878166],
        "properties": { "magmom": 0.0 },
        "label": "V",
        "xyz": [1.01547116075, 5.18290866075, 7.3194038392500005]
      },
      {
        "species": [{ "element": "V", "occu": 1 }],
        "abc": [0.878166, 0.121834, 0.621834],
        "properties": { "magmom": 0.0 },
        "label": "V",
        "xyz": [7.3194038392500005, 1.01547116075, 5.18290866075]
      },
      {
        "species": [{ "element": "V", "occu": 1 }],
        "abc": [0.621834, 0.878166, 0.121834],
        "properties": { "magmom": 0.0 },
        "label": "V",
        "xyz": [5.18290866075, 7.3194038392500005, 1.01547116075]
      },
      {
        "species": [{ "element": "V", "occu": 1 }],
        "abc": [0.871834, 0.871834, 0.871834],
        "properties": { "magmom": 0.0 },
        "label": "V",
        "xyz": [7.26662741075, 7.26662741075, 7.26662741075]
      },
      {
        "species": [{ "element": "V", "occu": 1 }],
        "abc": [0.1442, 0.37243000000000004, 0.119605999999999],
        "properties": { "magmom": 0.0 },
        "label": "V",
        "xyz": [1.201888975, 3.1041574962500005, 0.9969010592499917]
      },
      {
        "species": [{ "element": "V", "occu": 1 }],
        "abc": [0.8942, 0.630394, 0.62243],
        "properties": { "magmom": 0.0 },
        "label": "V",
        "xyz": [7.453045225, 5.25425519075, 5.18787624625]
      },
      {
        "species": [{ "element": "V", "occu": 1 }],
        "abc": [0.3942, 0.869606, 0.37757],
        "properties": { "magmom": 0.0 },
        "label": "V",
        "xyz": [3.285607725, 7.24805730925, 3.14699875375]
      },
      {
        "species": [{ "element": "V", "occu": 1 }],
        "abc": [0.369606, 0.12243000000000001, 0.6058],
        "properties": { "magmom": 0.0 },
        "label": "V",
        "xyz": [3.08061980925, 1.0204387462500002, 5.049267275]
      },
      {
        "species": [{ "element": "V", "occu": 1 }],
        "abc": [0.630394, 0.62243, 0.8942],
        "properties": { "magmom": 0.0 },
        "label": "V",
        "xyz": [5.25425519075, 5.18787624625, 7.453045225]
      },
      {
        "species": [{ "element": "V", "occu": 1 }],
        "abc": [0.37757, 0.3942, 0.869606],
        "properties": { "magmom": 0.0 },
        "label": "V",
        "xyz": [3.14699875375, 3.285607725, 7.24805730925]
      },
      {
        "species": [{ "element": "V", "occu": 1 }],
        "abc": [0.12243000000000001, 0.6058, 0.369606],
        "properties": { "magmom": 0.0 },
        "label": "V",
        "xyz": [1.0204387462500002, 5.049267275, 3.08061980925]
      },
      {
        "species": [{ "element": "V", "occu": 1 }],
        "abc": [0.119605999999999, 0.1442, 0.37243000000000004],
        "properties": { "magmom": 0.0 },
        "label": "V",
        "xyz": [0.9969010592499917, 1.201888975, 3.1041574962500005]
      },
      {
        "species": [{ "element": "V", "occu": 1 }],
        "abc": [0.37243000000000004, 0.119605999999999, 0.1442],
        "properties": { "magmom": 0.0 },
        "label": "V",
        "xyz": [3.1041574962500005, 0.9969010592499917, 1.201888975]
      },
      {
        "species": [{ "element": "V", "occu": 1 }],
        "abc": [0.12757000000000002, 0.880394, 0.6442],
        "properties": { "magmom": 0.0 },
        "label": "V",
        "xyz": [1.06328000375, 7.33797394075, 5.369326475]
      },
      {
        "species": [{ "element": "V", "occu": 1 }],
        "abc": [0.619606, 0.3558, 0.6275700000000001],
        "properties": { "magmom": 0.0 },
        "label": "V",
        "xyz": [5.16433855925, 2.965548525, 5.230717503750001]
      },
      {
        "species": [{ "element": "V", "occu": 1 }],
        "abc": [0.6275700000000001, 0.619606, 0.3558],
        "properties": { "magmom": 0.0 },
        "label": "V",
        "xyz": [5.230717503750001, 5.16433855925, 2.965548525]
      },
      {
        "species": [{ "element": "V", "occu": 1 }],
        "abc": [0.380394, 0.8558, 0.87243],
        "properties": { "magmom": 0.0 },
        "label": "V",
        "xyz": [3.1705364407500003, 7.132986025, 7.27159499625]
      },
      {
        "species": [{ "element": "V", "occu": 1 }],
        "abc": [0.880394, 0.6442, 0.12757000000000002],
        "properties": { "magmom": 0.0 },
        "label": "V",
        "xyz": [7.33797394075, 5.369326475, 1.06328000375]
      },
      {
        "species": [{ "element": "V", "occu": 1 }],
        "abc": [0.87243, 0.380394, 0.8558],
        "properties": { "magmom": 0.0 },
        "label": "V",
        "xyz": [7.27159499625, 3.1705364407500003, 7.132986025]
      },
      {
        "species": [{ "element": "V", "occu": 1 }],
        "abc": [0.6442, 0.12757000000000002, 0.880394],
        "properties": { "magmom": 0.0 },
        "label": "V",
        "xyz": [5.369326475, 1.06328000375, 7.33797394075]
      },
      {
        "species": [{ "element": "V", "occu": 1 }],
        "abc": [0.8558, 0.87243, 0.380394],
        "properties": { "magmom": 0.0 },
        "label": "V",
        "xyz": [7.132986025, 7.27159499625, 3.1705364407500003]
      },
      {
        "species": [{ "element": "V", "occu": 1 }],
        "abc": [0.3558, 0.6275700000000001, 0.619606],
        "properties": { "magmom": 0.0 },
        "label": "V",
        "xyz": [2.965548525, 5.230717503750001, 5.16433855925]
      },
      {
        "species": [{ "element": "V", "occu": 1 }],
        "abc": [0.62243, 0.8942, 0.630394],
        "properties": { "magmom": 0.0 },
        "label": "V",
        "xyz": [5.18787624625, 7.453045225, 5.25425519075]
      },
      {
        "species": [{ "element": "V", "occu": 1 }],
        "abc": [0.8775700000000001, 0.1058, 0.130393999999999],
        "properties": { "magmom": 0.0 },
        "label": "V",
        "xyz": [7.314436253750001, 0.881829775, 1.0868176907499918]
      },
      {
        "species": [{ "element": "V", "occu": 1 }],
        "abc": [0.869606, 0.37757, 0.3942],
        "properties": { "magmom": 0.0 },
        "label": "V",
        "xyz": [7.24805730925, 3.14699875375, 3.285607725]
      },
      {
        "species": [{ "element": "V", "occu": 1 }],
        "abc": [0.130393999999999, 0.8775700000000001, 0.1058],
        "properties": { "magmom": 0.0 },
        "label": "V",
        "xyz": [1.0868176907499918, 7.314436253750001, 0.881829775]
      },
      {
        "species": [{ "element": "V", "occu": 1 }],
        "abc": [0.6058, 0.369606, 0.12243000000000001],
        "properties": { "magmom": 0.0 },
        "label": "V",
        "xyz": [5.049267275, 3.08061980925, 1.0204387462500002]
      },
      {
        "species": [{ "element": "V", "occu": 1 }],
        "abc": [0.1058, 0.130393999999999, 0.8775700000000001],
        "properties": { "magmom": 0.0 },
        "label": "V",
        "xyz": [0.881829775, 1.0868176907499918, 7.314436253750001]
      },
      {
        "species": [{ "element": "C", "occu": 1 }],
        "abc": [0.125, 0.125, 0.125],
        "properties": { "magmom": -0.0 },
        "label": "C",
        "xyz": [1.041859375, 1.041859375, 1.041859375]
      },
      {
        "species": [{ "element": "C", "occu": 1 }],
        "abc": [0.875, 0.625, 0.375],
        "properties": { "magmom": -0.0 },
        "label": "C",
        "xyz": [7.293015625000001, 5.209296875, 3.125578125]
      },
      {
        "species": [{ "element": "C", "occu": 1 }],
        "abc": [0.375, 0.875, 0.625],
        "properties": { "magmom": -0.0 },
        "label": "C",
        "xyz": [3.125578125, 7.293015625000001, 5.209296875]
      },
      {
        "species": [{ "element": "C", "occu": 1 }],
        "abc": [0.625, 0.375, 0.875],
        "properties": { "magmom": -0.0 },
        "label": "C",
        "xyz": [5.209296875, 3.125578125, 7.293015625000001]
      },
      {
        "species": [{ "element": "C", "occu": 1 }],
        "abc": [0.125, 0.628803999999999, 0.621196],
        "properties": { "magmom": -0.0 },
        "label": "C",
        "xyz": [1.041859375, 5.241002739499992, 5.1775910105]
      },
      {
        "species": [{ "element": "C", "occu": 1 }],
        "abc": [0.875, 0.128804, 0.878803999999999],
        "properties": { "magmom": -0.0 },
        "label": "C",
        "xyz": [7.293015625000001, 1.0735652395000002, 7.324721489499992]
      },
      {
        "species": [{ "element": "C", "occu": 1 }],
        "abc": [0.375, 0.371195999999999, 0.121196],
        "properties": { "magmom": -0.0 },
        "label": "C",
        "xyz": [3.125578125, 3.093872260499992, 1.0101535105]
      },
      {
        "species": [{ "element": "C", "occu": 1 }],
        "abc": [0.871196, 0.378804, 0.625],
        "properties": { "magmom": -0.0 },
        "label": "C",
        "xyz": [7.2613097605, 3.1572839894999998, 5.209296875]
      },
      {
        "species": [{ "element": "C", "occu": 1 }],
        "abc": [0.128804, 0.878803999999999, 0.875],
        "properties": { "magmom": -0.0 },
        "label": "C",
        "xyz": [1.0735652395000002, 7.324721489499992, 7.293015625000001]
      },
      {
        "species": [{ "element": "C", "occu": 1 }],
        "abc": [0.121196, 0.375, 0.371195999999999],
        "properties": { "magmom": -0.0 },
        "label": "C",
        "xyz": [1.0101535105, 3.125578125, 3.093872260499992]
      },
      {
        "species": [{ "element": "C", "occu": 1 }],
        "abc": [0.378804, 0.625, 0.871196],
        "properties": { "magmom": -0.0 },
        "label": "C",
        "xyz": [3.1572839894999998, 5.209296875, 7.2613097605]
      },
      {
        "species": [{ "element": "C", "occu": 1 }],
        "abc": [0.621196, 0.125, 0.628803999999999],
        "properties": { "magmom": -0.0 },
        "label": "C",
        "xyz": [5.1775910105, 1.041859375, 5.241002739499992]
      },
      {
        "species": [{ "element": "C", "occu": 1 }],
        "abc": [0.628803999999999, 0.621196, 0.125],
        "properties": { "magmom": -0.0 },
        "label": "C",
        "xyz": [5.241002739499992, 5.1775910105, 1.041859375]
      },
      {
        "species": [{ "element": "C", "occu": 1 }],
        "abc": [0.371195999999999, 0.121196, 0.375],
        "properties": { "magmom": -0.0 },
        "label": "C",
        "xyz": [3.093872260499992, 1.0101535105, 3.125578125]
      },
      {
        "species": [{ "element": "C", "occu": 1 }],
        "abc": [0.878803999999999, 0.875, 0.128804],
        "properties": { "magmom": -0.0 },
        "label": "C",
        "xyz": [7.324721489499992, 7.293015625000001, 1.0735652395000002]
      },
      {
        "species": [{ "element": "C", "occu": 1 }],
        "abc": [0.625, 0.871196, 0.378804],
        "properties": { "magmom": -0.0 },
        "label": "C",
        "xyz": [5.209296875, 7.2613097605, 3.1572839894999998]
      },
      {
        "species": [{ "element": "C", "occu": 1 }],
        "abc": [0.125, 0.373803, 0.876197],
        "properties": { "magmom": -0.0 },
        "label": "C",
        "xyz": [1.041859375, 3.115601279625, 7.302992470375]
      },
      {
        "species": [{ "element": "C", "occu": 1 }],
        "abc": [0.875, 0.873803, 0.623803],
        "properties": { "magmom": -0.0 },
        "label": "C",
        "xyz": [7.293015625000001, 7.2830387796250005, 5.199320029625]
      },
      {
        "species": [{ "element": "C", "occu": 1 }],
        "abc": [0.375, 0.626197, 0.376197],
        "properties": { "magmom": -0.0 },
        "label": "C",
        "xyz": [3.125578125, 5.219273720375, 3.1355549703750003]
      },
      {
        "species": [{ "element": "C", "occu": 1 }],
        "abc": [0.126197, 0.123803, 0.625],
        "properties": { "magmom": -0.0 },
        "label": "C",
        "xyz": [1.051836220375, 1.031882529625, 5.209296875]
      },
      {
        "species": [{ "element": "C", "occu": 1 }],
        "abc": [0.873803, 0.623803, 0.875],
        "properties": { "magmom": -0.0 },
        "label": "C",
        "xyz": [7.2830387796250005, 5.199320029625, 7.293015625000001]
      },
      {
        "species": [{ "element": "C", "occu": 1 }],
        "abc": [0.376197, 0.375, 0.626197],
        "properties": { "magmom": -0.0 },
        "label": "C",
        "xyz": [3.1355549703750003, 3.125578125, 5.219273720375]
      },
      {
        "species": [{ "element": "C", "occu": 1 }],
        "abc": [0.123803, 0.625, 0.126197],
        "properties": { "magmom": -0.0 },
        "label": "C",
        "xyz": [1.031882529625, 5.209296875, 1.051836220375]
      },
      {
        "species": [{ "element": "C", "occu": 1 }],
        "abc": [0.876197, 0.125, 0.373803],
        "properties": { "magmom": -0.0 },
        "label": "C",
        "xyz": [7.302992470375, 1.041859375, 3.115601279625]
      },
      {
        "species": [{ "element": "C", "occu": 1 }],
        "abc": [0.373803, 0.876197, 0.125],
        "properties": { "magmom": -0.0 },
        "label": "C",
        "xyz": [3.115601279625, 7.302992470375, 1.041859375]
      },
      {
        "species": [{ "element": "C", "occu": 1 }],
        "abc": [0.626197, 0.376197, 0.375],
        "properties": { "magmom": -0.0 },
        "label": "C",
        "xyz": [5.219273720375, 3.1355549703750003, 3.125578125]
      },
      {
        "species": [{ "element": "C", "occu": 1 }],
        "abc": [0.623803, 0.875, 0.873803],
        "properties": { "magmom": -0.0 },
        "label": "C",
        "xyz": [5.199320029625, 7.293015625000001, 7.2830387796250005]
      },
      {
        "species": [{ "element": "C", "occu": 1 }],
        "abc": [0.625, 0.126197, 0.123803],
        "properties": { "magmom": -0.0 },
        "label": "C",
        "xyz": [5.209296875, 1.051836220375, 1.031882529625]
      }
    ]
  },
  "task_ids": null,
  "uncorrected_energy_per_atom": null,
  "energy_per_atom": -9.675250645666667,
  "formation_energy_per_atom": -0.5237901785000021,
  "energy_above_hull": 0.007177742759258,
  "is_stable": false,
  "equilibrium_reaction_energy_per_atom": null,
  "decomposes_to": null,
  "xas": null,
  "grain_boundaries": null,
  "band_gap": 0.0,
  "cbm": null,
  "vbm": null,
  "efermi": 7.61149406,
  "is_gap_direct": null,
  "is_metal": null,
  "es_source_calc_id": null,
  "bandstructure": null,
  "dos": null,
  "dos_energy_up": null,
  "dos_energy_down": null,
  "is_magnetic": null,
  "ordering": null,
  "total_magnetization": 0.0020808,
  "total_magnetization_normalized_vol": null,
  "total_magnetization_normalized_formula_units": null,
  "num_magnetic_sites": null,
  "num_unique_magnetic_sites": null,
  "types_of_magnetic_species": null,
  "bulk_modulus": null,
  "shear_modulus": null,
  "universal_anisotropy": null,
  "homogeneous_poisson": null,
  "e_total": null,
  "e_ionic": null,
  "e_electronic": null,
  "n": null,
  "e_ij_max": null,
  "weighted_surface_energy_EV_PER_ANG2": null,
  "weighted_surface_energy": null,
  "weighted_work_function": null,
  "surface_anisotropy": null,
  "shape_factor": null,
  "has_reconstructed": null,
  "possible_species": null,
  "has_props": null,
  "theoretical": null,
  "database_IDs": null,
  "fields_not_requested": [
    "builder_meta",
    "nsites",
    "elements",
    "nelements",
    "composition",
    "composition_reduced",
    "chemsys",
    "symmetry",
    "property_name",
    "deprecated",
    "deprecation_reasons",
    "last_updated",
    "origins",
    "warnings",
    "task_ids",
    "uncorrected_energy_per_atom",
    "equilibrium_reaction_energy_per_atom",
    "decomposes_to",
    "xas",
    "grain_boundaries",
    "cbm",
    "vbm",
    "is_gap_direct",
    "is_metal",
    "es_source_calc_id",
    "bandstructure",
    "dos",
    "dos_energy_up",
    "dos_energy_down",
    "is_magnetic",
    "ordering",
    "total_magnetization_normalized_vol",
    "total_magnetization_normalized_formula_units",
    "num_magnetic_sites",
    "num_unique_magnetic_sites",
    "types_of_magnetic_species",
    "bulk_modulus",
    "shear_modulus",
    "universal_anisotropy",
    "homogeneous_poisson",
    "e_total",
    "e_ionic",
    "e_electronic",
    "n",
    "e_ij_max",
    "weighted_surface_energy_EV_PER_ANG2",
    "weighted_surface_energy",
    "weighted_work_function",
    "surface_anisotropy",
    "shape_factor",
    "has_reconstructed",
    "possible_species",
    "has_props",
    "theoretical",
    "database_IDs"
  ]
}
