{"builder_meta": null, "nsites": null, "elements": null, "nelements": null, "composition": null, "composition_reduced": null, "formula_pretty": "V8N", "formula_anonymous": "AB8", "chemsys": null, "volume": 223.6583648211398, "density": 6.259381177123014, "density_atomic": 12.425464712285544, "symmetry": null, "property_name": null, "material_id": "mp-1188283", "deprecated": null, "deprecation_reasons": null, "last_updated": null, "origins": null, "warnings": null, "structure": {"@module": "pymatgen.core.structure", "@class": "Structure", "charge": 0, "lattice": {"matrix": [[0.0, 0.0, 2.9654195], [8.68458881, -0.00012909, 0.0], [-0.00012911000000000002, 8.68459851, 0.0]], "pbc": [true, true, true], "a": 2.9654195, "b": 8.684588810959413, "c": 8.68459851095971, "alpha": 90.00170344990771, "beta": 90.0, "gamma": 90.0, "volume": 223.65836482113983}, "properties": {}, "sites": [{"species": [{"element": "V", "occu": 1}], "abc": [0.5, 0.34269451, 0.65731509], "properties": {"magmom": -0.0}, "label": "V", "xyz": [2.976076040843163, 5.70847341278022, 1.48270975]}, {"species": [{"element": "V", "occu": 1}], "abc": [0.5, 0.65729731, 0.34262394], "properties": {"magmom": -0.0}, "label": "V", "xyz": [5.708312627092208, 2.975466508304582, 1.48270975]}, {"species": [{"element": "V", "occu": 1}], "abc": [-0.0, 0.15731493, 0.15731495], "properties": {"magmom": -0.0}, "label": "V", "xyz": [1.3661951697907386, 1.3661968725864109, 0.0]}, {"species": [{"element": "V", "occu": 1}], "abc": [-0.0, 0.84264903, 0.84273818], "properties": {"magmom": 0.0}, "label": "V", "xyz": [7.3179515307689345, 7.31873396478483, 0.0]}, {"species": [{"element": "V", "occu": 1}], "abc": [0.5, 0.88728357, 0.112643], "properties": {"magmom": -0.0}, "label": "V", "xyz": [7.705678419981122, 0.9781446905258787, 1.48270975]}, {"species": [{"element": "V", "occu": 1}], "abc": [0.5, 0.11265416, 0.8873424400000001], "properties": {"magmom": 0.0}, "label": "V", "xyz": [0.9782404925535211, 7.706198289758251, 1.48270975]}, {"species": [{"element": "V", "occu": 1}], "abc": [-0.0, 0.61265923, 0.6127085], "properties": {"magmom": 0.0}, "label": "V", "xyz": [5.320614386406781, 5.321048237984335, 0.0]}, {"species": [{"element": "V", "occu": 1}], "abc": [-0.0, 0.38732779, 0.38730783], "properties": {"magmom": -0.0}, "label": "V", "xyz": [3.363732585522098, 3.3635630031849226, 0.0]}, {"species": [{"element": "V", "occu": 1}], "abc": [0.5, 0.38506685, 0.12674365], "properties": {"magmom": 0.0}, "label": "V", "xyz": [3.344130892739297, 1.1006680056622953, 1.48270975]}, {"species": [{"element": "V", "occu": 1}], "abc": [0.5, 0.61500684, 0.8733089900000001], "properties": {"magmom": -0.0}, "label": "V", "xyz": [5.340968767813761, 7.584258562090631, 1.48270975]}, {"species": [{"element": "V", "occu": 1}], "abc": [-0.0, 0.11500018000000001, 0.62673576], "properties": {"magmom": 0.0}, "label": "V", "xyz": [0.9986483585220122, 5.442933602086481, 0.0]}, {"species": [{"element": "V", "occu": 1}], "abc": [-0.0, 0.88500804, 0.37321874], "properties": {"magmom": 0.0}, "label": "V", "xyz": [7.685882734672511, 3.241140667620194, 0.0]}, {"species": [{"element": "V", "occu": 1}], "abc": [0.5, 0.1267596, 0.38500429], "properties": {"magmom": 0.0}, "label": "V", "xyz": [1.100805295816194, 3.3435913198808445, 1.48270975]}, {"species": [{"element": "V", "occu": 1}], "abc": [0.5, 0.87325058, 0.61501365], "properties": {"magmom": -0.0}, "label": "V", "xyz": [7.583742810981658, 5.341033900502289, 1.48270975]}, {"species": [{"element": "V", "occu": 1}], "abc": [-0.0, 0.62675144, 0.11495381], "properties": {"magmom": -0.0}, "label": "V", "xyz": [5.4430637007889775, 0.9982467797014336, 0.0]}, {"species": [{"element": "V", "occu": 1}], "abc": [-0.0, 0.37330992, 0.88503051], "properties": {"magmom": -0.0}, "label": "V", "xyz": [3.241928887604849, 7.6860864578729675, 0.0]}, {"species": [{"element": "N", "occu": 1}], "abc": [0.5, 0.49998896000000004, 0.49999369], "properties": {"magmom": 0.0}, "label": "N", "xyz": [4.342133972954222, 4.3421799116085555, 1.48270975]}, {"species": [{"element": "N", "occu": 1}], "abc": [-0.0, -2.294e-05, 3.99e-06], "properties": {"magmom": 0.0}, "label": "N", "xyz": [-0.00019922498245029998, 3.46545093795e-05, 0.0]}]}, "task_ids": null, "uncorrected_energy_per_atom": null, "energy_per_atom": -13.915569518888889, "formation_energy_per_atom": -0.37719657319444305, "energy_above_hull": 0.0, "is_stable": true, "equilibrium_reaction_energy_per_atom": null, "decomposes_to": null, "xas": null, "grain_boundaries": null, "band_gap": 0.0, "cbm": null, "vbm": null, "efermi": 6.19221406, "is_gap_direct": null, "is_metal": null, "es_source_calc_id": null, "bandstructure": null, "dos": null, "dos_energy_up": null, "dos_energy_down": null, "is_magnetic": null, "ordering": null, "total_magnetization": 3e-07, "total_magnetization_normalized_vol": null, "total_magnetization_normalized_formula_units": null, "num_magnetic_sites": null, "num_unique_magnetic_sites": null, "types_of_magnetic_species": null, "bulk_modulus": null, "shear_modulus": null, "universal_anisotropy": null, "homogeneous_poisson": null, "e_total": null, "e_ionic": null, "e_electronic": null, "n": null, "e_ij_max": null, "weighted_surface_energy_EV_PER_ANG2": null, "weighted_surface_energy": null, "weighted_work_function": null, "surface_anisotropy": null, "shape_factor": null, "has_reconstructed": null, "possible_species": null, "has_props": null, "theoretical": null, "database_IDs": null, "fields_not_requested": ["builder_meta", "nsites", "elements", "nelements", "composition", "composition_reduced", "chemsys", "symmetry", "property_name", "deprecated", "deprecation_reasons", "last_updated", "origins", "warnings", "task_ids", "uncorrected_energy_per_atom", "equilibrium_reaction_energy_per_atom", "decomposes_to", "xas", "grain_boundaries", "cbm", "vbm", "is_gap_direct", "is_metal", "es_source_calc_id", "bandstructure", "dos", "dos_energy_up", "dos_energy_down", "is_magnetic", "ordering", "total_magnetization_normalized_vol", "total_magnetization_normalized_formula_units", "num_magnetic_sites", "num_unique_magnetic_sites", "types_of_magnetic_species", "bulk_modulus", "shear_modulus", "universal_anisotropy", "homogeneous_poisson", "e_total", "e_ionic", "e_electronic", "n", "e_ij_max", "weighted_surface_energy_EV_PER_ANG2", "weighted_surface_energy", "weighted_work_function", "surface_anisotropy", "shape_factor", "has_reconstructed", "possible_species", "has_props", "theoretical", "database_IDs"]}