{"builder_meta": null, "nsites": null, "elements": null, "nelements": null, "composition": null, "composition_reduced": null, "formula_pretty": "V8O", "formula_anonymous": "AB8", "chemsys": null, "volume": 238.84553592574076, "density": 5.889081685415719, "density_atomic": 13.26919644031893, "symmetry": null, "property_name": null, "material_id": "mp-714972", "deprecated": null, "deprecation_reasons": null, "last_updated": null, "origins": null, "warnings": null, "structure": {"@module": "pymatgen.core.structure", "@class": "Structure", "charge": 0, "lattice": {"matrix": [[8.883982, 0.0, 0.0], [0.0, 8.883982, 0.0], [0.0, 0.0, 3.026229]], "pbc": [true, true, true], "a": 8.883982, "b": 8.883982, "c": 3.026229, "alpha": 90.0, "beta": 90.0, "gamma": 90.0, "volume": 238.84553592574076}, "properties": {}, "sites": [{"species": [{"element": "V", "occu": 1}], "abc": [0.129098, 0.383304, 0.5], "properties": {"magmom": 0.15}, "label": "V", "xyz": [1.1469043082359998, 3.4052658365279997, 1.5131145]}, {"species": [{"element": "V", "occu": 1}], "abc": [0.870902, 0.616696, 0.5], "properties": {"magmom": 0.15}, "label": "V", "xyz": [7.737077691763999, 5.478716163472, 1.5131145]}, {"species": [{"element": "V", "occu": 1}], "abc": [0.629097999999999, 0.116696, 0.0], "properties": {"magmom": 0.15}, "label": "V", "xyz": [5.588895308235991, 1.0367251634719998, 0.0]}, {"species": [{"element": "V", "occu": 1}], "abc": [0.370902, 0.883304, 0.0], "properties": {"magmom": 0.15}, "label": "V", "xyz": [3.295086691764, 7.8472568365279995, 0.0]}, {"species": [{"element": "V", "occu": 1}], "abc": [0.383304, 0.129098, 0.5], "properties": {"magmom": 0.15}, "label": "V", "xyz": [3.4052658365279997, 1.1469043082359998, 1.5131145]}, {"species": [{"element": "V", "occu": 1}], "abc": [0.616696, 0.870902, 0.5], "properties": {"magmom": 0.15}, "label": "V", "xyz": [5.478716163472, 7.737077691763999, 1.5131145]}, {"species": [{"element": "V", "occu": 1}], "abc": [0.116696, 0.629097999999999, 0.0], "properties": {"magmom": 0.15}, "label": "V", "xyz": [1.0367251634719998, 5.588895308235991, 0.0]}, {"species": [{"element": "V", "occu": 1}], "abc": [0.883304, 0.370902, 0.0], "properties": {"magmom": 0.15}, "label": "V", "xyz": [7.8472568365279995, 3.295086691764, 0.0]}, {"species": [{"element": "V", "occu": 1}], "abc": [0.655056, 0.344944, 0.5], "properties": {"magmom": 0.231}, "label": "V", "xyz": [5.819505712991999, 3.0644762870079996, 1.5131145]}, {"species": [{"element": "V", "occu": 1}], "abc": [0.344944, 0.655056, 0.5], "properties": {"magmom": 0.231}, "label": "V", "xyz": [3.0644762870079996, 5.819505712991999, 1.5131145]}, {"species": [{"element": "V", "occu": 1}], "abc": [0.155056, 0.155056, 0.0], "properties": {"magmom": 0.231}, "label": "V", "xyz": [1.377514712992, 1.377514712992, 0.0]}, {"species": [{"element": "V", "occu": 1}], "abc": [0.844943999999999, 0.844943999999999, 0.0], "properties": {"magmom": 0.231}, "label": "V", "xyz": [7.506467287007991, 7.506467287007991, 0.0]}, {"species": [{"element": "V", "occu": 1}], "abc": [0.880706999999999, 0.119293, 0.5], "properties": {"magmom": 0.265}, "label": "V", "xyz": [7.824185135273991, 1.0597968647259999, 1.5131145]}, {"species": [{"element": "V", "occu": 1}], "abc": [0.119293, 0.880706999999999, 0.5], "properties": {"magmom": 0.265}, "label": "V", "xyz": [1.0597968647259999, 7.824185135273991, 1.5131145]}, {"species": [{"element": "V", "occu": 1}], "abc": [0.380706999999999, 0.380706999999999, 0.0], "properties": {"magmom": 0.265}, "label": "V", "xyz": [3.3821941352739913, 3.3821941352739913, 0.0]}, {"species": [{"element": "V", "occu": 1}], "abc": [0.619293, 0.619293, 0.0], "properties": {"magmom": 0.265}, "label": "V", "xyz": [5.5017878647259995, 5.5017878647259995, 0.0]}, {"species": [{"element": "O", "occu": 1}], "abc": [0.5, 0.5, 0.5], "properties": {"magmom": -0.009000000000000001}, "label": "O", "xyz": [4.441991, 4.441991, 1.5131145]}, {"species": [{"element": "O", "occu": 1}], "abc": [0.0, 0.0, 0.0], "properties": {"magmom": -0.009000000000000001}, "label": "O", "xyz": [0.0, 0.0, 0.0]}]}, "task_ids": null, "uncorrected_energy_per_atom": null, "energy_per_atom": -7.71562382888889, "formation_energy_per_atom": 0.908732789444442, "energy_above_hull": 1.378093473379627, "is_stable": false, "equilibrium_reaction_energy_per_atom": null, "decomposes_to": null, "xas": null, "grain_boundaries": null, "band_gap": 0.0, "cbm": null, "vbm": null, "efermi": 6.09109511, "is_gap_direct": null, "is_metal": null, "es_source_calc_id": null, "bandstructure": null, "dos": null, "dos_energy_up": null, "dos_energy_down": null, "is_magnetic": null, "ordering": null, "total_magnetization": 3.392877, "total_magnetization_normalized_vol": null, "total_magnetization_normalized_formula_units": null, "num_magnetic_sites": null, "num_unique_magnetic_sites": null, "types_of_magnetic_species": null, "bulk_modulus": null, "shear_modulus": null, "universal_anisotropy": null, "homogeneous_poisson": null, "e_total": null, "e_ionic": null, "e_electronic": null, "n": null, "e_ij_max": null, "weighted_surface_energy_EV_PER_ANG2": null, "weighted_surface_energy": null, "weighted_work_function": null, "surface_anisotropy": null, "shape_factor": null, "has_reconstructed": null, "possible_species": null, "has_props": null, "theoretical": null, "database_IDs": null, "fields_not_requested": ["builder_meta", "nsites", "elements", "nelements", "composition", "composition_reduced", "chemsys", "symmetry", "property_name", "deprecated", "deprecation_reasons", "last_updated", "origins", "warnings", "task_ids", "uncorrected_energy_per_atom", "equilibrium_reaction_energy_per_atom", "decomposes_to", "xas", "grain_boundaries", "cbm", "vbm", "is_gap_direct", "is_metal", "es_source_calc_id", "bandstructure", "dos", "dos_energy_up", "dos_energy_down", "is_magnetic", "ordering", "total_magnetization_normalized_vol", "total_magnetization_normalized_formula_units", "num_magnetic_sites", "num_unique_magnetic_sites", "types_of_magnetic_species", "bulk_modulus", "shear_modulus", "universal_anisotropy", "homogeneous_poisson", "e_total", "e_ionic", "e_electronic", "n", "e_ij_max", "weighted_surface_energy_EV_PER_ANG2", "weighted_surface_energy", "weighted_work_function", "surface_anisotropy", "shape_factor", "has_reconstructed", "possible_species", "has_props", "theoretical", "database_IDs"]}