{"builder_meta": null, "nsites": null, "elements": null, "nelements": null, "composition": null, "composition_reduced": null, "formula_pretty": "VAs", "formula_anonymous": "AB", "chemsys": null, "volume": 121.55928779828052, "density": 6.877322115944111, "density_atomic": 15.194910974785065, "symmetry": null, "property_name": null, "material_id": "mp-19940", "deprecated": null, "deprecation_reasons": null, "last_updated": null, "origins": null, "warnings": null, "structure": {"@module": "pymatgen.core.structure", "@class": "Structure", "charge": 0, "lattice": {"matrix": [[3.36170611, -0.0, 0.0], [0.0, 5.84327368, 0.0], [0.0, 0.0, 6.18831163]], "pbc": [true, true, true], "a": 3.36170611, "b": 5.84327368, "c": 6.18831163, "alpha": 90.0, "beta": 90.0, "gamma": 90.0, "volume": 121.55928779828052}, "properties": {}, "sites": [{"species": [{"element": "V", "occu": 1}], "abc": [0.258650999999999, 0.00535412, 0.18110409], "properties": {"magmom": 0.0}, "label": "V", "xyz": [0.8695086470576068, 0.03128558847556161, 1.1207285463875667]}, {"species": [{"element": "V", "occu": 1}], "abc": [0.758651, 0.99464588, 0.8188959100000001], "properties": {"magmom": 0.0}, "label": "V", "xyz": [2.55036170205761, 5.811988091524438, 5.067583083612434]}, {"species": [{"element": "V", "occu": 1}], "abc": [0.758651, 0.49464588000000004, 0.68110409], "properties": {"magmom": 0.0}, "label": "V", "xyz": [2.55036170205761, 2.890351251524439, 4.2148843613875675]}, {"species": [{"element": "V", "occu": 1}], "abc": [0.258650999999999, 0.50535412, 0.31889591], "properties": {"magmom": 0.0}, "label": "V", "xyz": [0.8695086470576068, 2.9529224284755617, 1.9734272686124334]}, {"species": [{"element": "As", "occu": 1}], "abc": [0.258648999999999, 0.1940452, 0.57703788], "properties": {"magmom": -0.0}, "label": "As", "xyz": [0.8695019236453867, 1.133859209890336, 3.5708902237545446]}, {"species": [{"element": "As", "occu": 1}], "abc": [0.758649, 0.8059548, 0.42296212], "properties": {"magmom": -0.0}, "label": "As", "xyz": [2.55035497864539, 4.709414470109664, 2.6174214062454557]}, {"species": [{"element": "As", "occu": 1}], "abc": [0.758649, 0.305954799999999, 0.07703788], "properties": {"magmom": -0.0}, "label": "As", "xyz": [2.55035497864539, 1.7877776301096584, 0.4767344087545444]}, {"species": [{"element": "As", "occu": 1}], "abc": [0.258648999999999, 0.694045199999999, 0.92296212], "properties": {"magmom": -0.0}, "label": "As", "xyz": [0.8695019236453867, 4.055496049890331, 5.711577221245456]}]}, "task_ids": null, "uncorrected_energy_per_atom": null, "energy_per_atom": -14.964539675, "formation_energy_per_atom": -0.5659863162499991, "energy_above_hull": 0.0, "is_stable": true, "equilibrium_reaction_energy_per_atom": null, "decomposes_to": null, "xas": null, "grain_boundaries": null, "band_gap": 0.0, "cbm": null, "vbm": null, "efermi": 6.78668064, "is_gap_direct": null, "is_metal": null, "es_source_calc_id": null, "bandstructure": null, "dos": null, "dos_energy_up": null, "dos_energy_down": null, "is_magnetic": null, "ordering": null, "total_magnetization": 5e-07, "total_magnetization_normalized_vol": null, "total_magnetization_normalized_formula_units": null, "num_magnetic_sites": null, "num_unique_magnetic_sites": null, "types_of_magnetic_species": null, "bulk_modulus": null, "shear_modulus": null, "universal_anisotropy": null, "homogeneous_poisson": null, "e_total": null, "e_ionic": null, "e_electronic": null, "n": null, "e_ij_max": null, "weighted_surface_energy_EV_PER_ANG2": null, "weighted_surface_energy": null, "weighted_work_function": null, "surface_anisotropy": null, "shape_factor": null, "has_reconstructed": null, "possible_species": null, "has_props": null, "theoretical": null, "database_IDs": null, "fields_not_requested": ["builder_meta", "nsites", "elements", "nelements", "composition", "composition_reduced", "chemsys", "symmetry", "property_name", "deprecated", "deprecation_reasons", "last_updated", "origins", "warnings", "task_ids", "uncorrected_energy_per_atom", "equilibrium_reaction_energy_per_atom", "decomposes_to", "xas", "grain_boundaries", "cbm", "vbm", "is_gap_direct", "is_metal", "es_source_calc_id", "bandstructure", "dos", "dos_energy_up", "dos_energy_down", "is_magnetic", "ordering", "total_magnetization_normalized_vol", "total_magnetization_normalized_formula_units", "num_magnetic_sites", "num_unique_magnetic_sites", "types_of_magnetic_species", "bulk_modulus", "shear_modulus", "universal_anisotropy", "homogeneous_poisson", "e_total", "e_ionic", "e_electronic", "n", "e_ij_max", "weighted_surface_energy_EV_PER_ANG2", "weighted_surface_energy", "weighted_work_function", "surface_anisotropy", "shape_factor", "has_reconstructed", "possible_species", "has_props", "theoretical", "database_IDs"]}