{"builder_meta": null, "nsites": null, "elements": null, "nelements": null, "composition": null, "composition_reduced": null, "formula_pretty": "VAs2", "formula_anonymous": "AB2", "chemsys": null, "volume": 96.19612354808386, "density": 6.931897586474049, "density_atomic": 16.032687258013976, "symmetry": null, "property_name": null, "material_id": "mp-1072660", "deprecated": null, "deprecation_reasons": null, "last_updated": null, "origins": null, "warnings": null, "structure": {"@module": "pymatgen.core.structure", "@class": "Structure", "charge": 0, "lattice": {"matrix": [[0.0, -3.28647332, 0.0], [3.90952415, -1.64323768, -2.26858847], [3.931512859999999, -1.64323768, 5.20557843]], "pbc": [true, true, true], "a": 3.28647332, "b": 4.809480512344545, "c": 6.727188880371832, "alpha": 78.84161563891928, "beta": 75.8614148526954, "gamma": 70.02156997166921, "volume": 96.19612354808385}, "properties": {}, "sites": [{"species": [{"element": "V", "occu": 1}], "abc": [0.15462901, 0.88534471, 0.80539727], "properties": {"magmom": -0.0}, "label": "V", "xyz": [6.627706249233638, -3.28647504455682, 2.184075855211393]}, {"species": [{"element": "V", "occu": 1}], "abc": [0.84537099, 0.11465529, 0.19460273], "properties": {"magmom": -0.0}, "label": "V", "xyz": [1.2133307607663613, -3.2864736354431807, 0.7529141047886074]}, {"species": [{"element": "As", "occu": 1}], "abc": [0.40409443, 0.29634092, 0.8954692200000001], "properties": {"magmom": 0.0}, "label": "As", "xyz": [4.679100737537387, -3.286472892409683, 3.989159662059733]}, {"species": [{"element": "As", "occu": 1}], "abc": [0.59590557, 0.70365908, 0.10453078], "properties": {"magmom": 0.0}, "label": "As", "xyz": [3.1619362724626128, -3.2864757875903168, -1.0521697020597323]}, {"species": [{"element": "As", "occu": 1}], "abc": [0.85241621, 0.7603365, 0.53483008], "properties": {"magmom": 0.0}, "label": "As", "xyz": [5.075245246311303, -4.929709657833251, 1.0592093109430192]}, {"species": [{"element": "As", "occu": 1}], "abc": [0.14758379, 0.2396635, 0.46516992], "properties": {"magmom": 0.0}, "label": "As", "xyz": [2.7657917636886955, -1.6432390221667483, 1.8777806490569808]}]}, "task_ids": null, "uncorrected_energy_per_atom": null, "energy_per_atom": -14.932099456666668, "formation_energy_per_atom": -0.43055355500000003, "energy_above_hull": 0.0, "is_stable": true, "equilibrium_reaction_energy_per_atom": null, "decomposes_to": null, "xas": null, "grain_boundaries": null, "band_gap": 0.003699999999999, "cbm": null, "vbm": null, "efermi": 6.61455886, "is_gap_direct": null, "is_metal": null, "es_source_calc_id": null, "bandstructure": null, "dos": null, "dos_energy_up": null, "dos_energy_down": null, "is_magnetic": null, "ordering": null, "total_magnetization": 0.0, "total_magnetization_normalized_vol": null, "total_magnetization_normalized_formula_units": null, "num_magnetic_sites": null, "num_unique_magnetic_sites": null, "types_of_magnetic_species": null, "bulk_modulus": null, "shear_modulus": null, "universal_anisotropy": null, "homogeneous_poisson": null, "e_total": null, "e_ionic": null, "e_electronic": null, "n": null, "e_ij_max": null, "weighted_surface_energy_EV_PER_ANG2": null, "weighted_surface_energy": null, "weighted_work_function": null, "surface_anisotropy": null, "shape_factor": null, "has_reconstructed": null, "possible_species": null, "has_props": null, "theoretical": null, "database_IDs": null, "fields_not_requested": ["builder_meta", "nsites", "elements", "nelements", "composition", "composition_reduced", "chemsys", "symmetry", "property_name", "deprecated", "deprecation_reasons", "last_updated", "origins", "warnings", "task_ids", "uncorrected_energy_per_atom", "equilibrium_reaction_energy_per_atom", "decomposes_to", "xas", "grain_boundaries", "cbm", "vbm", "is_gap_direct", "is_metal", "es_source_calc_id", "bandstructure", "dos", "dos_energy_up", "dos_energy_down", "is_magnetic", "ordering", "total_magnetization_normalized_vol", "total_magnetization_normalized_formula_units", "num_magnetic_sites", "num_unique_magnetic_sites", "types_of_magnetic_species", "bulk_modulus", "shear_modulus", "universal_anisotropy", "homogeneous_poisson", "e_total", "e_ionic", "e_electronic", "n", "e_ij_max", "weighted_surface_energy_EV_PER_ANG2", "weighted_surface_energy", "weighted_work_function", "surface_anisotropy", "shape_factor", "has_reconstructed", "possible_species", "has_props", "theoretical", "database_IDs"]}