{"builder_meta": null, "nsites": null, "elements": null, "nelements": null, "composition": null, "composition_reduced": null, "formula_pretty": "VAu3", "formula_anonymous": "AB3", "chemsys": null, "volume": 139.46273953749528, "density": 15.284403594992495, "density_atomic": 17.43284244218691, "symmetry": null, "property_name": null, "material_id": "mp-1187741", "deprecated": null, "deprecation_reasons": null, "last_updated": null, "origins": null, "warnings": null, "structure": {"@module": "pymatgen.core.structure", "@class": "Structure", "charge": 0, "lattice": {"matrix": [[2.9268, -5.069366, 0.0], [2.9268, 5.069366, 0.0], [0.0, 0.0, 4.699823]], "pbc": [true, true, true], "a": 5.853599737081106, "b": 5.853599737081106, "c": 4.699823, "alpha": 90.0, "beta": 90.0, "gamma": 119.99999702839709, "volume": 139.46273953749528}, "properties": {}, "sites": [{"species": [{"element": "V", "occu": 1}], "abc": [0.333333, 0.666667, 0.75], "properties": {"magmom": 2.2}, "label": "V", "xyz": [2.9268, 1.6897920462440001, 3.5248672500000002]}, {"species": [{"element": "V", "occu": 1}], "abc": [0.666667, 0.333333, 0.25], "properties": {"magmom": 2.202}, "label": "V", "xyz": [2.9268, -1.6897920462440001, 1.17495575]}, {"species": [{"element": "Au", "occu": 1}], "abc": [0.16936299999999901, 0.33872599999999903, 0.25], "properties": {"magmom": 0.05}, "label": "Au", "xyz": [1.4870748851999944, 0.858563033858, 1.17495575]}, {"species": [{"element": "Au", "occu": 1}], "abc": [0.661273999999999, 0.830637, 0.25], "properties": {"magmom": 0.05}, "label": "Au", "xyz": [4.366525114799997, 0.8585630338580046, 1.17495575]}, {"species": [{"element": "Au", "occu": 1}], "abc": [0.16936299999999901, 0.830637, 0.25], "properties": {"magmom": 0.049}, "label": "Au", "xyz": [2.9267999999999974, 3.3522399322840046, 1.17495575]}, {"species": [{"element": "Au", "occu": 1}], "abc": [0.830637, 0.661273999999999, 0.75], "properties": {"magmom": 0.05}, "label": "Au", "xyz": [4.366525114799997, -0.8585630338580046, 3.5248672500000002]}, {"species": [{"element": "Au", "occu": 1}], "abc": [0.33872599999999903, 0.16936299999999901, 0.75], "properties": {"magmom": 0.05}, "label": "Au", "xyz": [1.4870748851999944, -0.858563033858, 3.5248672500000002]}, {"species": [{"element": "Au", "occu": 1}], "abc": [0.830637, 0.16936299999999901, 0.75], "properties": {"magmom": 0.049}, "label": "Au", "xyz": [2.9267999999999974, -3.3522399322840046, 3.5248672500000002]}]}, "task_ids": null, "uncorrected_energy_per_atom": null, "energy_per_atom": -41.468581676250004, "formation_energy_per_atom": -0.0074676312500010006, "energy_above_hull": 0.071252378749996, "is_stable": false, "equilibrium_reaction_energy_per_atom": null, "decomposes_to": null, "xas": null, "grain_boundaries": null, "band_gap": 0.0, "cbm": null, "vbm": null, "efermi": 5.30158105, "is_gap_direct": null, "is_metal": null, "es_source_calc_id": null, "bandstructure": null, "dos": null, "dos_energy_up": null, "dos_energy_down": null, "is_magnetic": null, "ordering": null, "total_magnetization": 5.2807449, "total_magnetization_normalized_vol": null, "total_magnetization_normalized_formula_units": null, "num_magnetic_sites": null, "num_unique_magnetic_sites": null, "types_of_magnetic_species": null, "bulk_modulus": null, "shear_modulus": null, "universal_anisotropy": null, "homogeneous_poisson": null, "e_total": null, "e_ionic": null, "e_electronic": null, "n": null, "e_ij_max": null, "weighted_surface_energy_EV_PER_ANG2": null, "weighted_surface_energy": null, "weighted_work_function": null, "surface_anisotropy": null, "shape_factor": null, "has_reconstructed": null, "possible_species": null, "has_props": null, "theoretical": null, "database_IDs": null, "fields_not_requested": ["builder_meta", "nsites", "elements", "nelements", "composition", "composition_reduced", "chemsys", "symmetry", "property_name", "deprecated", "deprecation_reasons", "last_updated", "origins", "warnings", "task_ids", "uncorrected_energy_per_atom", "equilibrium_reaction_energy_per_atom", "decomposes_to", "xas", "grain_boundaries", "cbm", "vbm", "is_gap_direct", "is_metal", "es_source_calc_id", "bandstructure", "dos", "dos_energy_up", "dos_energy_down", "is_magnetic", "ordering", "total_magnetization_normalized_vol", "total_magnetization_normalized_formula_units", "num_magnetic_sites", "num_unique_magnetic_sites", "types_of_magnetic_species", "bulk_modulus", "shear_modulus", "universal_anisotropy", "homogeneous_poisson", "e_total", "e_ionic", "e_electronic", "n", "e_ij_max", "weighted_surface_energy_EV_PER_ANG2", "weighted_surface_energy", "weighted_work_function", "surface_anisotropy", "shape_factor", "has_reconstructed", "possible_species", "has_props", "theoretical", "database_IDs"]}