{
  "builder_meta": null,
  "nsites": null,
  "elements": null,
  "nelements": null,
  "composition": null,
  "composition_reduced": null,
  "formula_pretty": "VAu4",
  "formula_anonymous": "AB4",
  "chemsys": null,
  "volume": 84.90065223132751,
  "density": 16.405917325825975,
  "density_atomic": 16.980130446265502,
  "symmetry": null,
  "property_name": null,
  "material_id": "mp-1069697",
  "deprecated": null,
  "deprecation_reasons": null,
  "last_updated": null,
  "origins": null,
  "warnings": null,
  "structure": {
    "@module": "pymatgen.core.structure",
    "@class": "Structure",
    "charge": 0,
    "lattice": {
      "matrix": [
        [-3.24510003, 3.24500075, 2.01502802],
        [3.24510003, -3.24500075, 2.01502802],
        [3.24605058, 3.2459492, -2.01502802]
      ],
      "pbc": [true, true, true],
      "a": 5.012089583556112,
      "b": 5.012089583556112,
      "c": 5.013319109959398,
      "alpha": 99.29776892873177,
      "beta": 99.30077846105382,
      "gamma": 132.58926928427164,
      "volume": 84.90065223132751
    },
    "properties": {},
    "sites": [
      {
        "species": [{ "element": "V", "occu": 1 }],
        "abc": [-0.0, -0.0, -0.0],
        "properties": { "magmom": 2.187 },
        "label": "V",
        "xyz": [0.0, 0.0, 0.0]
      },
      {
        "species": [{ "element": "Au", "occu": 1 }],
        "abc": [0.39658408, 0.20474405, 0.60132713],
        "properties": { "magmom": -0.014 },
        "label": "Au",
        "xyz": [1.3293981919980347, 2.574398357791819, 2.0150280199970894e-6]
      },
      {
        "species": [{ "element": "Au", "occu": 1 }],
        "abc": [0.60341592, 0.79525595, 0.39867287],
        "properties": { "magmom": -0.014 },
        "label": "Au",
        "xyz": [1.9166523880019655, 0.6715508422081813, 2.0150260049719804]
      },
      {
        "species": [{ "element": "Au", "occu": 1 }],
        "abc": [0.79523579, 0.39664397, 0.19187976],
        "properties": { "magmom": -0.013000000000000001 },
        "label": "Au",
        "xyz": [-0.6706189208014937, 1.9162627083120571, 2.01502802]
      },
      {
        "species": [{ "element": "Au", "occu": 1 }],
        "abc": [0.20476421, 0.60335603, 0.80812024],
        "properties": { "magmom": -0.013000000000000001 },
        "label": "Au",
        "xyz": [3.9166695008014942, 1.329686491687943, -2.220446049250313e-16]
      }
    ]
  },
  "task_ids": null,
  "uncorrected_energy_per_atom": null,
  "energy_per_atom": -43.363634634,
  "formation_energy_per_atom": -0.077751367999997,
  "energy_above_hull": 0.0,
  "is_stable": true,
  "equilibrium_reaction_energy_per_atom": null,
  "decomposes_to": null,
  "xas": null,
  "grain_boundaries": null,
  "band_gap": 0.0,
  "cbm": null,
  "vbm": null,
  "efermi": 5.59939617,
  "is_gap_direct": null,
  "is_metal": null,
  "es_source_calc_id": null,
  "bandstructure": null,
  "dos": null,
  "dos_energy_up": null,
  "dos_energy_down": null,
  "is_magnetic": null,
  "ordering": null,
  "total_magnetization": 2.3185926,
  "total_magnetization_normalized_vol": null,
  "total_magnetization_normalized_formula_units": null,
  "num_magnetic_sites": null,
  "num_unique_magnetic_sites": null,
  "types_of_magnetic_species": null,
  "bulk_modulus": null,
  "shear_modulus": null,
  "universal_anisotropy": null,
  "homogeneous_poisson": null,
  "e_total": null,
  "e_ionic": null,
  "e_electronic": null,
  "n": null,
  "e_ij_max": null,
  "weighted_surface_energy_EV_PER_ANG2": null,
  "weighted_surface_energy": null,
  "weighted_work_function": null,
  "surface_anisotropy": null,
  "shape_factor": null,
  "has_reconstructed": null,
  "possible_species": null,
  "has_props": null,
  "theoretical": null,
  "database_IDs": null,
  "fields_not_requested": [
    "builder_meta",
    "nsites",
    "elements",
    "nelements",
    "composition",
    "composition_reduced",
    "chemsys",
    "symmetry",
    "property_name",
    "deprecated",
    "deprecation_reasons",
    "last_updated",
    "origins",
    "warnings",
    "task_ids",
    "uncorrected_energy_per_atom",
    "equilibrium_reaction_energy_per_atom",
    "decomposes_to",
    "xas",
    "grain_boundaries",
    "cbm",
    "vbm",
    "is_gap_direct",
    "is_metal",
    "es_source_calc_id",
    "bandstructure",
    "dos",
    "dos_energy_up",
    "dos_energy_down",
    "is_magnetic",
    "ordering",
    "total_magnetization_normalized_vol",
    "total_magnetization_normalized_formula_units",
    "num_magnetic_sites",
    "num_unique_magnetic_sites",
    "types_of_magnetic_species",
    "bulk_modulus",
    "shear_modulus",
    "universal_anisotropy",
    "homogeneous_poisson",
    "e_total",
    "e_ionic",
    "e_electronic",
    "n",
    "e_ij_max",
    "weighted_surface_energy_EV_PER_ANG2",
    "weighted_surface_energy",
    "weighted_work_function",
    "surface_anisotropy",
    "shape_factor",
    "has_reconstructed",
    "possible_species",
    "has_props",
    "theoretical",
    "database_IDs"
  ]
}
