{"builder_meta": null, "nsites": null, "elements": null, "nelements": null, "composition": null, "composition_reduced": null, "formula_pretty": "VB", "formula_anonymous": "AB", "chemsys": null, "volume": 35.98634054403453, "density": 5.698964504864887, "density_atomic": 8.996585136008633, "symmetry": null, "property_name": null, "material_id": "mp-9973", "deprecated": null, "deprecation_reasons": null, "last_updated": null, "origins": null, "warnings": null, "structure": {"@module": "pymatgen.core.structure", "@class": "Structure", "charge": 0, "lattice": {"matrix": [[2.95952872, 0.0, 0.0], [-0.0, 2.83727385, -1.07656584], [0.0, 0.002834499999999, 4.28454657]], "pbc": [true, true, true], "a": 2.95952872, "b": 3.034652683215779, "c": 4.284547507600892, "alpha": 110.74067887840626, "beta": 90.0, "gamma": 90.0, "volume": 35.98634054403453}, "properties": {}, "sites": [{"species": [{"element": "V", "occu": 1}], "abc": [0.25, 0.85210419, 0.70420838], "properties": {"magmom": 0.0}, "label": "V", "xyz": [0.73988218, 2.419649014415541, 2.0998673360193867]}, {"species": [{"element": "V", "occu": 1}], "abc": [0.75, 0.14789581000000002, 0.29579162000000003], "properties": {"magmom": 0.0}, "label": "V", "xyz": [2.21964654, 0.42045933558445825, 1.1081133939806131]}, {"species": [{"element": "B", "occu": 1}], "abc": [0.25, 0.56267743, 0.12535586], "properties": {"magmom": -0.0}, "label": "B", "xyz": [0.73988218, 1.5968252793093753, -0.06866628008459097]}, {"species": [{"element": "B", "occu": 1}], "abc": [0.75, 0.43732257, 0.87464414], "properties": {"magmom": -0.0}, "label": "B", "xyz": [2.21964654, 1.2432830706906235, 3.2766470100845906]}]}, "task_ids": null, "uncorrected_energy_per_atom": null, "energy_per_atom": -11.617777255, "formation_energy_per_atom": -0.8998122912500001, "energy_above_hull": 0.0, "is_stable": true, "equilibrium_reaction_energy_per_atom": null, "decomposes_to": null, "xas": null, "grain_boundaries": null, "band_gap": 0.0, "cbm": null, "vbm": null, "efermi": 7.54884625, "is_gap_direct": null, "is_metal": null, "es_source_calc_id": null, "bandstructure": null, "dos": null, "dos_energy_up": null, "dos_energy_down": null, "is_magnetic": null, "ordering": null, "total_magnetization": 1e-07, "total_magnetization_normalized_vol": null, "total_magnetization_normalized_formula_units": null, "num_magnetic_sites": null, "num_unique_magnetic_sites": null, "types_of_magnetic_species": null, "bulk_modulus": null, "shear_modulus": null, "universal_anisotropy": null, "homogeneous_poisson": null, "e_total": null, "e_ionic": null, "e_electronic": null, "n": null, "e_ij_max": null, "weighted_surface_energy_EV_PER_ANG2": null, "weighted_surface_energy": null, "weighted_work_function": null, "surface_anisotropy": null, "shape_factor": null, "has_reconstructed": null, "possible_species": null, "has_props": null, "theoretical": null, "database_IDs": null, "fields_not_requested": ["builder_meta", "nsites", "elements", "nelements", "composition", "composition_reduced", "chemsys", "symmetry", "property_name", "deprecated", "deprecation_reasons", "last_updated", "origins", "warnings", "task_ids", "uncorrected_energy_per_atom", "equilibrium_reaction_energy_per_atom", "decomposes_to", "xas", "grain_boundaries", "cbm", "vbm", "is_gap_direct", "is_metal", "es_source_calc_id", "bandstructure", "dos", "dos_energy_up", "dos_energy_down", "is_magnetic", "ordering", "total_magnetization_normalized_vol", "total_magnetization_normalized_formula_units", "num_magnetic_sites", "num_unique_magnetic_sites", "types_of_magnetic_species", "bulk_modulus", "shear_modulus", "universal_anisotropy", "homogeneous_poisson", "e_total", "e_ionic", "e_electronic", "n", "e_ij_max", "weighted_surface_energy_EV_PER_ANG2", "weighted_surface_energy", "weighted_work_function", "surface_anisotropy", "shape_factor", "has_reconstructed", "possible_species", "has_props", "theoretical", "database_IDs"]}