{
  "builder_meta": null,
  "nsites": null,
  "elements": null,
  "nelements": null,
  "composition": null,
  "composition_reduced": null,
  "formula_pretty": "VBi",
  "formula_anonymous": "AB",
  "chemsys": null,
  "volume": 170.3670451645167,
  "density": 10.133660974118778,
  "density_atomic": 21.295880645564587,
  "symmetry": null,
  "property_name": null,
  "material_id": "mp-1120782",
  "deprecated": null,
  "deprecation_reasons": null,
  "last_updated": null,
  "origins": null,
  "warnings": null,
  "structure": {
    "@module": "pymatgen.core.structure",
    "@class": "Structure",
    "charge": 0,
    "lattice": {
      "matrix": [
        [3.491399, 0.0, 0.0],
        [0.0, 7.300479, 0.0],
        [0.0, 0.0, 6.683974]
      ],
      "pbc": [true, true, true],
      "a": 3.491399,
      "b": 7.300479,
      "c": 6.683974,
      "alpha": 90.0,
      "beta": 90.0,
      "gamma": 90.0,
      "volume": 170.3670451645167
    },
    "properties": {},
    "sites": [
      {
        "species": [{ "element": "V", "occu": 1 }],
        "abc": [0.258633, 0.001157, 0.145978],
        "properties": { "magmom": 0.001 },
        "label": "V",
        "xyz": [0.902990997567, 0.008446654203, 0.975713156572]
      },
      {
        "species": [{ "element": "V", "occu": 1 }],
        "abc": [0.758633, 0.998842999999999, 0.854022],
        "properties": { "magmom": 0.001 },
        "label": "V",
        "xyz": [2.648690497567, 7.2920323457969936, 5.7082608434279996]
      },
      {
        "species": [{ "element": "V", "occu": 1 }],
        "abc": [0.758633, 0.498843, 0.645977999999999],
        "properties": { "magmom": 0.001 },
        "label": "V",
        "xyz": [2.648690497567, 3.641792845797, 4.317700156571994]
      },
      {
        "species": [{ "element": "V", "occu": 1 }],
        "abc": [0.258633, 0.501157, 0.354022],
        "properties": { "magmom": 0.001 },
        "label": "V",
        "xyz": [0.902990997567, 3.658686154203, 2.366273843428]
      },
      {
        "species": [{ "element": "Bi", "occu": 1 }],
        "abc": [0.258667, 0.187473, 0.578371],
        "properties": { "magmom": -0.0 },
        "label": "Bi",
        "xyz": [0.9031097051329999, 1.368642699567, 3.8658167263539998]
      },
      {
        "species": [{ "element": "Bi", "occu": 1 }],
        "abc": [0.758667, 0.812527, 0.421629],
        "properties": { "magmom": -0.0 },
        "label": "Bi",
        "xyz": [2.648809205133, 5.931836300433, 2.818157273646]
      },
      {
        "species": [{ "element": "Bi", "occu": 1 }],
        "abc": [0.758667, 0.312527, 0.078371],
        "properties": { "magmom": -0.0 },
        "label": "Bi",
        "xyz": [2.648809205133, 2.281596800433, 0.5238297263539999]
      },
      {
        "species": [{ "element": "Bi", "occu": 1 }],
        "abc": [0.258667, 0.687473, 0.921628999999999],
        "properties": { "magmom": -0.0 },
        "label": "Bi",
        "xyz": [0.9031097051329999, 5.018882199567, 6.160144273645994]
      }
    ]
  },
  "task_ids": null,
  "uncorrected_energy_per_atom": null,
  "energy_per_atom": -35.978194862500004,
  "formation_energy_per_atom": 0.317729874999997,
  "energy_above_hull": 0.317729874999997,
  "is_stable": false,
  "equilibrium_reaction_energy_per_atom": null,
  "decomposes_to": null,
  "xas": null,
  "grain_boundaries": null,
  "band_gap": 0.0,
  "cbm": null,
  "vbm": null,
  "efermi": 7.10734474,
  "is_gap_direct": null,
  "is_metal": null,
  "es_source_calc_id": null,
  "bandstructure": null,
  "dos": null,
  "dos_energy_up": null,
  "dos_energy_down": null,
  "is_magnetic": null,
  "ordering": null,
  "total_magnetization": 0.0044551,
  "total_magnetization_normalized_vol": null,
  "total_magnetization_normalized_formula_units": null,
  "num_magnetic_sites": null,
  "num_unique_magnetic_sites": null,
  "types_of_magnetic_species": null,
  "bulk_modulus": null,
  "shear_modulus": null,
  "universal_anisotropy": null,
  "homogeneous_poisson": null,
  "e_total": null,
  "e_ionic": null,
  "e_electronic": null,
  "n": null,
  "e_ij_max": null,
  "weighted_surface_energy_EV_PER_ANG2": null,
  "weighted_surface_energy": null,
  "weighted_work_function": null,
  "surface_anisotropy": null,
  "shape_factor": null,
  "has_reconstructed": null,
  "possible_species": null,
  "has_props": null,
  "theoretical": null,
  "database_IDs": null,
  "fields_not_requested": [
    "builder_meta",
    "nsites",
    "elements",
    "nelements",
    "composition",
    "composition_reduced",
    "chemsys",
    "symmetry",
    "property_name",
    "deprecated",
    "deprecation_reasons",
    "last_updated",
    "origins",
    "warnings",
    "task_ids",
    "uncorrected_energy_per_atom",
    "equilibrium_reaction_energy_per_atom",
    "decomposes_to",
    "xas",
    "grain_boundaries",
    "cbm",
    "vbm",
    "is_gap_direct",
    "is_metal",
    "es_source_calc_id",
    "bandstructure",
    "dos",
    "dos_energy_up",
    "dos_energy_down",
    "is_magnetic",
    "ordering",
    "total_magnetization_normalized_vol",
    "total_magnetization_normalized_formula_units",
    "num_magnetic_sites",
    "num_unique_magnetic_sites",
    "types_of_magnetic_species",
    "bulk_modulus",
    "shear_modulus",
    "universal_anisotropy",
    "homogeneous_poisson",
    "e_total",
    "e_ionic",
    "e_electronic",
    "n",
    "e_ij_max",
    "weighted_surface_energy_EV_PER_ANG2",
    "weighted_surface_energy",
    "weighted_work_function",
    "surface_anisotropy",
    "shape_factor",
    "has_reconstructed",
    "possible_species",
    "has_props",
    "theoretical",
    "database_IDs"
  ]
}
