{
  "builder_meta": null,
  "nsites": null,
  "elements": null,
  "nelements": null,
  "composition": null,
  "composition_reduced": null,
  "formula_pretty": "VBi2",
  "formula_anonymous": "AB2",
  "chemsys": null,
  "volume": 145.4212625346141,
  "density": 10.708620926506653,
  "density_atomic": 24.23687708910235,
  "symmetry": null,
  "property_name": null,
  "material_id": "mp-1120786",
  "deprecated": null,
  "deprecation_reasons": null,
  "last_updated": null,
  "origins": null,
  "warnings": null,
  "structure": {
    "@module": "pymatgen.core.structure",
    "@class": "Structure",
    "charge": 0,
    "lattice": {
      "matrix": [
        [1.882883, 5.370275, 0.0],
        [-1.882883, 5.370275, 0.0],
        [0.0, 4.414232, 7.190814]
      ],
      "pbc": [true, true, true],
      "a": 5.690790979056778,
      "b": 5.690790979056778,
      "c": 8.437609266398864,
      "alpha": 60.41619814009391,
      "beta": 60.41619814009391,
      "gamma": 38.64255985012951,
      "volume": 145.4212625346141
    },
    "properties": {},
    "sites": [
      {
        "species": [{ "element": "V", "occu": 1 }],
        "abc": [0.143768, 0.143768, 0.817068999999999],
        "properties": { "magmom": -0.0 },
        "label": "V",
        "xyz": [0.0, 5.150879518407996, 5.875391204165993]
      },
      {
        "species": [{ "element": "V", "occu": 1 }],
        "abc": [0.856232, 0.856232, 0.182930999999999],
        "properties": { "magmom": -0.0 },
        "label": "V",
        "xyz": [0.0, 10.003902481591997, 1.3154227958339928]
      },
      {
        "species": [{ "element": "Bi", "occu": 1 }],
        "abc": [0.408759, 0.408759, 0.8862800000000001],
        "properties": { "magmom": 0.0 },
        "label": "Bi",
        "xyz": [0.0, 8.302542014410001, 6.37307463192]
      },
      {
        "species": [{ "element": "Bi", "occu": 1 }],
        "abc": [0.591241, 0.591241, 0.11372000000000002],
        "properties": { "magmom": 0.0 },
        "label": "Bi",
        "xyz": [0.0, 6.852239985590001, 0.81773936808]
      },
      {
        "species": [{ "element": "Bi", "occu": 1 }],
        "abc": [0.842191999999999, 0.842191999999999, 0.549358],
        "properties": { "magmom": 0.0 },
        "label": "Bi",
        "xyz": [0.0, 11.47059894865599, 3.950331197412]
      },
      {
        "species": [{ "element": "Bi", "occu": 1 }],
        "abc": [0.157808, 0.157808, 0.450642],
        "properties": { "magmom": 0.0 },
        "label": "Bi",
        "xyz": [0.0, 3.684183051344, 3.2404828025879997]
      }
    ]
  },
  "task_ids": null,
  "uncorrected_energy_per_atom": null,
  "energy_per_atom": -43.46876262666666,
  "formation_energy_per_atom": 0.22927844666667302,
  "energy_above_hull": 0.22927844666666802,
  "is_stable": false,
  "equilibrium_reaction_energy_per_atom": null,
  "decomposes_to": null,
  "xas": null,
  "grain_boundaries": null,
  "band_gap": 0.0,
  "cbm": null,
  "vbm": null,
  "efermi": 6.99349443,
  "is_gap_direct": null,
  "is_metal": null,
  "es_source_calc_id": null,
  "bandstructure": null,
  "dos": null,
  "dos_energy_up": null,
  "dos_energy_down": null,
  "is_magnetic": null,
  "ordering": null,
  "total_magnetization": 6.860000000000001e-5,
  "total_magnetization_normalized_vol": null,
  "total_magnetization_normalized_formula_units": null,
  "num_magnetic_sites": null,
  "num_unique_magnetic_sites": null,
  "types_of_magnetic_species": null,
  "bulk_modulus": null,
  "shear_modulus": null,
  "universal_anisotropy": null,
  "homogeneous_poisson": null,
  "e_total": null,
  "e_ionic": null,
  "e_electronic": null,
  "n": null,
  "e_ij_max": null,
  "weighted_surface_energy_EV_PER_ANG2": null,
  "weighted_surface_energy": null,
  "weighted_work_function": null,
  "surface_anisotropy": null,
  "shape_factor": null,
  "has_reconstructed": null,
  "possible_species": null,
  "has_props": null,
  "theoretical": null,
  "database_IDs": null,
  "fields_not_requested": [
    "builder_meta",
    "nsites",
    "elements",
    "nelements",
    "composition",
    "composition_reduced",
    "chemsys",
    "symmetry",
    "property_name",
    "deprecated",
    "deprecation_reasons",
    "last_updated",
    "origins",
    "warnings",
    "task_ids",
    "uncorrected_energy_per_atom",
    "equilibrium_reaction_energy_per_atom",
    "decomposes_to",
    "xas",
    "grain_boundaries",
    "cbm",
    "vbm",
    "is_gap_direct",
    "is_metal",
    "es_source_calc_id",
    "bandstructure",
    "dos",
    "dos_energy_up",
    "dos_energy_down",
    "is_magnetic",
    "ordering",
    "total_magnetization_normalized_vol",
    "total_magnetization_normalized_formula_units",
    "num_magnetic_sites",
    "num_unique_magnetic_sites",
    "types_of_magnetic_species",
    "bulk_modulus",
    "shear_modulus",
    "universal_anisotropy",
    "homogeneous_poisson",
    "e_total",
    "e_ionic",
    "e_electronic",
    "n",
    "e_ij_max",
    "weighted_surface_energy_EV_PER_ANG2",
    "weighted_surface_energy",
    "weighted_work_function",
    "surface_anisotropy",
    "shape_factor",
    "has_reconstructed",
    "possible_species",
    "has_props",
    "theoretical",
    "database_IDs"
  ]
}
