{"builder_meta": null, "nsites": null, "elements": null, "nelements": null, "composition": null, "composition_reduced": null, "formula_pretty": "VBr2", "formula_anonymous": "AB2", "chemsys": null, "volume": 81.19421374748661, "density": 4.310131989266903, "density_atomic": 27.06473791582887, "symmetry": null, "property_name": null, "material_id": "mp-971787", "deprecated": null, "deprecation_reasons": null, "last_updated": null, "origins": null, "warnings": null, "structure": {"@module": "pymatgen.core.structure", "@class": "Structure", "charge": 0, "lattice": {"matrix": [[3.82343967, -2e-08, -0.0], [-1.91172087, 3.31146401, -0.00016409], [-0.0, -0.00016594, 6.41284586]], "pbc": [true, true, true], "a": 3.82343967, "b": 3.8236723972176754, "c": 6.412845862146947, "alpha": 90.00374279679939, "beta": 89.99999999999224, "gamma": 119.99800483518051, "volume": 81.1942137474866}, "properties": {}, "sites": [{"species": [{"element": "V", "occu": 1}], "abc": [0.999965999999999, 0.0, -0.0], "properties": {"magmom": 2.6790000000000003}, "label": "V", "xyz": [3.823309673051216, -1.9999319999999982e-08, 0.0]}, {"species": [{"element": "Br", "occu": 1}], "abc": [0.33329791000000003, 0.66666581, 0.22859643000000002], "properties": {"magmom": -0.016}, "label": "Br", "xyz": [-0.00013449127036491149, 2.207601896554946, 1.465844276543517]}, {"species": [{"element": "Br", "occu": 1}], "abc": [0.66663309, 0.33333319, 0.7714045700000001], "properties": {"magmom": -0.016}, "label": "Br", "xyz": [1.9115913856540052, 1.1036928418164842, 4.946843906466434]}]}, "task_ids": null, "uncorrected_energy_per_atom": null, "energy_per_atom": -5.328173076666668, "formation_energy_per_atom": -1.208906696666668, "energy_above_hull": 0.0, "is_stable": true, "equilibrium_reaction_energy_per_atom": null, "decomposes_to": null, "xas": null, "grain_boundaries": null, "band_gap": 1.1332, "cbm": null, "vbm": null, "efermi": 2.46396163, "is_gap_direct": null, "is_metal": null, "es_source_calc_id": null, "bandstructure": null, "dos": null, "dos_energy_up": null, "dos_energy_down": null, "is_magnetic": null, "ordering": null, "total_magnetization": 2.9999998, "total_magnetization_normalized_vol": null, "total_magnetization_normalized_formula_units": null, "num_magnetic_sites": null, "num_unique_magnetic_sites": null, "types_of_magnetic_species": null, "bulk_modulus": null, "shear_modulus": null, "universal_anisotropy": null, "homogeneous_poisson": null, "e_total": null, "e_ionic": null, "e_electronic": null, "n": null, "e_ij_max": null, "weighted_surface_energy_EV_PER_ANG2": null, "weighted_surface_energy": null, "weighted_work_function": null, "surface_anisotropy": null, "shape_factor": null, "has_reconstructed": null, "possible_species": null, "has_props": null, "theoretical": null, "database_IDs": null, "fields_not_requested": ["builder_meta", "nsites", "elements", "nelements", "composition", "composition_reduced", "chemsys", "symmetry", "property_name", "deprecated", "deprecation_reasons", "last_updated", "origins", "warnings", "task_ids", "uncorrected_energy_per_atom", "equilibrium_reaction_energy_per_atom", "decomposes_to", "xas", "grain_boundaries", "cbm", "vbm", "is_gap_direct", "is_metal", "es_source_calc_id", "bandstructure", "dos", "dos_energy_up", "dos_energy_down", "is_magnetic", "ordering", "total_magnetization_normalized_vol", "total_magnetization_normalized_formula_units", "num_magnetic_sites", "num_unique_magnetic_sites", "types_of_magnetic_species", "bulk_modulus", "shear_modulus", "universal_anisotropy", "homogeneous_poisson", "e_total", "e_ionic", "e_electronic", "n", "e_ij_max", "weighted_surface_energy_EV_PER_ANG2", "weighted_surface_energy", "weighted_work_function", "surface_anisotropy", "shape_factor", "has_reconstructed", "possible_species", "has_props", "theoretical", "database_IDs"]}