{
  "builder_meta": null,
  "nsites": null,
  "elements": null,
  "nelements": null,
  "composition": null,
  "composition_reduced": null,
  "formula_pretty": "VBr3",
  "formula_anonymous": "AB3",
  "chemsys": null,
  "volume": 287.6967489723293,
  "density": 3.355209909865499,
  "density_atomic": 35.962093621541165,
  "symmetry": null,
  "property_name": null,
  "material_id": "mp-2757308",
  "deprecated": null,
  "deprecation_reasons": null,
  "last_updated": null,
  "origins": null,
  "warnings": null,
  "structure": {
    "@module": "pymatgen.core.structure",
    "@class": "Structure",
    "charge": 0,
    "lattice": {
      "matrix": [
        [5.01329174, -8.66079477, -1.07e-6],
        [4.84260739, 8.56210606, 5.03e-6],
        [1.34e-6, 1.2e-6, 3.39004527]
      ],
      "pbc": [true, true, true],
      "a": 10.00712047086537,
      "b": 9.836691848197576,
      "c": 3.390045270000477,
      "alpha": 89.99994189887931,
      "beta": 90.00001233329306,
      "gamma": 120.44374876434401,
      "volume": 287.6967489723293
    },
    "properties": {},
    "sites": [
      {
        "species": [{ "element": "V", "occu": 1 }],
        "abc": [0.33338684, 0.67103027, 0.75000004],
        "properties": { "magmom": 1.929 },
        "label": "V",
        "xyz": [4.920902640612451, 2.8580382409516565, 2.54253710666015]
      },
      {
        "species": [{ "element": "V", "occu": 1 }],
        "abc": [0.66212819, 0.32974303, 0.2499996],
        "properties": { "magmom": 1.929 },
        "label": "V",
        "xyz": [4.916258154626606, -2.911261269616286, 0.8475109116121695]
      },
      {
        "species": [{ "element": "Br", "occu": 1 }],
        "abc": [0.224570699999999, 0.44233812, 0.25000096],
        "properties": { "magmom": -0.039 },
        "label": "Br",
        "xyz": [3.267908619148006, 1.8423854537669284, 0.8475165566135537]
      },
      {
        "species": [{ "element": "Br", "occu": 1 }],
        "abc": [0.55694686, 0.77412674, 0.24999981000000002],
        "properties": { "magmom": -0.036000000000000004 },
        "label": "Br",
        "xyz": [6.540929299777291, 1.8045530995058938, 0.8475139713157608]
      },
      {
        "species": [{ "element": "Br", "occu": 1 }],
        "abc": [0.21845792, 0.77936203, 0.24999943],
        "properties": { "magmom": -0.031 },
        "label": "Br",
        "xyz": [4.869337946836219, 4.780961448995139, 0.8475130716152326]
      },
      {
        "species": [{ "element": "Br", "occu": 1 }],
        "abc": [0.78309734, 0.55819904, 0.74999934],
        "properties": { "magmom": -0.039 },
        "label": "Br",
        "xyz": [6.629035227431992, -2.002885063603522, 2.542533684897139]
      },
      {
        "species": [{ "element": "Br", "occu": 1 }],
        "abc": [0.4392754, 0.21976813, 0.75000035],
        "properties": { "magmom": -0.03 },
        "label": "Br",
        "xyz": [3.266467509830145, -1.9227951492413704, 2.5425357744248602]
      },
      {
        "species": [{ "element": "Br", "occu": 1 }],
        "abc": [0.7821367300000001, 0.22543164000000002, 0.75000049],
        "properties": { "magmom": -0.037 },
        "label": "Br",
        "xyz": [5.012757538864087, -4.8437551896485775, 2.5425359106570307]
      }
    ]
  },
  "task_ids": null,
  "uncorrected_energy_per_atom": null,
  "energy_per_atom": -14.50569310875,
  "formation_energy_per_atom": -1.039139354375001,
  "energy_above_hull": 0.0,
  "is_stable": true,
  "equilibrium_reaction_energy_per_atom": null,
  "decomposes_to": null,
  "xas": null,
  "grain_boundaries": null,
  "band_gap": 0.6834,
  "cbm": null,
  "vbm": null,
  "efermi": -0.43671799,
  "is_gap_direct": null,
  "is_metal": null,
  "es_source_calc_id": null,
  "bandstructure": null,
  "dos": null,
  "dos_energy_up": null,
  "dos_energy_down": null,
  "is_magnetic": null,
  "ordering": null,
  "total_magnetization": 4.0000005,
  "total_magnetization_normalized_vol": null,
  "total_magnetization_normalized_formula_units": null,
  "num_magnetic_sites": null,
  "num_unique_magnetic_sites": null,
  "types_of_magnetic_species": null,
  "bulk_modulus": null,
  "shear_modulus": null,
  "universal_anisotropy": null,
  "homogeneous_poisson": null,
  "e_total": null,
  "e_ionic": null,
  "e_electronic": null,
  "n": null,
  "e_ij_max": null,
  "weighted_surface_energy_EV_PER_ANG2": null,
  "weighted_surface_energy": null,
  "weighted_work_function": null,
  "surface_anisotropy": null,
  "shape_factor": null,
  "has_reconstructed": null,
  "possible_species": null,
  "has_props": null,
  "theoretical": null,
  "database_IDs": null,
  "fields_not_requested": [
    "builder_meta",
    "nsites",
    "elements",
    "nelements",
    "composition",
    "composition_reduced",
    "chemsys",
    "symmetry",
    "property_name",
    "deprecated",
    "deprecation_reasons",
    "last_updated",
    "origins",
    "warnings",
    "task_ids",
    "uncorrected_energy_per_atom",
    "equilibrium_reaction_energy_per_atom",
    "decomposes_to",
    "xas",
    "grain_boundaries",
    "cbm",
    "vbm",
    "is_gap_direct",
    "is_metal",
    "es_source_calc_id",
    "bandstructure",
    "dos",
    "dos_energy_up",
    "dos_energy_down",
    "is_magnetic",
    "ordering",
    "total_magnetization_normalized_vol",
    "total_magnetization_normalized_formula_units",
    "num_magnetic_sites",
    "num_unique_magnetic_sites",
    "types_of_magnetic_species",
    "bulk_modulus",
    "shear_modulus",
    "universal_anisotropy",
    "homogeneous_poisson",
    "e_total",
    "e_ionic",
    "e_electronic",
    "n",
    "e_ij_max",
    "weighted_surface_energy_EV_PER_ANG2",
    "weighted_surface_energy",
    "weighted_work_function",
    "surface_anisotropy",
    "shape_factor",
    "has_reconstructed",
    "possible_species",
    "has_props",
    "theoretical",
    "database_IDs"
  ]
}
