{"builder_meta": null, "nsites": null, "elements": null, "nelements": null, "composition": null, "composition_reduced": null, "formula_pretty": "VC3", "formula_anonymous": "AB3", "chemsys": null, "volume": 280.6388398870431, "density": 4.11697997671233, "density_atomic": 8.769963746470097, "symmetry": null, "property_name": null, "material_id": "mp-1178822", "deprecated": null, "deprecation_reasons": null, "last_updated": null, "origins": null, "warnings": null, "structure": {"@module": "pymatgen.core.structure", "@class": "Structure", "charge": 0, "lattice": {"matrix": [[-6.143344, 0.0, 0.0], [-0.189411, -6.209507, 0.0], [2.063062, 2.440176, 7.356747]], "pbc": [true, true, true], "a": 6.143344, "b": 6.212395166919922, "c": 8.020748727446149, "alpha": 108.17580932098747, "beta": 104.90491186184481, "gamma": 88.25282637422833, "volume": 280.6388398870431}, "properties": {}, "sites": [{"species": [{"element": "V", "occu": 1}], "abc": [0.048426, 0.169768, 0.581751999999999], "properties": {"magmom": 0.041}, "label": "V", "xyz": [0.8705369414319979, 0.3654016839759977, 4.2798022807439935]}, {"species": [{"element": "V", "occu": 1}], "abc": [0.534822999999999, 0.465431, 0.493822], "properties": {"magmom": 0.5670000000000001}, "label": "V", "xyz": [-2.3549740162889936, -1.6850844598449999, 3.632923517034]}, {"species": [{"element": "V", "occu": 1}], "abc": [0.495378999999999, 0.526725, 0.926635], "properties": {"magmom": -0.193}, "label": "V", "xyz": [-1.231345659980994, -1.009550086815, 6.8170192563450005]}, {"species": [{"element": "V", "occu": 1}], "abc": [0.971903, 0.041666999999999, 0.037946], "properties": {"magmom": -0.186}, "label": "V", "xyz": [-5.900341701117, -0.16613660967299382, 0.279159121662]}, {"species": [{"element": "V", "occu": 1}], "abc": [0.551596, 0.023181, 0.5364500000000001], "properties": {"magmom": -0.016}, "label": "V", "xyz": [-2.2863051035149997, 1.1650898334330004, 3.946526928150001]}, {"species": [{"element": "V", "occu": 1}], "abc": [0.021779, 0.496697, 0.454617], "properties": {"magmom": -0.096}, "label": "V", "xyz": [0.7100272928109999, -1.974898005787, 3.344502250899]}, {"species": [{"element": "V", "occu": 1}], "abc": [0.931628999999999, 0.433921, 0.966193], "properties": {"magmom": 0.026000000000000002}, "label": "V", "xyz": [-3.8121907749409942, -0.33675451697900005, 7.108037454171]}, {"species": [{"element": "V", "occu": 1}], "abc": [0.591299, 0.0030900000000000003, 0.07555], "properties": {"magmom": 0.011}, "label": "V", "xyz": [-3.4772741097460003, 0.16516792017, 0.5558022358500001]}, {"species": [{"element": "C", "occu": 1}], "abc": [0.301782, 0.674238, 0.430052999999999], "properties": {"magmom": -0.01}, "label": "C", "xyz": [-1.094432730540002, -3.1372805713380028, 3.1637911175909927]}, {"species": [{"element": "C", "occu": 1}], "abc": [0.106673999999999, 0.18806, 0.319532], "properties": {"magmom": 0.006}, "label": "C", "xyz": [-0.03174138353199396, -0.3880455687880001, 2.350716082404]}, {"species": [{"element": "C", "occu": 1}], "abc": [0.734846999999999, 0.7432300000000001, 0.917408999999999], "properties": {"magmom": 0.007}, "label": "C", "xyz": [-2.762522199539996, -2.3764524636260025, 6.749145908522993]}, {"species": [{"element": "C", "occu": 1}], "abc": [0.743703, 0.328476, 0.090289], "properties": {"magmom": 0.004}, "label": "C", "xyz": [-4.44476852555, -1.819352970468, 0.664233329883]}, {"species": [{"element": "C", "occu": 1}], "abc": [0.155262999999999, 0.696647, 0.111912], "properties": {"magmom": -0.003}, "label": "C", "xyz": [-0.854905229844994, -4.052749446517001, 0.823308270264]}, {"species": [{"element": "C", "occu": 1}], "abc": [0.948977, 0.851449, 0.357797], "properties": {"magmom": -0.001}, "label": "C", "xyz": [-5.253008571212999, -4.4139908733710005, 2.632222006359]}, {"species": [{"element": "C", "occu": 1}], "abc": [0.821357, 0.713314999999999, 0.761697], "properties": {"magmom": -0.001}, "label": "C", "xyz": [-3.609560169058999, -2.5706597470329946, 5.603612119659]}, {"species": [{"element": "C", "occu": 1}], "abc": [0.305226999999999, 0.758911999999999, 0.625305], "properties": {"magmom": -0.005}, "label": "C", "xyz": [-0.7288177560099938, -3.1866151227039943, 4.600210682835]}, {"species": [{"element": "C", "occu": 1}], "abc": [0.866742, 0.485162999999999, 0.659165], "properties": {"magmom": -0.005}, "label": "C", "xyz": [-4.056691211011, -1.404144431600994, 4.849310136255]}, {"species": [{"element": "C", "occu": 1}], "abc": [0.903578999999999, 0.040001999999999004, 0.285846], "properties": {"magmom": 0.001}, "label": "C", "xyz": [-4.968855426545994, 0.4491218498820061, 2.102896702962]}, {"species": [{"element": "C", "occu": 1}], "abc": [0.41855000000000003, 0.287731, 0.206045999999999], "properties": {"magmom": -0.002}, "label": "C", "xyz": [-2.2007103747890024, -1.2838791545210027, 1.5158282923619928]}, {"species": [{"element": "C", "occu": 1}], "abc": [0.333466, 0.009672, 0.699361999999999], "properties": {"magmom": -0.001}, "label": "C", "xyz": [-0.6076011670520018, 1.6465080160079977, 5.145029295413993]}, {"species": [{"element": "C", "occu": 1}], "abc": [0.750431, 0.304187, 0.695083999999999], "properties": {"magmom": -0.002}, "label": "C", "xyz": [-3.233770757913002, -0.19272401102500214, 5.113557131747993]}, {"species": [{"element": "C", "occu": 1}], "abc": [0.841355, 0.822919, 0.486691999999999], "properties": {"magmom": -0.003}, "label": "C", "xyz": [-4.320527330925001, -3.9223071531410025, 3.580469910923993]}, {"species": [{"element": "C", "occu": 1}], "abc": [0.266976999999999, 0.204367, 0.024732999999999002], "properties": {"magmom": 0.003}, "label": "C", "xyz": [-1.627815196478996, -1.2086654440610023, 0.18195442355099267]}, {"species": [{"element": "C", "occu": 1}], "abc": [0.367753, 0.773164, 0.110627999999999], "properties": {"magmom": 0.004}, "label": "C", "xyz": [-2.1774465295000023, -4.531015479620002, 0.8138622071159928]}, {"species": [{"element": "C", "occu": 1}], "abc": [0.861201999999999, 0.12486799999999901, 0.772397999999999], "properties": {"magmom": 0.001}, "label": "C", "xyz": [-3.7208065495599953, 1.1094183419720038, 5.682336669305993]}, {"species": [{"element": "C", "occu": 1}], "abc": [0.358295, 0.186414, 0.870258], "properties": {"magmom": 0.004}, "label": "C", "xyz": [-0.4410420906379997, 0.96604364751, 6.402267930726]}, {"species": [{"element": "C", "occu": 1}], "abc": [0.351033999999999, 0.165785, 0.331931], "properties": {"magmom": -0.009000000000000001}, "label": "C", "xyz": [-1.5031298876089938, -0.21947305813899987, 2.441932388457]}, {"species": [{"element": "C", "occu": 1}], "abc": [0.649192, 0.362473999999999, 0.238855999999999], "properties": {"magmom": -0.01}, "label": "C", "xyz": [-3.5640916037900015, -1.6679341616619965, 1.7572031614319927]}, {"species": [{"element": "C", "occu": 1}], "abc": [0.124749, 0.712988, 0.290834], "properties": {"magmom": 0.001}, "label": "C", "xyz": [-0.30141521701599994, -3.7176178301319998, 2.139592156998]}, {"species": [{"element": "C", "occu": 1}], "abc": [0.844822, 0.885644, 0.678341], "properties": {"magmom": 0.0}, "label": "C", "xyz": [-3.9583233403099998, -3.844141189492, 4.990383116727]}, {"species": [{"element": "C", "occu": 1}], "abc": [0.321827, 0.567558999999999, 0.691592], "properties": {"magmom": 0.004}, "label": "C", "xyz": [-0.6577987125329996, -1.836655383220994, 5.087867371224]}, {"species": [{"element": "C", "occu": 1}], "abc": [0.475352, 0.952251, 0.271269], "properties": {"magmom": -0.003}, "label": "C", "xyz": [-2.5409729055710004, -5.251065146913, 1.995657401943]}]}, "task_ids": null, "uncorrected_energy_per_atom": null, "energy_per_atom": -8.5548347015625, "formation_energy_per_atom": 0.6376409353124981, "energy_above_hull": 0.886532148402778, "is_stable": false, "equilibrium_reaction_energy_per_atom": null, "decomposes_to": null, "xas": null, "grain_boundaries": null, "band_gap": 0.0, "cbm": null, "vbm": null, "efermi": 6.84695247, "is_gap_direct": null, "is_metal": null, "es_source_calc_id": null, "bandstructure": null, "dos": null, "dos_energy_up": null, "dos_energy_down": null, "is_magnetic": null, "ordering": null, "total_magnetization": 0.139544299999999, "total_magnetization_normalized_vol": null, "total_magnetization_normalized_formula_units": null, "num_magnetic_sites": null, "num_unique_magnetic_sites": null, "types_of_magnetic_species": null, "bulk_modulus": null, "shear_modulus": null, "universal_anisotropy": null, "homogeneous_poisson": null, "e_total": null, "e_ionic": null, "e_electronic": null, "n": null, "e_ij_max": null, "weighted_surface_energy_EV_PER_ANG2": null, "weighted_surface_energy": null, "weighted_work_function": null, "surface_anisotropy": null, "shape_factor": null, "has_reconstructed": null, "possible_species": null, "has_props": null, "theoretical": null, "database_IDs": null, "fields_not_requested": ["builder_meta", "nsites", "elements", "nelements", "composition", "composition_reduced", "chemsys", "symmetry", "property_name", "deprecated", "deprecation_reasons", "last_updated", "origins", "warnings", "task_ids", "uncorrected_energy_per_atom", "equilibrium_reaction_energy_per_atom", "decomposes_to", "xas", "grain_boundaries", "cbm", "vbm", "is_gap_direct", "is_metal", "es_source_calc_id", "bandstructure", "dos", "dos_energy_up", "dos_energy_down", "is_magnetic", "ordering", "total_magnetization_normalized_vol", "total_magnetization_normalized_formula_units", "num_magnetic_sites", "num_unique_magnetic_sites", "types_of_magnetic_species", "bulk_modulus", "shear_modulus", "universal_anisotropy", "homogeneous_poisson", "e_total", "e_ionic", "e_electronic", "n", "e_ij_max", "weighted_surface_energy_EV_PER_ANG2", "weighted_surface_energy", "weighted_work_function", "surface_anisotropy", "shape_factor", "has_reconstructed", "possible_species", "has_props", "theoretical", "database_IDs"]}