{
  "builder_meta": null,
  "nsites": null,
  "elements": null,
  "nelements": null,
  "composition": null,
  "composition_reduced": null,
  "formula_pretty": "VCl3",
  "formula_anonymous": "AB3",
  "chemsys": null,
  "volume": 190.56535084441182,
  "density": 2.741354861083581,
  "density_atomic": 23.820668855551478,
  "symmetry": null,
  "property_name": null,
  "material_id": "mp-28117",
  "deprecated": null,
  "deprecation_reasons": null,
  "last_updated": null,
  "origins": null,
  "warnings": null,
  "structure": {
    "@module": "pymatgen.core.structure",
    "@class": "Structure",
    "charge": 0,
    "lattice": {
      "matrix": [
        [5.49071911, 0.02760343, 4.2512746],
        [2.10703108, 5.05540428, 4.26556748],
        [0.06089414, 0.02930934, 6.94199643]
      ],
      "pbc": [true, true, true],
      "a": 6.944212987723815,
      "b": 6.9420284018982406,
      "c": 6.942325371792244,
      "alpha": 51.67195128404652,
      "beta": 51.74757368356471,
      "gamma": 51.752805635365995,
      "volume": 190.56535084441182
    },
    "properties": {},
    "sites": [
      {
        "species": [{ "element": "V", "occu": 1 }],
        "abc": [0.66648696, 0.66677111, 0.66685545],
        "properties": { "magmom": 1.861 },
        "label": "V",
        "xyz": [5.105007728985966, 3.4087399425355267, 10.306884400924762]
      },
      {
        "species": [{ "element": "V", "occu": 1 }],
        "abc": [0.33351281, 0.33322987, 0.33314125],
        "properties": { "magmom": 1.861 },
        "label": "V",
        "xyz": [2.5536372020884337, 1.703581958691057, 5.1519344029499905]
      },
      {
        "species": [{ "element": "Cl", "occu": 1 }],
        "abc": [0.57424417, 0.27537575000000003, 0.925124699999999],
        "properties": { "magmom": -0.014 },
        "label": "Cl",
        "xyz": [3.7895733749526563, 1.435101648282411, 10.038115862804506]
      },
      {
        "species": [{ "element": "Cl", "occu": 1 }],
        "abc": [0.27530271, 0.92498994, 0.5746551],
        "properties": { "magmom": -0.014 },
        "label": "Cl",
        "xyz": [3.4955855312102373, 4.700640162425873, 9.10524807840661]
      },
      {
        "species": [{ "element": "Cl", "occu": 1 }],
        "abc": [0.07434692, 0.42296259, 0.72586584],
        "properties": { "magmom": -0.014 },
        "label": "Cl",
        "xyz": [1.343614353303116, 2.1615737664667667, 7.159202711683756]
      },
      {
        "species": [{ "element": "Cl", "occu": 1 }],
        "abc": [0.724681599999999, 0.0750271, 0.42534877],
        "properties": { "magmom": -0.014 },
        "label": "Cl",
        "xyz": [4.163008788876846, 0.4117627119923878, 6.3536232798909555]
      },
      {
        "species": [{ "element": "Cl", "occu": 1 }],
        "abc": [0.42576257, 0.72461248, 0.07488339000000001],
        "properties": { "magmom": -0.014 },
        "label": "Cl",
        "xyz": [3.869083655371926, 3.6771563227688926, 5.42075725580817]
      },
      {
        "species": [{ "element": "Cl", "occu": 1 }],
        "abc": [0.92566126, 0.57703216, 0.274127499999999],
        "properties": { "magmom": -0.014 },
        "label": "Cl",
        "xyz": [6.315063423311061, 2.950716773256617, 8.29960194581697]
      }
    ]
  },
  "task_ids": null,
  "uncorrected_energy_per_atom": null,
  "energy_per_atom": -9.66041548,
  "formation_energy_per_atom": -1.523692374374999,
  "energy_above_hull": 0.0,
  "is_stable": true,
  "equilibrium_reaction_energy_per_atom": null,
  "decomposes_to": null,
  "xas": null,
  "grain_boundaries": null,
  "band_gap": 0.0,
  "cbm": null,
  "vbm": null,
  "efermi": 1.5086869900000002,
  "is_gap_direct": null,
  "is_metal": null,
  "es_source_calc_id": null,
  "bandstructure": null,
  "dos": null,
  "dos_energy_up": null,
  "dos_energy_down": null,
  "is_magnetic": null,
  "ordering": null,
  "total_magnetization": 4.0000001,
  "total_magnetization_normalized_vol": null,
  "total_magnetization_normalized_formula_units": null,
  "num_magnetic_sites": null,
  "num_unique_magnetic_sites": null,
  "types_of_magnetic_species": null,
  "bulk_modulus": null,
  "shear_modulus": null,
  "universal_anisotropy": null,
  "homogeneous_poisson": null,
  "e_total": null,
  "e_ionic": null,
  "e_electronic": null,
  "n": null,
  "e_ij_max": null,
  "weighted_surface_energy_EV_PER_ANG2": null,
  "weighted_surface_energy": null,
  "weighted_work_function": null,
  "surface_anisotropy": null,
  "shape_factor": null,
  "has_reconstructed": null,
  "possible_species": null,
  "has_props": null,
  "theoretical": null,
  "database_IDs": null,
  "fields_not_requested": [
    "builder_meta",
    "nsites",
    "elements",
    "nelements",
    "composition",
    "composition_reduced",
    "chemsys",
    "symmetry",
    "property_name",
    "deprecated",
    "deprecation_reasons",
    "last_updated",
    "origins",
    "warnings",
    "task_ids",
    "uncorrected_energy_per_atom",
    "equilibrium_reaction_energy_per_atom",
    "decomposes_to",
    "xas",
    "grain_boundaries",
    "cbm",
    "vbm",
    "is_gap_direct",
    "is_metal",
    "es_source_calc_id",
    "bandstructure",
    "dos",
    "dos_energy_up",
    "dos_energy_down",
    "is_magnetic",
    "ordering",
    "total_magnetization_normalized_vol",
    "total_magnetization_normalized_formula_units",
    "num_magnetic_sites",
    "num_unique_magnetic_sites",
    "types_of_magnetic_species",
    "bulk_modulus",
    "shear_modulus",
    "universal_anisotropy",
    "homogeneous_poisson",
    "e_total",
    "e_ionic",
    "e_electronic",
    "n",
    "e_ij_max",
    "weighted_surface_energy_EV_PER_ANG2",
    "weighted_surface_energy",
    "weighted_work_function",
    "surface_anisotropy",
    "shape_factor",
    "has_reconstructed",
    "possible_species",
    "has_props",
    "theoretical",
    "database_IDs"
  ]
}
