{
  "builder_meta": null,
  "nsites": null,
  "elements": null,
  "nelements": null,
  "composition": null,
  "composition_reduced": null,
  "formula_pretty": "VCl4",
  "formula_anonymous": "AB4",
  "chemsys": null,
  "volume": 612.1020192689999,
  "density": 2.091642941195527,
  "density_atomic": 30.605100963449996,
  "symmetry": null,
  "property_name": null,
  "material_id": "mp-1205372",
  "deprecated": null,
  "deprecation_reasons": null,
  "last_updated": null,
  "origins": null,
  "warnings": null,
  "structure": {
    "@module": "pymatgen.core.structure",
    "@class": "Structure",
    "charge": 0,
    "lattice": {
      "matrix": [
        [6.50889442, -0.01805232, -0.021104440000000002],
        [-0.02562582, 9.77633601, -0.01964585],
        [-0.035981070000000004, 2.10362706, 9.61517505]
      ],
      "pbc": [true, true, true],
      "a": 6.508953668167583,
      "b": 9.77638933464168,
      "c": 9.842668981892315,
      "alpha": 77.77386528564739,
      "beta": 90.42489655879466,
      "gamma": 90.30871686662255,
      "volume": 612.1020192689999
    },
    "properties": {},
    "sites": [
      {
        "species": [{ "element": "V", "occu": 1 }],
        "abc": [0.07552256, 0.24841511, 0.63618651],
        "properties": { "magmom": 0.982 },
        "label": "V",
        "xyz": [0.4623118571246093, 3.7655253855437323, 6.110570470773616]
      },
      {
        "species": [{ "element": "V", "occu": 1 }],
        "abc": [0.57506032, 0.75086251, 0.864267599999999],
        "properties": { "magmom": 0.988 },
        "label": "V",
        "xyz": [3.6926681674710737, 9.148399732597296, 8.283196605781466]
      },
      {
        "species": [{ "element": "V", "occu": 1 }],
        "abc": [0.92447744, 0.7515848900000001, 0.36381349],
        "properties": { "magmom": 0.982 },
        "label": "V",
        "xyz": [5.9849756728753905, 8.096385364456268, 3.463854289226384]
      },
      {
        "species": [{ "element": "V", "occu": 1 }],
        "abc": [0.42493968, 0.24913749000000002, 0.1357324],
        "properties": { "magmom": 0.988 },
        "label": "V",
        "xyz": [2.7546193625289255, 2.713511017402701, 1.2912281542185242]
      },
      {
        "species": [{ "element": "Cl", "occu": 1 }],
        "abc": [0.38348708000000004, 0.3082143, 0.57604336],
        "properties": { "magmom": -0.014 },
        "label": "Cl",
        "xyz": [2.4674520145216725, 4.218064128232239, 5.5246093308138775]
      },
      {
        "species": [{ "element": "Cl", "occu": 1 }],
        "abc": [0.88428116, 0.68851717, 0.9190776700000001],
        "properties": { "magmom": -0.015 },
        "label": "Cl",
        "xyz": [5.70497949299009, 8.648608532957752, 8.80490391786754]
      },
      {
        "species": [{ "element": "Cl", "occu": 1 }],
        "abc": [0.61651292, 0.6917857, 0.42395664],
        "properties": { "magmom": -0.014 },
        "label": "Cl",
        "xyz": [3.9798355154783276, 7.64384662176776, 4.049815429186122]
      },
      {
        "species": [{ "element": "Cl", "occu": 1 }],
        "abc": [0.11571884, 0.31148283, 0.08092233],
        "properties": { "magmom": -0.015 },
        "label": "Cl",
        "xyz": [0.7423080370099092, 3.213302217042249, 0.7695208421324614]
      },
      {
        "species": [{ "element": "Cl", "occu": 1 }],
        "abc": [0.92693623, 0.19571615, 0.45976638000000003],
        "properties": { "magmom": -0.014 },
        "label": "Cl",
        "xyz": [6.011771782009417, 2.8638304937862507, 4.3973267456294804]
      },
      {
        "species": [{ "element": "Cl", "occu": 1 }],
        "abc": [0.41888889, 0.80878269, 0.03384709],
        "properties": { "magmom": -0.016 },
        "label": "Cl",
        "xyz": [2.704559984573352, 7.970571074651198, 0.3007160564270964]
      },
      {
        "species": [{ "element": "Cl", "occu": 1 }],
        "abc": [0.07306377, 0.80428385, 0.54023362],
        "properties": { "magmom": -0.014 },
        "label": "Cl",
        "xyz": [0.435515747990583, 8.998080256213749, 5.177098014370519]
      },
      {
        "species": [{ "element": "Cl", "occu": 1 }],
        "abc": [0.58111111, 0.19121731, 0.96615291],
        "properties": { "magmom": -0.016 },
        "label": "Cl",
        "xyz": [3.742727545426648, 3.8913396753488025, 9.273708703572904]
      },
      {
        "species": [{ "element": "Cl", "occu": 1 }],
        "abc": [0.91953873, 0.41602765, 0.69993421],
        "properties": { "magmom": -0.015 },
        "label": "Cl",
        "xyz": [5.949335077191559, 5.523026832820046, 6.7024103858707464]
      },
      {
        "species": [{ "element": "Cl", "occu": 1 }],
        "abc": [0.4255595, 0.57714775, 0.80450426],
        "properties": { "magmom": -0.014 },
        "label": "Cl",
        "xyz": [2.7261850464787267, 7.327084926363713, 7.715129535312195]
      },
      {
        "species": [{ "element": "Cl", "occu": 1 }],
        "abc": [0.08046127, 0.58397235, 0.30006579],
        "properties": { "magmom": -0.015 },
        "label": "Cl",
        "xyz": [0.4979524528084411, 6.338883917179955, 2.872014374129253]
      },
      {
        "species": [{ "element": "Cl", "occu": 1 }],
        "abc": [0.5744405, 0.42285225, 0.19549574],
        "properties": { "magmom": -0.014 },
        "label": "Cl",
        "xyz": [3.7211024835212734, 4.534825823636287, 1.8592952246878043]
      },
      {
        "species": [{ "element": "Cl", "occu": 1 }],
        "abc": [0.07126983, 0.0747762, 0.8097264200000001],
        "properties": { "magmom": -0.015 },
        "label": "Cl",
        "xyz": [0.4328367743609952, 2.4331130792823816, 7.782688119050006]
      },
      {
        "species": [{ "element": "Cl", "occu": 1 }],
        "abc": [0.56722701, 0.9297865, 0.69617596],
        "properties": { "magmom": -0.015 },
        "label": "Cl",
        "xyz": [3.6431450228257765, 10.54416006604218, 6.663616266491848]
      },
      {
        "species": [{ "element": "Cl", "occu": 1 }],
        "abc": [0.92873017, 0.925223799999999, 0.19027358],
        "properties": { "magmom": -0.015 },
        "label": "Cl",
        "xyz": [6.014450755639005, 9.428797670717609, 1.7917366409499942]
      },
      {
        "species": [{ "element": "Cl", "occu": 1 }],
        "abc": [0.43277299, 0.0702135, 0.30382404],
        "properties": { "magmom": -0.015 },
        "label": "Cl",
        "xyz": [2.804142507174223, 1.3177506839578206, 2.910808493508151]
      }
    ]
  },
  "task_ids": null,
  "uncorrected_energy_per_atom": null,
  "energy_per_atom": -9.0379262025,
  "formation_energy_per_atom": -1.2980599385,
  "energy_above_hull": 0.0,
  "is_stable": true,
  "equilibrium_reaction_energy_per_atom": null,
  "decomposes_to": null,
  "xas": null,
  "grain_boundaries": null,
  "band_gap": 0.0,
  "cbm": null,
  "vbm": null,
  "efermi": -0.3144802,
  "is_gap_direct": null,
  "is_metal": null,
  "es_source_calc_id": null,
  "bandstructure": null,
  "dos": null,
  "dos_energy_up": null,
  "dos_energy_down": null,
  "is_magnetic": null,
  "ordering": null,
  "total_magnetization": 4.0000001,
  "total_magnetization_normalized_vol": null,
  "total_magnetization_normalized_formula_units": null,
  "num_magnetic_sites": null,
  "num_unique_magnetic_sites": null,
  "types_of_magnetic_species": null,
  "bulk_modulus": null,
  "shear_modulus": null,
  "universal_anisotropy": null,
  "homogeneous_poisson": null,
  "e_total": null,
  "e_ionic": null,
  "e_electronic": null,
  "n": null,
  "e_ij_max": null,
  "weighted_surface_energy_EV_PER_ANG2": null,
  "weighted_surface_energy": null,
  "weighted_work_function": null,
  "surface_anisotropy": null,
  "shape_factor": null,
  "has_reconstructed": null,
  "possible_species": null,
  "has_props": null,
  "theoretical": null,
  "database_IDs": null,
  "fields_not_requested": [
    "builder_meta",
    "nsites",
    "elements",
    "nelements",
    "composition",
    "composition_reduced",
    "chemsys",
    "symmetry",
    "property_name",
    "deprecated",
    "deprecation_reasons",
    "last_updated",
    "origins",
    "warnings",
    "task_ids",
    "uncorrected_energy_per_atom",
    "equilibrium_reaction_energy_per_atom",
    "decomposes_to",
    "xas",
    "grain_boundaries",
    "cbm",
    "vbm",
    "is_gap_direct",
    "is_metal",
    "es_source_calc_id",
    "bandstructure",
    "dos",
    "dos_energy_up",
    "dos_energy_down",
    "is_magnetic",
    "ordering",
    "total_magnetization_normalized_vol",
    "total_magnetization_normalized_formula_units",
    "num_magnetic_sites",
    "num_unique_magnetic_sites",
    "types_of_magnetic_species",
    "bulk_modulus",
    "shear_modulus",
    "universal_anisotropy",
    "homogeneous_poisson",
    "e_total",
    "e_ionic",
    "e_electronic",
    "n",
    "e_ij_max",
    "weighted_surface_energy_EV_PER_ANG2",
    "weighted_surface_energy",
    "weighted_work_function",
    "surface_anisotropy",
    "shape_factor",
    "has_reconstructed",
    "possible_species",
    "has_props",
    "theoretical",
    "database_IDs"
  ]
}
