{"builder_meta": null, "nsites": null, "elements": null, "nelements": null, "composition": null, "composition_reduced": null, "formula_pretty": "VCl5", "formula_anonymous": "AB5", "chemsys": null, "volume": 302.6127924111765, "density": 2.504492989094516, "density_atomic": 25.217732700931375, "symmetry": null, "property_name": null, "material_id": "mp-1101909", "deprecated": null, "deprecation_reasons": null, "last_updated": null, "origins": null, "warnings": null, "structure": {"@module": "pymatgen.core.structure", "@class": "Structure", "charge": 0, "lattice": {"matrix": [[6.12304086, 0.0039974, -0.09537258], [-2.96387492, 5.52876544, -2.15649894], [0.0067036, -0.031881150000000004, 8.94852919]], "pbc": [true, true, true], "a": 6.123784882035958, "b": 6.6334221567878915, "c": 8.948588492620518, "alpha": 109.17156695352209, "beta": 90.84957357961792, "gamma": 116.17714455328391, "volume": 302.6127924111765}, "properties": {}, "sites": [{"species": [{"element": "V", "occu": 1}], "abc": [0.39429586, 0.27857084, 0.27820894], "properties": {"magmom": -0.0}, "label": "V", "xyz": [1.5905055370396908, 1.5328593701070525, 1.8512180858825307]}, {"species": [{"element": "V", "occu": 1}], "abc": [0.6057041400000001, 0.72142916, 0.72179106], "properties": {"magmom": -0.0}, "label": "V", "xyz": [1.5753640029603095, 3.9680223198929476, 4.84543958411747]}, {"species": [{"element": "Cl", "occu": 1}], "abc": [0.73332724, 0.67916684, 0.45716784], "properties": {"magmom": 0.0}, "label": "Cl", "xyz": [2.4802917610315975, 3.7433105188129696, 2.5564178795630204]}, {"species": [{"element": "Cl", "occu": 1}], "abc": [0.26667276, 0.32083316, 0.54283216], "properties": {"magmom": 0.0}, "label": "Cl", "xyz": [0.6855777789684023, 1.7575711711870303, 4.14023979043698]}, {"species": [{"element": "Cl", "occu": 1}], "abc": [0.61509672, 0.12817166, 0.35030548], "properties": {"magmom": -0.0}, "label": "Cl", "xyz": [3.38872588869894, 0.6999216902702563, 2.799653403132983]}, {"species": [{"element": "Cl", "occu": 1}], "abc": [0.38490328, 0.87182834, 0.64969452], "properties": {"magmom": -0.0}, "label": "Cl", "xyz": [-0.2228563486989399, 4.800959999729743, 3.8970042668670177]}, {"species": [{"element": "Cl", "occu": 1}], "abc": [0.57240827, 0.31843784, 0.07594192], "properties": {"magmom": 0.0}, "label": "Cl", "xyz": [2.5615783825118514, 1.7604351536559397, -0.06173443007448154]}, {"species": [{"element": "Cl", "occu": 1}], "abc": [0.42759173, 0.68156216, 0.92405808], "properties": {"magmom": 0.0}, "label": "Cl", "xyz": [0.6042911574881484, 3.7404465363440607, 6.758392100074482]}, {"species": [{"element": "Cl", "occu": 1}], "abc": [0.20141518, 0.483327099999999, 0.25305833], "properties": {"magmom": 0.0}, "label": "Cl", "xyz": [-0.19755129106108632, 2.6649395131584708, 1.2029959885866164]}, {"species": [{"element": "Cl", "occu": 1}], "abc": [0.79858482, 0.5166729, 0.74694167], "properties": {"magmom": 0.0}, "label": "Cl", "xyz": [3.363420831061089, 2.835942176841523, 5.493661681413386]}, {"species": [{"element": "Cl", "occu": 1}], "abc": [0.06697392, 0.9333092900000001, 0.1728982], "properties": {"magmom": -0.0}, "label": "Cl", "xyz": [-2.3549689081461156, 5.154803675481816, -0.47188338052180834]}, {"species": [{"element": "Cl", "occu": 1}], "abc": [0.93302608, 0.06669071, 0.8271018], "properties": {"magmom": -0.0}, "label": "Cl", "xyz": [5.520838448146114, 0.3460780145181844, 7.168541050521809]}]}, "task_ids": null, "uncorrected_energy_per_atom": null, "energy_per_atom": -8.560003154166667, "formation_energy_per_atom": -1.084708117916666, "energy_above_hull": 0.0, "is_stable": true, "equilibrium_reaction_energy_per_atom": null, "decomposes_to": null, "xas": null, "grain_boundaries": null, "band_gap": 1.0398, "cbm": null, "vbm": null, "efermi": -0.88015578, "is_gap_direct": null, "is_metal": null, "es_source_calc_id": null, "bandstructure": null, "dos": null, "dos_energy_up": null, "dos_energy_down": null, "is_magnetic": null, "ordering": null, "total_magnetization": 0.0, "total_magnetization_normalized_vol": null, "total_magnetization_normalized_formula_units": null, "num_magnetic_sites": null, "num_unique_magnetic_sites": null, "types_of_magnetic_species": null, "bulk_modulus": null, "shear_modulus": null, "universal_anisotropy": null, "homogeneous_poisson": null, "e_total": null, "e_ionic": null, "e_electronic": null, "n": null, "e_ij_max": null, "weighted_surface_energy_EV_PER_ANG2": null, "weighted_surface_energy": null, "weighted_work_function": null, "surface_anisotropy": null, "shape_factor": null, "has_reconstructed": null, "possible_species": null, "has_props": null, "theoretical": null, "database_IDs": null, "fields_not_requested": ["builder_meta", "nsites", "elements", "nelements", "composition", "composition_reduced", "chemsys", "symmetry", "property_name", "deprecated", "deprecation_reasons", "last_updated", "origins", "warnings", "task_ids", "uncorrected_energy_per_atom", "equilibrium_reaction_energy_per_atom", "decomposes_to", "xas", "grain_boundaries", "cbm", "vbm", "is_gap_direct", "is_metal", "es_source_calc_id", "bandstructure", "dos", "dos_energy_up", "dos_energy_down", "is_magnetic", "ordering", "total_magnetization_normalized_vol", "total_magnetization_normalized_formula_units", "num_magnetic_sites", "num_unique_magnetic_sites", "types_of_magnetic_species", "bulk_modulus", "shear_modulus", "universal_anisotropy", "homogeneous_poisson", "e_total", "e_ionic", "e_electronic", "n", "e_ij_max", "weighted_surface_energy_EV_PER_ANG2", "weighted_surface_energy", "weighted_work_function", "surface_anisotropy", "shape_factor", "has_reconstructed", "possible_species", "has_props", "theoretical", "database_IDs"]}