{
  "builder_meta": null,
  "nsites": null,
  "elements": null,
  "nelements": null,
  "composition": null,
  "composition_reduced": null,
  "formula_pretty": "VCo3",
  "formula_anonymous": "AB3",
  "chemsys": null,
  "volume": 252.23391556287734,
  "density": 8.995768103629969,
  "density_atomic": 10.509746481786555,
  "symmetry": null,
  "property_name": null,
  "material_id": "mp-542614",
  "deprecated": null,
  "deprecation_reasons": null,
  "last_updated": null,
  "origins": null,
  "warnings": null,
  "structure": {
    "@module": "pymatgen.core.structure",
    "@class": "Structure",
    "charge": 0,
    "lattice": {
      "matrix": [
        [4.92422969, 5.42e-6, 2.589999999999999e-6],
        [-2.46210981, 4.26449476, 3.0000000000000004e-8],
        [6.329999999999999e-6, 3.74e-6, 12.01150201]
      ],
      "pbc": [true, true, true],
      "a": 4.9242296900036635,
      "b": 4.924215701466142,
      "c": 12.01150201000225,
      "alpha": 89.99999929827507,
      "beta": 89.99993966950319,
      "gamma": 119.99996325949074,
      "volume": 252.23391556287737
    },
    "properties": {},
    "sites": [
      {
        "species": [{ "element": "V", "occu": 1 }],
        "abc": [4.599999999999998e-7, -1.08e-6, -2.67e-6],
        "properties": { "magmom": -0.002 },
        "label": "V",
        "xyz": [4.9242073510999985e-6, -4.6056618334e-6, -3.2070709207699996e-5]
      },
      {
        "species": [{ "element": "V", "occu": 1 }],
        "abc": [-0.0, 1.32e-6, 0.5000035700000001],
        "properties": { "magmom": -0.002 },
        "label": "V",
        "xyz": [-8.496235110000023e-8, 7.499146435000001e-6, 6.005793886062216]
      },
      {
        "species": [{ "element": "V", "occu": 1 }],
        "abc": [0.33333328, 0.66666594, 0.33897341000000003],
        "properties": { "magmom": -0.001 },
        "label": "V",
        "xyz": [7.028875896956183e-6, 2.842996482227405, 4.071580678884728]
      },
      {
        "species": [{ "element": "V", "occu": 1 }],
        "abc": [0.33333212, 0.66666524, 0.6610296800000001],
        "properties": { "magmom": -0.001 },
        "label": "V",
        "xyz": [5.07886251276347e-6, 2.842994701565236, 7.939960213319805]
      },
      {
        "species": [{ "element": "V", "occu": 1 }],
        "abc": [0.66666795, 0.33333494, 0.16103176],
        "properties": { "magmom": -0.001 },
        "label": "V",
        "xyz": [2.462119906302715, 1.421509320553986, 1.9342350455838762]
      },
      {
        "species": [{ "element": "V", "occu": 1 }],
        "abc": [0.66666963, 0.33333571, 0.83896448],
        "properties": { "magmom": -0.001 },
        "label": "V",
        "xyz": [2.462130574498158, 1.4215151396924293, 10.077225274513017]
      },
      {
        "species": [{ "element": "Co", "occu": 1 }],
        "abc": [0.49534284, 0.50465325, 5.68e-6],
        "properties": { "magmom": 0.001 },
        "label": "Co",
        "xyz": [1.1966702020194913, 2.1520938250214057, 6.952340896989998e-5]
      },
      {
        "species": [{ "element": "Co", "occu": 1 }],
        "abc": [0.009313430000000001, 0.50465609, 5.86e-6],
        "properties": { "magmom": 0.001 },
        "label": "Co",
        "xyz": [-1.1966572413064123, 2.152103301907795, 7.042666324499998e-5]
      },
      {
        "species": [{ "element": "Co", "occu": 1 }],
        "abc": [0.49534317, 0.9906897800000001, 5.719999999999999e-6],
        "properties": { "magmom": 0.001 },
        "label": "Co",
        "xyz": [-3.481515817297638e-6, 4.224794060376927, 7.001845100089998e-5]
      },
      {
        "species": [{ "element": "Co", "occu": 1 }],
        "abc": [0.50465693, 0.49534718, 0.49999341],
        "properties": { "magmom": 0.001 },
        "label": "Co",
        "xyz": [1.2654506516947008, 2.1124100587066907, 6.005673171123618]
      },
      {
        "species": [{ "element": "Co", "occu": 1 }],
        "abc": [0.9906873700000001, 0.49534459000000003, 0.49999361000000003],
        "properties": { "magmom": 0.001 },
        "label": "Co",
        "xyz": [3.6587825514521386, 2.1124016479509953, 6.005676832242782]
      },
      {
        "species": [{ "element": "Co", "occu": 1 }],
        "abc": [0.50465618, 0.00930929, 0.49999343],
        "properties": { "magmom": 0.001 },
        "label": "Co",
        "xyz": [2.462125615523261, 0.039704023636244194, 6.005673396770579]
      },
      {
        "species": [{ "element": "Co", "occu": 1 }],
        "abc": [0.16617996000000002, 0.83381739, 0.16753411],
        "properties": { "magmom": 0.001 },
        "label": "Co",
        "xyz": [-1.2346406222616675, 3.555811417724831, 2.012336754429179]
      },
      {
        "species": [{ "element": "Co", "occu": 1 }],
        "abc": [0.66763722, 0.8338183, 0.8324717500000001],
        "properties": { "magmom": 0.002 },
        "label": "Co",
        "xyz": [1.2346520742317162, 3.5558205031801853, 9.999237852588166]
      },
      {
        "species": [{ "element": "Co", "occu": 1 }],
        "abc": [0.16618134, 0.33236514, 0.8324731200000001],
        "properties": { "magmom": 0.002 },
        "label": "Co",
        "xyz": [8.862108108613649e-7, 1.417373412088998, 9.999252994531595]
      },
      {
        "species": [{ "element": "Co", "occu": 1 }],
        "abc": [0.16617977, 0.33236238, 0.16753407],
        "properties": { "magmom": 0.001 },
        "label": "Co",
        "xyz": [-4.258470913417012e-6, 1.417359155202904, 2.0123362589249565]
      },
      {
        "species": [{ "element": "Co", "occu": 1 }],
        "abc": [0.66763815, 0.8338187300000001, 0.16753459],
        "properties": { "magmom": 0.001 },
        "label": "Co",
        "xyz": [1.234651386005887, 3.5558198500529947, 2.0123438187268965]
      },
      {
        "species": [{ "element": "Co", "occu": 1 }],
        "abc": [0.16618158, 0.83381623, 0.8324731],
        "properties": { "magmom": 0.002 },
        "label": "Co",
        "xyz": [-1.2346255798983832, 3.5558089577915126, 9.99925276934571]
      },
      {
        "species": [{ "element": "Co", "occu": 1 }],
        "abc": [0.83381876, 0.16618226, 0.33245742],
        "properties": { "magmom": 0.001 },
        "label": "Co",
        "xyz": [3.6967582259324825, 0.7086891396633875, 3.99331513314547]
      },
      {
        "species": [{ "element": "Co", "occu": 1 }],
        "abc": [0.33236242, 0.16618131, 0.6675381],
        "properties": { "magmom": 0.002 },
        "label": "Co",
        "xyz": [1.2274764883307716, 0.7086836237017459, 8.018136095705689]
      },
      {
        "species": [{ "element": "Co", "occu": 1 }],
        "abc": [0.83381857, 0.66763594, 0.66753714],
        "properties": { "magmom": 0.002 },
        "label": "Co",
        "xyz": [2.462125386594868, 2.847136983603227, 8.018125878478825]
      },
      {
        "species": [{ "element": "Co", "occu": 1 }],
        "abc": [0.83381938, 0.66763689, 0.33245733],
        "properties": { "magmom": 0.001 },
        "label": "Co",
        "xyz": [2.4621249151613998, 2.84713978167915, 3.993314067155534]
      },
      {
        "species": [{ "element": "Co", "occu": 1 }],
        "abc": [0.33236141, 0.16618072, 0.33245624],
        "properties": { "magmom": 0.001 },
        "label": "Co",
        "xyz": [1.227470846435399, 0.7086798544382069, 3.993299660798516]
      },
      {
        "species": [{ "element": "Co", "occu": 1 }],
        "abc": [0.83381807, 0.16618245, 0.66753708],
        "properties": { "magmom": 0.002 },
        "label": "Co",
        "xyz": [3.69675648146738, 0.7086912031115806, 8.018125142743806]
      }
    ]
  },
  "task_ids": null,
  "uncorrected_energy_per_atom": null,
  "energy_per_atom": -13.4375452425,
  "formation_energy_per_atom": 0.010522037499998001,
  "energy_above_hull": 0.08504460749999801,
  "is_stable": false,
  "equilibrium_reaction_energy_per_atom": null,
  "decomposes_to": null,
  "xas": null,
  "grain_boundaries": null,
  "band_gap": 0.0,
  "cbm": null,
  "vbm": null,
  "efermi": 6.15204421,
  "is_gap_direct": null,
  "is_metal": null,
  "es_source_calc_id": null,
  "bandstructure": null,
  "dos": null,
  "dos_energy_up": null,
  "dos_energy_down": null,
  "is_magnetic": null,
  "ordering": null,
  "total_magnetization": 0.015769,
  "total_magnetization_normalized_vol": null,
  "total_magnetization_normalized_formula_units": null,
  "num_magnetic_sites": null,
  "num_unique_magnetic_sites": null,
  "types_of_magnetic_species": null,
  "bulk_modulus": null,
  "shear_modulus": null,
  "universal_anisotropy": null,
  "homogeneous_poisson": null,
  "e_total": null,
  "e_ionic": null,
  "e_electronic": null,
  "n": null,
  "e_ij_max": null,
  "weighted_surface_energy_EV_PER_ANG2": null,
  "weighted_surface_energy": null,
  "weighted_work_function": null,
  "surface_anisotropy": null,
  "shape_factor": null,
  "has_reconstructed": null,
  "possible_species": null,
  "has_props": null,
  "theoretical": null,
  "database_IDs": null,
  "fields_not_requested": [
    "builder_meta",
    "nsites",
    "elements",
    "nelements",
    "composition",
    "composition_reduced",
    "chemsys",
    "symmetry",
    "property_name",
    "deprecated",
    "deprecation_reasons",
    "last_updated",
    "origins",
    "warnings",
    "task_ids",
    "uncorrected_energy_per_atom",
    "equilibrium_reaction_energy_per_atom",
    "decomposes_to",
    "xas",
    "grain_boundaries",
    "cbm",
    "vbm",
    "is_gap_direct",
    "is_metal",
    "es_source_calc_id",
    "bandstructure",
    "dos",
    "dos_energy_up",
    "dos_energy_down",
    "is_magnetic",
    "ordering",
    "total_magnetization_normalized_vol",
    "total_magnetization_normalized_formula_units",
    "num_magnetic_sites",
    "num_unique_magnetic_sites",
    "types_of_magnetic_species",
    "bulk_modulus",
    "shear_modulus",
    "universal_anisotropy",
    "homogeneous_poisson",
    "e_total",
    "e_ionic",
    "e_electronic",
    "n",
    "e_ij_max",
    "weighted_surface_energy_EV_PER_ANG2",
    "weighted_surface_energy",
    "weighted_work_function",
    "surface_anisotropy",
    "shape_factor",
    "has_reconstructed",
    "possible_species",
    "has_props",
    "theoretical",
    "database_IDs"
  ]
}
