{
  "builder_meta": null,
  "nsites": null,
  "elements": null,
  "nelements": null,
  "composition": null,
  "composition_reduced": null,
  "formula_pretty": "VCr3",
  "formula_anonymous": "AB3",
  "chemsys": null,
  "volume": 46.91682449179604,
  "density": 7.323918885512163,
  "density_atomic": 11.72920612294901,
  "symmetry": null,
  "property_name": null,
  "material_id": "mp-1187696",
  "deprecated": null,
  "deprecation_reasons": null,
  "last_updated": null,
  "origins": null,
  "warnings": null,
  "structure": {
    "@module": "pymatgen.core.structure",
    "@class": "Structure",
    "charge": 0,
    "lattice": {
      "matrix": [
        [1.2150000000000002e-5, 2.8626425600000003, 2.86264264],
        [2.86264251, 1.216e-5, 2.86264262],
        [2.86264254, 2.86264258, 1.2130000000000002e-5]
      ],
      "pbc": [true, true, true],
      "a": 4.048387989165212,
      "b": 4.0483879396677676,
      "c": 4.048387932596609,
      "alpha": 59.99972017951168,
      "beta": 59.999719659509516,
      "gamma": 59.999717983940236,
      "volume": 46.91682449179604
    },
    "properties": {},
    "sites": [
      {
        "species": [{ "element": "V", "occu": 1 }],
        "abc": [0.74999944, 0.74999941, 0.74999941],
        "properties": { "magmom": -0.002 },
        "label": "V",
        "xyz": [4.293969522075017, 4.29396968295387, 4.29396975045382]
      },
      {
        "species": [{ "element": "Cr", "occu": 1 }],
        "abc": [-8e-8, -7e-8, -7e-8],
        "properties": { "magmom": 0.004 },
        "label": "Cr",
        "xyz": [
          -4.0077092550000003e-7, -4.293972366000001e-7, -4.2939724369999996e-7
        ]
      },
      {
        "species": [{ "element": "Cr", "occu": 1 }],
        "abc": [0.50000061, 0.50000061, 0.50000061],
        "properties": { "magmom": 0.004 },
        "label": "Cr",
        "xyz": [2.8626520924312917, 2.8626521424313527, 2.862652187431408]
      },
      {
        "species": [{ "element": "Cr", "occu": 1 }],
        "abc": [0.25000003, 0.25000005000000003, 0.25000005000000003],
        "properties": { "magmom": -0.004 },
        "label": "Cr",
        "xyz": [1.4313245862646171, 1.431324554012014, 1.4313245765120166]
      }
    ]
  },
  "task_ids": null,
  "uncorrected_energy_per_atom": null,
  "energy_per_atom": -14.693030072500001,
  "formation_energy_per_atom": 0.13437065250000102,
  "energy_above_hull": 0.13437065250000102,
  "is_stable": false,
  "equilibrium_reaction_energy_per_atom": null,
  "decomposes_to": null,
  "xas": null,
  "grain_boundaries": null,
  "band_gap": 0.0,
  "cbm": null,
  "vbm": null,
  "efermi": 6.65549188,
  "is_gap_direct": null,
  "is_metal": null,
  "es_source_calc_id": null,
  "bandstructure": null,
  "dos": null,
  "dos_energy_up": null,
  "dos_energy_down": null,
  "is_magnetic": null,
  "ordering": null,
  "total_magnetization": 0.0009714,
  "total_magnetization_normalized_vol": null,
  "total_magnetization_normalized_formula_units": null,
  "num_magnetic_sites": null,
  "num_unique_magnetic_sites": null,
  "types_of_magnetic_species": null,
  "bulk_modulus": null,
  "shear_modulus": null,
  "universal_anisotropy": null,
  "homogeneous_poisson": null,
  "e_total": null,
  "e_ionic": null,
  "e_electronic": null,
  "n": null,
  "e_ij_max": null,
  "weighted_surface_energy_EV_PER_ANG2": null,
  "weighted_surface_energy": null,
  "weighted_work_function": null,
  "surface_anisotropy": null,
  "shape_factor": null,
  "has_reconstructed": null,
  "possible_species": null,
  "has_props": null,
  "theoretical": null,
  "database_IDs": null,
  "fields_not_requested": [
    "builder_meta",
    "nsites",
    "elements",
    "nelements",
    "composition",
    "composition_reduced",
    "chemsys",
    "symmetry",
    "property_name",
    "deprecated",
    "deprecation_reasons",
    "last_updated",
    "origins",
    "warnings",
    "task_ids",
    "uncorrected_energy_per_atom",
    "equilibrium_reaction_energy_per_atom",
    "decomposes_to",
    "xas",
    "grain_boundaries",
    "cbm",
    "vbm",
    "is_gap_direct",
    "is_metal",
    "es_source_calc_id",
    "bandstructure",
    "dos",
    "dos_energy_up",
    "dos_energy_down",
    "is_magnetic",
    "ordering",
    "total_magnetization_normalized_vol",
    "total_magnetization_normalized_formula_units",
    "num_magnetic_sites",
    "num_unique_magnetic_sites",
    "types_of_magnetic_species",
    "bulk_modulus",
    "shear_modulus",
    "universal_anisotropy",
    "homogeneous_poisson",
    "e_total",
    "e_ionic",
    "e_electronic",
    "n",
    "e_ij_max",
    "weighted_surface_energy_EV_PER_ANG2",
    "weighted_surface_energy",
    "weighted_work_function",
    "surface_anisotropy",
    "shape_factor",
    "has_reconstructed",
    "possible_species",
    "has_props",
    "theoretical",
    "database_IDs"
  ]
}
