{
  "builder_meta": null,
  "nsites": null,
  "elements": null,
  "nelements": null,
  "composition": null,
  "composition_reduced": null,
  "formula_pretty": "VF2",
  "formula_anonymous": "AB2",
  "chemsys": null,
  "volume": 74.3993170100947,
  "density": 3.970077635911695,
  "density_atomic": 12.399886168349118,
  "symmetry": null,
  "property_name": null,
  "material_id": "mp-555934",
  "deprecated": null,
  "deprecation_reasons": null,
  "last_updated": null,
  "origins": null,
  "warnings": null,
  "structure": {
    "@module": "pymatgen.core.structure",
    "@class": "Structure",
    "charge": 0,
    "lattice": {
      "matrix": [
        [3.259353759999999, 0.0, 0.0],
        [0.0, 4.77769833, 8e-6],
        [0.0, 8e-6, 4.77769833]
      ],
      "pbc": [true, true, true],
      "a": 3.259353759999999,
      "b": 4.7776983300066975,
      "c": 4.7776983300066975,
      "alpha": 89.99980812257097,
      "beta": 90.0,
      "gamma": 90.0,
      "volume": 74.39931701009468
    },
    "properties": {},
    "sites": [
      {
        "species": [{ "element": "V", "occu": 1 }],
        "abc": [0.5, 0.5, 0.5],
        "properties": { "magmom": 2.711999999999999 },
        "label": "V",
        "xyz": [1.6296768799999994, 2.388853165, 2.388853165]
      },
      {
        "species": [{ "element": "V", "occu": 1 }],
        "abc": [-0.0, -0.0, 0.0],
        "properties": { "magmom": 2.711999999999999 },
        "label": "V",
        "xyz": [0.0, 0.0, 0.0]
      },
      {
        "species": [{ "element": "F", "occu": 1 }],
        "abc": [-0.0, 0.6937156, 0.6937156],
        "properties": { "magmom": 0.022 },
        "label": "F",
        "xyz": [0.0, 3.314369413339748, 3.314369413339748]
      },
      {
        "species": [{ "element": "F", "occu": 1 }],
        "abc": [0.5, 0.80628623, 0.19371377],
        "properties": { "magmom": 0.022 },
        "label": "F",
        "xyz": [1.6296768799999994, 3.852193924283156, 0.9255124057168441]
      },
      {
        "species": [{ "element": "F", "occu": 1 }],
        "abc": [0.0, 0.3062844, 0.3062844],
        "properties": { "magmom": 0.022 },
        "label": "F",
        "xyz": [0.0, 1.4633369166602521, 1.4633369166602521]
      },
      {
        "species": [{ "element": "F", "occu": 1 }],
        "abc": [0.5, 0.19371377, 0.80628623],
        "properties": { "magmom": 0.022 },
        "label": "F",
        "xyz": [1.6296768799999994, 0.9255124057168441, 3.852193924283156]
      }
    ]
  },
  "task_ids": null,
  "uncorrected_energy_per_atom": null,
  "energy_per_atom": -9.797189281666666,
  "formation_energy_per_atom": -3.0166454050000002,
  "energy_above_hull": 0.0,
  "is_stable": true,
  "equilibrium_reaction_energy_per_atom": null,
  "decomposes_to": null,
  "xas": null,
  "grain_boundaries": null,
  "band_gap": 0.0,
  "cbm": null,
  "vbm": null,
  "efermi": 4.04948861,
  "is_gap_direct": null,
  "is_metal": null,
  "es_source_calc_id": null,
  "bandstructure": null,
  "dos": null,
  "dos_energy_up": null,
  "dos_energy_down": null,
  "is_magnetic": null,
  "ordering": null,
  "total_magnetization": 6.0000005,
  "total_magnetization_normalized_vol": null,
  "total_magnetization_normalized_formula_units": null,
  "num_magnetic_sites": null,
  "num_unique_magnetic_sites": null,
  "types_of_magnetic_species": null,
  "bulk_modulus": null,
  "shear_modulus": null,
  "universal_anisotropy": null,
  "homogeneous_poisson": null,
  "e_total": null,
  "e_ionic": null,
  "e_electronic": null,
  "n": null,
  "e_ij_max": null,
  "weighted_surface_energy_EV_PER_ANG2": null,
  "weighted_surface_energy": null,
  "weighted_work_function": null,
  "surface_anisotropy": null,
  "shape_factor": null,
  "has_reconstructed": null,
  "possible_species": null,
  "has_props": null,
  "theoretical": null,
  "database_IDs": null,
  "fields_not_requested": [
    "builder_meta",
    "nsites",
    "elements",
    "nelements",
    "composition",
    "composition_reduced",
    "chemsys",
    "symmetry",
    "property_name",
    "deprecated",
    "deprecation_reasons",
    "last_updated",
    "origins",
    "warnings",
    "task_ids",
    "uncorrected_energy_per_atom",
    "equilibrium_reaction_energy_per_atom",
    "decomposes_to",
    "xas",
    "grain_boundaries",
    "cbm",
    "vbm",
    "is_gap_direct",
    "is_metal",
    "es_source_calc_id",
    "bandstructure",
    "dos",
    "dos_energy_up",
    "dos_energy_down",
    "is_magnetic",
    "ordering",
    "total_magnetization_normalized_vol",
    "total_magnetization_normalized_formula_units",
    "num_magnetic_sites",
    "num_unique_magnetic_sites",
    "types_of_magnetic_species",
    "bulk_modulus",
    "shear_modulus",
    "universal_anisotropy",
    "homogeneous_poisson",
    "e_total",
    "e_ionic",
    "e_electronic",
    "n",
    "e_ij_max",
    "weighted_surface_energy_EV_PER_ANG2",
    "weighted_surface_energy",
    "weighted_work_function",
    "surface_anisotropy",
    "shape_factor",
    "has_reconstructed",
    "possible_species",
    "has_props",
    "theoretical",
    "database_IDs"
  ]
}
