{
  "builder_meta": null,
  "nsites": null,
  "elements": null,
  "nelements": null,
  "composition": null,
  "composition_reduced": null,
  "formula_pretty": "VF3",
  "formula_anonymous": "AB3",
  "chemsys": null,
  "volume": 99.16001073786146,
  "density": 3.61502830984717,
  "density_atomic": 12.395001342232682,
  "symmetry": null,
  "property_name": null,
  "material_id": "mp-559931",
  "deprecated": null,
  "deprecation_reasons": null,
  "last_updated": null,
  "origins": null,
  "warnings": null,
  "structure": {
    "@module": "pymatgen.core.structure",
    "@class": "Structure",
    "charge": 0,
    "lattice": {
      "matrix": [
        [0.78941676, 4.50947621, 8.21769428],
        [-3.41488009, 4.19442604, 5.00214833],
        [-1.17558344, -4.34467848, -2.88188063]
      ],
      "pbc": [true, true, true],
      "a": 9.406862058575621,
      "b": 7.367231756191078,
      "c": 5.344479720660051,
      "alpha": 136.63471106109245,
      "beta": 151.54857862642103,
      "gamma": 34.19080911572903,
      "volume": 99.16001073786146
    },
    "properties": {},
    "sites": [
      {
        "species": [{ "element": "V", "occu": 1 }],
        "abc": [-4.5e-7, 0.5000002100000001, 9.5e-7],
        "properties": { "magmom": 1.873 },
        "label": "V",
        "xyz": [-1.707442234166629, 2.097207744120618, 2.501068779702125]
      },
      {
        "species": [{ "element": "V", "occu": 1 }],
        "abc": [3.4e-7, -1.79e-6, -2.029999999999998e-6],
        "properties": { "magmom": 1.873 },
        "label": "V",
        "xyz": [
          8.767471442699999e-6, 2.84489661419999e-6, -3.0961177660000586e-7
        ]
      },
      {
        "species": [{ "element": "F", "occu": 1 }],
        "abc": [0.50541146, 0.37020676, 0.63379319],
        "properties": { "magmom": 0.004 },
        "label": "F",
        "xyz": [-1.6103081952361125, 1.0783181960958461, 4.17862967249025]
      },
      {
        "species": [{ "element": "F", "occu": 1 }],
        "abc": [0.12009615, 0.25009008, 0.23911642],
        "properties": { "magmom": 0.01 },
        "label": "F",
        "xyz": [-1.040323024861118, 0.551671111046633, 1.5487961418136438]
      },
      {
        "species": [{ "element": "F", "occu": 1 }],
        "abc": [0.12781059, 0.13016232, 0.63194855],
        "properties": { "magmom": 0.003 },
        "label": "F",
        "xyz": [-1.0865011434967324, -1.6232982262263276, -0.1198006994182359]
      },
      {
        "species": [{ "element": "F", "occu": 1 }],
        "abc": [0.49458825, 0.62979149, 0.36620636],
        "properties": { "magmom": 0.004 },
        "label": "F",
        "xyz": [-2.1907322986420428, 3.280898881015799, 6.159322467465115]
      },
      {
        "species": [{ "element": "F", "occu": 1 }],
        "abc": [0.8799038100000001, 0.74991012, 0.76088565],
        "properties": { "magmom": 0.01 },
        "label": "F",
        "xyz": [-2.7607268931492914, 3.8075443239750726, 8.789160544415347]
      },
      {
        "species": [{ "element": "F", "occu": 1 }],
        "abc": [0.87218986, 0.8698408200000001, 0.36805091],
        "properties": { "magmom": 0.003 },
        "label": "F",
        "xyz": [-2.7145553591741507, 5.9825395421147665, 10.457783640341958]
      }
    ]
  },
  "task_ids": null,
  "uncorrected_energy_per_atom": null,
  "energy_per_atom": -9.10544294375,
  "formation_energy_per_atom": -3.238528048750001,
  "energy_above_hull": 0.0,
  "is_stable": true,
  "equilibrium_reaction_energy_per_atom": null,
  "decomposes_to": null,
  "xas": null,
  "grain_boundaries": null,
  "band_gap": 1.6025,
  "cbm": null,
  "vbm": null,
  "efermi": -0.39344641,
  "is_gap_direct": null,
  "is_metal": null,
  "es_source_calc_id": null,
  "bandstructure": null,
  "dos": null,
  "dos_energy_up": null,
  "dos_energy_down": null,
  "is_magnetic": null,
  "ordering": null,
  "total_magnetization": 3.999999899999999,
  "total_magnetization_normalized_vol": null,
  "total_magnetization_normalized_formula_units": null,
  "num_magnetic_sites": null,
  "num_unique_magnetic_sites": null,
  "types_of_magnetic_species": null,
  "bulk_modulus": null,
  "shear_modulus": null,
  "universal_anisotropy": null,
  "homogeneous_poisson": null,
  "e_total": null,
  "e_ionic": null,
  "e_electronic": null,
  "n": null,
  "e_ij_max": null,
  "weighted_surface_energy_EV_PER_ANG2": null,
  "weighted_surface_energy": null,
  "weighted_work_function": null,
  "surface_anisotropy": null,
  "shape_factor": null,
  "has_reconstructed": null,
  "possible_species": null,
  "has_props": null,
  "theoretical": null,
  "database_IDs": null,
  "fields_not_requested": [
    "builder_meta",
    "nsites",
    "elements",
    "nelements",
    "composition",
    "composition_reduced",
    "chemsys",
    "symmetry",
    "property_name",
    "deprecated",
    "deprecation_reasons",
    "last_updated",
    "origins",
    "warnings",
    "task_ids",
    "uncorrected_energy_per_atom",
    "equilibrium_reaction_energy_per_atom",
    "decomposes_to",
    "xas",
    "grain_boundaries",
    "cbm",
    "vbm",
    "is_gap_direct",
    "is_metal",
    "es_source_calc_id",
    "bandstructure",
    "dos",
    "dos_energy_up",
    "dos_energy_down",
    "is_magnetic",
    "ordering",
    "total_magnetization_normalized_vol",
    "total_magnetization_normalized_formula_units",
    "num_magnetic_sites",
    "num_unique_magnetic_sites",
    "types_of_magnetic_species",
    "bulk_modulus",
    "shear_modulus",
    "universal_anisotropy",
    "homogeneous_poisson",
    "e_total",
    "e_ionic",
    "e_electronic",
    "n",
    "e_ij_max",
    "weighted_surface_energy_EV_PER_ANG2",
    "weighted_surface_energy",
    "weighted_work_function",
    "surface_anisotropy",
    "shape_factor",
    "has_reconstructed",
    "possible_species",
    "has_props",
    "theoretical",
    "database_IDs"
  ]
}
