{
  "builder_meta": null,
  "nsites": null,
  "elements": null,
  "nelements": null,
  "composition": null,
  "composition_reduced": null,
  "formula_pretty": "VF4",
  "formula_anonymous": "AB4",
  "chemsys": null,
  "volume": 125.01803040902442,
  "density": 3.372005030603369,
  "density_atomic": 12.501803040902441,
  "symmetry": null,
  "property_name": null,
  "material_id": "mp-554799",
  "deprecated": null,
  "deprecation_reasons": null,
  "last_updated": null,
  "origins": null,
  "warnings": null,
  "structure": {
    "@module": "pymatgen.core.structure",
    "@class": "Structure",
    "charge": 0.0,
    "lattice": {
      "matrix": [
        [5.05996273, 0.0, 0.0],
        [0.0, 5.3278433, -0.07221925],
        [0.0, 2.59958711, 4.60215532]
      ],
      "pbc": [true, true, true],
      "a": 5.05996273,
      "b": 5.32833274574941,
      "c": 5.285611292166919,
      "alpha": 61.31610391761369,
      "beta": 90.0,
      "gamma": 90.0,
      "volume": 125.01803040902442
    },
    "properties": {},
    "sites": [
      {
        "species": [{ "element": "V", "occu": 1 }],
        "abc": [0.5, 0.5, 0.0],
        "properties": { "magmom": 1.004 },
        "label": "V",
        "xyz": [2.529981365, 2.66392165, -0.036109625]
      },
      {
        "species": [{ "element": "V", "occu": 1 }],
        "abc": [-0.0, 0.0, 0.0],
        "properties": { "magmom": 1.004 },
        "label": "V",
        "xyz": [0.0, 0.0, 0.0]
      },
      {
        "species": [{ "element": "F", "occu": 1 }],
        "abc": [0.19014654, 0.65297779, 0.09017583],
        "properties": { "magmom": 0.024 },
        "label": "F",
        "xyz": [0.9621344056384541, 3.713383268801858, 0.3678456095094581]
      },
      {
        "species": [{ "element": "F", "occu": 1 }],
        "abc": [0.69014654, 0.84702221, 0.90982417],
        "properties": { "magmom": 0.024 },
        "label": "F",
        "xyz": [3.492115770638454, 6.877968791198141, 4.125980835490542]
      },
      {
        "species": [{ "element": "F", "occu": 1 }],
        "abc": [0.39406825, 0.64775701, 0.64385208],
        "properties": { "magmom": -0.048 },
        "label": "F",
        "xyz": [1.9939706580763223, 5.1248974136712215, 2.916326749820623]
      },
      {
        "species": [{ "element": "F", "occu": 1 }],
        "abc": [0.89406825, 0.85224299, 0.35614792],
        "properties": { "magmom": -0.048 },
        "label": "F",
        "xyz": [4.523952023076323, 5.466454646328778, 1.5774996951793767]
      },
      {
        "species": [{ "element": "F", "occu": 1 }],
        "abc": [0.60593175, 0.35224299000000003, 0.35614792],
        "properties": { "magmom": -0.048 },
        "label": "F",
        "xyz": [3.0659920719236773, 2.8025329963287784, 1.6136093201793769]
      },
      {
        "species": [{ "element": "F", "occu": 1 }],
        "abc": [0.10593175, 0.14775701, 0.64385208],
        "properties": { "magmom": -0.048 },
        "label": "F",
        "xyz": [0.5360107069236775, 2.4609757636712217, 2.9524363748206235]
      },
      {
        "species": [{ "element": "F", "occu": 1 }],
        "abc": [0.30985346, 0.15297779, 0.09017583],
        "properties": { "magmom": 0.024 },
        "label": "F",
        "xyz": [1.5678469593615458, 1.0494616188018582, 0.4039552345094581]
      },
      {
        "species": [{ "element": "F", "occu": 1 }],
        "abc": [0.80985346, 0.34702221, 0.90982417],
        "properties": { "magmom": 0.024 },
        "label": "F",
        "xyz": [4.097828324361545, 4.214047141198142, 4.162090460490542]
      }
    ]
  },
  "task_ids": null,
  "uncorrected_energy_per_atom": null,
  "energy_per_atom": -8.356199807,
  "formation_energy_per_atom": -3.037462301,
  "energy_above_hull": 0.0,
  "is_stable": true,
  "equilibrium_reaction_energy_per_atom": null,
  "decomposes_to": null,
  "xas": null,
  "grain_boundaries": null,
  "band_gap": 2.2417,
  "cbm": null,
  "vbm": null,
  "efermi": -2.43112952,
  "is_gap_direct": null,
  "is_metal": null,
  "es_source_calc_id": null,
  "bandstructure": null,
  "dos": null,
  "dos_energy_up": null,
  "dos_energy_down": null,
  "is_magnetic": null,
  "ordering": null,
  "total_magnetization": 1.999999799999999,
  "total_magnetization_normalized_vol": null,
  "total_magnetization_normalized_formula_units": null,
  "num_magnetic_sites": null,
  "num_unique_magnetic_sites": null,
  "types_of_magnetic_species": null,
  "bulk_modulus": null,
  "shear_modulus": null,
  "universal_anisotropy": null,
  "homogeneous_poisson": null,
  "e_total": null,
  "e_ionic": null,
  "e_electronic": null,
  "n": null,
  "e_ij_max": null,
  "weighted_surface_energy_EV_PER_ANG2": null,
  "weighted_surface_energy": null,
  "weighted_work_function": null,
  "surface_anisotropy": null,
  "shape_factor": null,
  "has_reconstructed": null,
  "possible_species": null,
  "has_props": null,
  "theoretical": null,
  "database_IDs": null,
  "fields_not_requested": [
    "builder_meta",
    "nsites",
    "elements",
    "nelements",
    "composition",
    "composition_reduced",
    "chemsys",
    "symmetry",
    "property_name",
    "deprecated",
    "deprecation_reasons",
    "last_updated",
    "origins",
    "warnings",
    "task_ids",
    "uncorrected_energy_per_atom",
    "equilibrium_reaction_energy_per_atom",
    "decomposes_to",
    "xas",
    "grain_boundaries",
    "cbm",
    "vbm",
    "is_gap_direct",
    "is_metal",
    "es_source_calc_id",
    "bandstructure",
    "dos",
    "dos_energy_up",
    "dos_energy_down",
    "is_magnetic",
    "ordering",
    "total_magnetization_normalized_vol",
    "total_magnetization_normalized_formula_units",
    "num_magnetic_sites",
    "num_unique_magnetic_sites",
    "types_of_magnetic_species",
    "bulk_modulus",
    "shear_modulus",
    "universal_anisotropy",
    "homogeneous_poisson",
    "e_total",
    "e_ionic",
    "e_electronic",
    "n",
    "e_ij_max",
    "weighted_surface_energy_EV_PER_ANG2",
    "weighted_surface_energy",
    "weighted_work_function",
    "surface_anisotropy",
    "shape_factor",
    "has_reconstructed",
    "possible_species",
    "has_props",
    "theoretical",
    "database_IDs"
  ]
}
