{"builder_meta": null, "nsites": null, "elements": null, "nelements": null, "composition": null, "composition_reduced": null, "formula_pretty": "VFe3", "formula_anonymous": "AB3", "chemsys": null, "volume": 48.40057516995339, "density": 7.495546532456304, "density_atomic": 12.100143792488348, "symmetry": null, "property_name": null, "material_id": "mp-866134", "deprecated": null, "deprecation_reasons": null, "last_updated": null, "origins": null, "warnings": null, "structure": {"@module": "pymatgen.core.structure", "@class": "Structure", "charge": 0, "lattice": {"matrix": [[0.00035168, 2.89014218, 2.89719574], [2.89037795, 0.00034658000000000003, 2.89720597], [2.8905816, 2.89035604, 0.00014441]], "pbc": [true, true, true], "a": 4.0922689427954415, "b": 4.092442699240582, "c": 4.087740212522965, "alpha": 60.03213893625331, "beta": 60.03594945637799, "gamma": 59.91264551234553, "volume": 48.40057516995339}, "properties": {}, "sites": [{"species": [{"element": "V", "occu": 1}], "abc": [0.749999899999999, 0.74999939, 0.75000009], "properties": {"magmom": -1.819}, "label": "V", "xyz": [4.335981919486626, 4.33563357090641, 4.34590753299778]}, {"species": [{"element": "Fe", "occu": 1}], "abc": [4.9960000000000016e-05, 4.7450000000000015e-05, -2.89e-06], "properties": {"magmom": 2.5620000000000003}, "label": "Fe", "xyz": [0.00012881222283630004, 0.00013605481957820002, 0.00028221590510200007]}, {"species": [{"element": "Fe", "occu": 1}], "abc": [0.49995088, 0.499949, 0.50000099], "properties": {"magmom": 2.5620000000000003}, "label": "Fe", "xyz": [2.890511050125812, 2.8902832799930183, 2.896982992383747]}, {"species": [{"element": "Fe", "occu": 1}], "abc": [0.24999826, 0.25000115, 0.25000181], "properties": {"magmom": 2.668}, "label": "Fe", "xyz": [1.4453363627754152, 1.445211403095606, 1.4486348209276598]}]}, "task_ids": null, "uncorrected_energy_per_atom": null, "energy_per_atom": -8.7517991525, "formation_energy_per_atom": -0.12830672750000002, "energy_above_hull": 0.0, "is_stable": true, "equilibrium_reaction_energy_per_atom": null, "decomposes_to": null, "xas": null, "grain_boundaries": null, "band_gap": 0.0, "cbm": null, "vbm": null, "efermi": 6.08342407, "is_gap_direct": null, "is_metal": null, "es_source_calc_id": null, "bandstructure": null, "dos": null, "dos_energy_up": null, "dos_energy_down": null, "is_magnetic": null, "ordering": null, "total_magnetization": 5.4913443, "total_magnetization_normalized_vol": null, "total_magnetization_normalized_formula_units": null, "num_magnetic_sites": null, "num_unique_magnetic_sites": null, "types_of_magnetic_species": null, "bulk_modulus": null, "shear_modulus": null, "universal_anisotropy": null, "homogeneous_poisson": null, "e_total": null, "e_ionic": null, "e_electronic": null, "n": null, "e_ij_max": null, "weighted_surface_energy_EV_PER_ANG2": null, "weighted_surface_energy": null, "weighted_work_function": null, "surface_anisotropy": null, "shape_factor": null, "has_reconstructed": null, "possible_species": null, "has_props": null, "theoretical": null, "database_IDs": null, "fields_not_requested": ["builder_meta", "nsites", "elements", "nelements", "composition", "composition_reduced", "chemsys", "symmetry", "property_name", "deprecated", "deprecation_reasons", "last_updated", "origins", "warnings", "task_ids", "uncorrected_energy_per_atom", "equilibrium_reaction_energy_per_atom", "decomposes_to", "xas", "grain_boundaries", "cbm", "vbm", "is_gap_direct", "is_metal", "es_source_calc_id", "bandstructure", "dos", "dos_energy_up", "dos_energy_down", "is_magnetic", "ordering", "total_magnetization_normalized_vol", "total_magnetization_normalized_formula_units", "num_magnetic_sites", "num_unique_magnetic_sites", "types_of_magnetic_species", "bulk_modulus", "shear_modulus", "universal_anisotropy", "homogeneous_poisson", "e_total", "e_ionic", "e_electronic", "n", "e_ij_max", "weighted_surface_energy_EV_PER_ANG2", "weighted_surface_energy", "weighted_work_function", "surface_anisotropy", "shape_factor", "has_reconstructed", "possible_species", "has_props", "theoretical", "database_IDs"]}