{"builder_meta": null, "nsites": null, "elements": null, "nelements": null, "composition": null, "composition_reduced": null, "formula_pretty": "VFe4", "formula_anonymous": "AB4", "chemsys": null, "volume": 59.280819596921894, "density": 7.684130729899094, "density_atomic": 11.856163919384379, "symmetry": null, "property_name": null, "material_id": "mp-1216329", "deprecated": null, "deprecation_reasons": null, "last_updated": null, "origins": null, "warnings": null, "structure": {"@module": "pymatgen.core.structure", "@class": "Structure", "charge": 0, "lattice": {"matrix": [[-1.45480984, -1.43271398, 1.43271398], [-1.45480984, 1.43271398, -1.43271398], [-1.45480984, -7.11030908, -7.11030908]], "pbc": [true, true, true], "a": 2.4943557018869034, "b": 2.4943557018869034, "c": 10.160190062042233, "alpha": 85.20949837377823, "beta": 85.20949837377823, "gamma": 108.64239474266779, "volume": 59.280819596921894}, "properties": {}, "sites": [{"species": [{"element": "V", "occu": 1}], "abc": [0.0, -0.0, -0.0], "properties": {"magmom": -0.91}, "label": "V", "xyz": [0.0, 0.0, 0.0]}, {"species": [{"element": "Fe", "occu": 1}], "abc": [0.39786782, 0.39786782, 0.20426336], "properties": {"magmom": 2.446}, "label": "Fe", "xyz": [-1.4548083851901599, -1.4523756233193088, -1.4523756233193088]}, {"species": [{"element": "Fe", "occu": 1}], "abc": [0.79936763, 0.79936763, 0.40126474], "properties": {"magmom": 2.722}, "label": "Fe", "xyz": [-2.9096196799999996, -2.8531163243058395, -2.8531163243058395]}, {"species": [{"element": "Fe", "occu": 1}], "abc": [0.20063237, 0.20063237, 0.59873526], "properties": {"magmom": 2.722}, "label": "Fe", "xyz": [-1.45480984, -4.257192755694161, -4.257192755694161]}, {"species": [{"element": "Fe", "occu": 1}], "abc": [0.60213218, 0.60213218, 0.79573664], "properties": {"magmom": 2.446}, "label": "Fe", "xyz": [-2.90962113480984, -5.657933456680691, -5.657933456680691]}]}, "task_ids": null, "uncorrected_energy_per_atom": null, "energy_per_atom": -8.636434443999999, "formation_energy_per_atom": -0.043636261999999, "energy_above_hull": 0.059009120000000005, "is_stable": false, "equilibrium_reaction_energy_per_atom": null, "decomposes_to": null, "xas": null, "grain_boundaries": null, "band_gap": 0.0, "cbm": null, "vbm": null, "efermi": 5.58656182, "is_gap_direct": null, "is_metal": null, "es_source_calc_id": null, "bandstructure": null, "dos": null, "dos_energy_up": null, "dos_energy_down": null, "is_magnetic": null, "ordering": null, "total_magnetization": 8.8727967, "total_magnetization_normalized_vol": null, "total_magnetization_normalized_formula_units": null, "num_magnetic_sites": null, "num_unique_magnetic_sites": null, "types_of_magnetic_species": null, "bulk_modulus": null, "shear_modulus": null, "universal_anisotropy": null, "homogeneous_poisson": null, "e_total": null, "e_ionic": null, "e_electronic": null, "n": null, "e_ij_max": null, "weighted_surface_energy_EV_PER_ANG2": null, "weighted_surface_energy": null, "weighted_work_function": null, "surface_anisotropy": null, "shape_factor": null, "has_reconstructed": null, "possible_species": null, "has_props": null, "theoretical": null, "database_IDs": null, "fields_not_requested": ["builder_meta", "nsites", "elements", "nelements", "composition", "composition_reduced", "chemsys", "symmetry", "property_name", "deprecated", "deprecation_reasons", "last_updated", "origins", "warnings", "task_ids", "uncorrected_energy_per_atom", "equilibrium_reaction_energy_per_atom", "decomposes_to", "xas", "grain_boundaries", "cbm", "vbm", "is_gap_direct", "is_metal", "es_source_calc_id", "bandstructure", "dos", "dos_energy_up", "dos_energy_down", "is_magnetic", "ordering", "total_magnetization_normalized_vol", "total_magnetization_normalized_formula_units", "num_magnetic_sites", "num_unique_magnetic_sites", "types_of_magnetic_species", "bulk_modulus", "shear_modulus", "universal_anisotropy", "homogeneous_poisson", "e_total", "e_ionic", "e_electronic", "n", "e_ij_max", "weighted_surface_energy_EV_PER_ANG2", "weighted_surface_energy", "weighted_work_function", "surface_anisotropy", "shape_factor", "has_reconstructed", "possible_species", "has_props", "theoretical", "database_IDs"]}