{"builder_meta": null, "nsites": null, "elements": null, "nelements": null, "composition": null, "composition_reduced": null, "formula_pretty": "VGe2", "formula_anonymous": "AB2", "chemsys": null, "volume": 129.96533608618816, "density": 7.521239345869224, "density_atomic": 14.44059289846535, "symmetry": null, "property_name": null, "material_id": "mp-1084800", "deprecated": null, "deprecation_reasons": null, "last_updated": null, "origins": null, "warnings": null, "structure": {"@module": "pymatgen.core.structure", "@class": "Structure", "charge": 0, "lattice": {"matrix": [[2.38711633, -4.13461926, 0.0], [2.38709125, 4.13460531, 0.0], [0.0, 0.0, 6.58402461]], "pbc": [true, true, true], "a": 4.7742434791405035, "b": 4.774218858128182, "c": 6.58402461, "alpha": 90.0, "beta": 90.0, "gamma": 120.00032688237071, "volume": 129.96533608618816}, "properties": {}, "sites": [{"species": [{"element": "V", "occu": 1}], "abc": [0.5, 0.5, 0.33332773], "properties": {"magmom": 0.395}, "label": "V", "xyz": [2.3871037900000003, -6.974999999798115e-06, 2.1946379775154354]}, {"species": [{"element": "V", "occu": 1}], "abc": [0.5, 0.0, 5.05e-06], "properties": {"magmom": 0.394}, "label": "V", "xyz": [1.193558165, -2.06730963, 3.32493242805e-05]}, {"species": [{"element": "V", "occu": 1}], "abc": [0.0, 0.5, 0.6666681], "properties": {"magmom": 0.395}, "label": "V", "xyz": [1.193545625, 2.067302655, 4.389359177101941]}, {"species": [{"element": "Ge", "occu": 1}], "abc": [0.16606699, 0.83394532, 0.33332912000000003], "properties": {"magmom": -0.025}, "label": "Ge", "xyz": [2.387124800053397, 2.761410973017422, 2.1946471293096437]}, {"species": [{"element": "Ge", "occu": 1}], "abc": [0.16606052000000002, 0.3321282, -1.519999999999999e-06], "properties": {"magmom": -0.025}, "label": "Ge", "xyz": [1.1892260991585415, 0.6866219950031268, -1.0007717407199994e-05]}, {"species": [{"element": "Ge", "occu": 1}], "abc": [0.66787017, 0.83394542, 0.66667246], "properties": {"magmom": -0.025}, "label": "Ge", "xyz": [3.5849876041864515, 0.6866462937207065, 4.389387883449241]}, {"species": [{"element": "Ge", "occu": 1}], "abc": [0.83393301, 0.16605468, 0.33332912000000003], "properties": {"magmom": -0.025}, "label": "Ge", "xyz": [2.3870827799466032, -2.7614249230174215, 2.1946471293096437]}, {"species": [{"element": "Ge", "occu": 1}], "abc": [0.8339394800000001, 0.6678718, -1.519999999999999e-06], "properties": {"magmom": -0.025}, "label": "Ge", "xyz": [3.5849814808414586, -0.6866359450031267, -1.0007717407199994e-05]}, {"species": [{"element": "Ge", "occu": 1}], "abc": [0.33212983, 0.16605458, 0.66667246], "properties": {"magmom": -0.025}, "label": "Ge", "xyz": [1.189219975813549, -0.6866602437207059, 4.389387883449241]}]}, "task_ids": null, "uncorrected_energy_per_atom": null, "energy_per_atom": -6.278521593333334, "formation_energy_per_atom": -0.168534333333334, "energy_above_hull": 0.032563327878787005, "is_stable": false, "equilibrium_reaction_energy_per_atom": null, "decomposes_to": null, "xas": null, "grain_boundaries": null, "band_gap": 0.0, "cbm": null, "vbm": null, "efermi": 8.18573361, "is_gap_direct": null, "is_metal": null, "es_source_calc_id": null, "bandstructure": null, "dos": null, "dos_energy_up": null, "dos_energy_down": null, "is_magnetic": null, "ordering": null, "total_magnetization": 1.0667924, "total_magnetization_normalized_vol": null, "total_magnetization_normalized_formula_units": null, "num_magnetic_sites": null, "num_unique_magnetic_sites": null, "types_of_magnetic_species": null, "bulk_modulus": null, "shear_modulus": null, "universal_anisotropy": null, "homogeneous_poisson": null, "e_total": null, "e_ionic": null, "e_electronic": null, "n": null, "e_ij_max": null, "weighted_surface_energy_EV_PER_ANG2": null, "weighted_surface_energy": null, "weighted_work_function": null, "surface_anisotropy": null, "shape_factor": null, "has_reconstructed": null, "possible_species": null, "has_props": null, "theoretical": null, "database_IDs": null, "fields_not_requested": ["builder_meta", "nsites", "elements", "nelements", "composition", "composition_reduced", "chemsys", "symmetry", "property_name", "deprecated", "deprecation_reasons", "last_updated", "origins", "warnings", "task_ids", "uncorrected_energy_per_atom", "equilibrium_reaction_energy_per_atom", "decomposes_to", "xas", "grain_boundaries", "cbm", "vbm", "is_gap_direct", "is_metal", "es_source_calc_id", "bandstructure", "dos", "dos_energy_up", "dos_energy_down", "is_magnetic", "ordering", "total_magnetization_normalized_vol", "total_magnetization_normalized_formula_units", "num_magnetic_sites", "num_unique_magnetic_sites", "types_of_magnetic_species", "bulk_modulus", "shear_modulus", "universal_anisotropy", "homogeneous_poisson", "e_total", "e_ionic", "e_electronic", "n", "e_ij_max", "weighted_surface_energy_EV_PER_ANG2", "weighted_surface_energy", "weighted_work_function", "surface_anisotropy", "shape_factor", "has_reconstructed", "possible_species", "has_props", "theoretical", "database_IDs"]}