{
  "builder_meta": null,
  "nsites": null,
  "elements": null,
  "nelements": null,
  "composition": null,
  "composition_reduced": null,
  "formula_pretty": "VHg3",
  "formula_anonymous": "AB3",
  "chemsys": null,
  "volume": 168.33350989188196,
  "density": 12.877447225632352,
  "density_atomic": 21.041688736485245,
  "symmetry": null,
  "property_name": null,
  "material_id": "mp-1187732",
  "deprecated": null,
  "deprecation_reasons": null,
  "last_updated": null,
  "origins": null,
  "warnings": null,
  "structure": {
    "@module": "pymatgen.core.structure",
    "@class": "Structure",
    "charge": 0,
    "lattice": {
      "matrix": [
        [3.14359, -5.444857, 0.0],
        [3.14359, 5.444857, 0.0],
        [0.0, 0.0, 4.917317]
      ],
      "pbc": [true, true, true],
      "a": 6.287179481973534,
      "b": 6.287179481973534,
      "c": 4.917317,
      "alpha": 90.0,
      "beta": 90.0,
      "gamma": 119.99999454885047,
      "volume": 168.33350989188196
    },
    "properties": {},
    "sites": [
      {
        "species": [{ "element": "V", "occu": 1 }],
        "abc": [0.333333, 0.666667, 0.75],
        "properties": { "magmom": 2.582 },
        "label": "V",
        "xyz": [3.14359, 1.814955963238, 3.6879877499999996]
      },
      {
        "species": [{ "element": "V", "occu": 1 }],
        "abc": [0.666667, 0.333333, 0.25],
        "properties": { "magmom": 2.582 },
        "label": "V",
        "xyz": [3.14359, -1.814955963238, 1.22932925]
      },
      {
        "species": [{ "element": "Hg", "occu": 1 }],
        "abc": [0.17122, 0.342441, 0.25],
        "properties": { "magmom": -0.031 },
        "label": "Hg",
        "xyz": [1.61473958299, 0.9322738603969998, 1.22932925]
      },
      {
        "species": [{ "element": "Hg", "occu": 1 }],
        "abc": [0.657559, 0.8287800000000001, 0.25],
        "properties": { "magmom": -0.031 },
        "label": "Hg",
        "xyz": [4.672440417010001, 0.9322738603970007, 1.22932925]
      },
      {
        "species": [{ "element": "Hg", "occu": 1 }],
        "abc": [0.17122, 0.8287800000000001, 0.25],
        "properties": { "magmom": -0.031 },
        "label": "Hg",
        "xyz": [3.1435900000000006, 3.58032016892, 1.22932925]
      },
      {
        "species": [{ "element": "Hg", "occu": 1 }],
        "abc": [0.8287800000000001, 0.657559, 0.75],
        "properties": { "magmom": -0.031 },
        "label": "Hg",
        "xyz": [4.672440417010001, -0.9322738603970007, 3.6879877499999996]
      },
      {
        "species": [{ "element": "Hg", "occu": 1 }],
        "abc": [0.342441, 0.17122, 0.75],
        "properties": { "magmom": -0.031 },
        "label": "Hg",
        "xyz": [1.61473958299, -0.9322738603969998, 3.6879877499999996]
      },
      {
        "species": [{ "element": "Hg", "occu": 1 }],
        "abc": [0.8287800000000001, 0.17122, 0.75],
        "properties": { "magmom": -0.031 },
        "label": "Hg",
        "xyz": [3.1435900000000006, -3.58032016892, 3.6879877499999996]
      }
    ]
  },
  "task_ids": null,
  "uncorrected_energy_per_atom": null,
  "energy_per_atom": -40.189966470624995,
  "formation_energy_per_atom": 0.35828235375000606,
  "energy_above_hull": 0.35828235375000606,
  "is_stable": false,
  "equilibrium_reaction_energy_per_atom": null,
  "decomposes_to": null,
  "xas": null,
  "grain_boundaries": null,
  "band_gap": 0.0,
  "cbm": null,
  "vbm": null,
  "efermi": 3.73255953,
  "is_gap_direct": null,
  "is_metal": null,
  "es_source_calc_id": null,
  "bandstructure": null,
  "dos": null,
  "dos_energy_up": null,
  "dos_energy_down": null,
  "is_magnetic": null,
  "ordering": null,
  "total_magnetization": 5.7209643,
  "total_magnetization_normalized_vol": null,
  "total_magnetization_normalized_formula_units": null,
  "num_magnetic_sites": null,
  "num_unique_magnetic_sites": null,
  "types_of_magnetic_species": null,
  "bulk_modulus": null,
  "shear_modulus": null,
  "universal_anisotropy": null,
  "homogeneous_poisson": null,
  "e_total": null,
  "e_ionic": null,
  "e_electronic": null,
  "n": null,
  "e_ij_max": null,
  "weighted_surface_energy_EV_PER_ANG2": null,
  "weighted_surface_energy": null,
  "weighted_work_function": null,
  "surface_anisotropy": null,
  "shape_factor": null,
  "has_reconstructed": null,
  "possible_species": null,
  "has_props": null,
  "theoretical": null,
  "database_IDs": null,
  "fields_not_requested": [
    "builder_meta",
    "nsites",
    "elements",
    "nelements",
    "composition",
    "composition_reduced",
    "chemsys",
    "symmetry",
    "property_name",
    "deprecated",
    "deprecation_reasons",
    "last_updated",
    "origins",
    "warnings",
    "task_ids",
    "uncorrected_energy_per_atom",
    "equilibrium_reaction_energy_per_atom",
    "decomposes_to",
    "xas",
    "grain_boundaries",
    "cbm",
    "vbm",
    "is_gap_direct",
    "is_metal",
    "es_source_calc_id",
    "bandstructure",
    "dos",
    "dos_energy_up",
    "dos_energy_down",
    "is_magnetic",
    "ordering",
    "total_magnetization_normalized_vol",
    "total_magnetization_normalized_formula_units",
    "num_magnetic_sites",
    "num_unique_magnetic_sites",
    "types_of_magnetic_species",
    "bulk_modulus",
    "shear_modulus",
    "universal_anisotropy",
    "homogeneous_poisson",
    "e_total",
    "e_ionic",
    "e_electronic",
    "n",
    "e_ij_max",
    "weighted_surface_energy_EV_PER_ANG2",
    "weighted_surface_energy",
    "weighted_work_function",
    "surface_anisotropy",
    "shape_factor",
    "has_reconstructed",
    "possible_species",
    "has_props",
    "theoretical",
    "database_IDs"
  ]
}
