{
  "builder_meta": null,
  "nsites": null,
  "elements": null,
  "nelements": null,
  "composition": null,
  "composition_reduced": null,
  "formula_pretty": "VI2",
  "formula_anonymous": "AB2",
  "chemsys": null,
  "volume": 104.47009083830956,
  "density": 4.84397024184427,
  "density_atomic": 34.82336361276985,
  "symmetry": null,
  "property_name": null,
  "material_id": "mp-1018138",
  "deprecated": null,
  "deprecation_reasons": null,
  "last_updated": null,
  "origins": null,
  "warnings": null,
  "structure": {
    "@module": "pymatgen.core.structure",
    "@class": "Structure",
    "charge": 0,
    "lattice": {
      "matrix": [
        [4.11637123, -1.82e-6, -0.0003117],
        [-2.05818687, 3.56487418, -2.109999999999999e-6],
        [-0.00032681, -0.00019231, 7.11923526]
      ],
      "pbc": [true, true, true],
      "a": 4.116371241801681,
      "b": 4.116365036178827,
      "c": 7.11923527009855,
      "alpha": 90.00005463898964,
      "beta": 90.00696872711022,
      "gamma": 120.00009518043032,
      "volume": 104.47009083830956
    },
    "properties": {},
    "sites": [
      {
        "species": [{ "element": "V", "occu": 1 }],
        "abc": [-0.0, -0.0, -0.0],
        "properties": { "magmom": 2.683 },
        "label": "V",
        "xyz": [0.0, 0.0, 0.0]
      },
      {
        "species": [{ "element": "I", "occu": 1 }],
        "abc": [0.66660052, 0.33329976, 0.7768433],
        "properties": { "magmom": -0.039 },
        "label": "I",
        "xyz": [2.0577281324660155, 1.1880211006762273, 5.530321730210181]
      },
      {
        "species": [{ "element": "I", "occu": 1 }],
        "abc": [0.33339948, 0.66670024, 0.22315669999999901],
        "properties": { "magmom": -0.039 },
        "label": "I",
        "xyz": [0.00012941753398460038, 2.376658949323773, 1.5885997197898125]
      }
    ]
  },
  "task_ids": null,
  "uncorrected_energy_per_atom": null,
  "energy_per_atom": -4.7851471,
  "formation_energy_per_atom": -0.7411700000000001,
  "energy_above_hull": 0.0,
  "is_stable": true,
  "equilibrium_reaction_energy_per_atom": null,
  "decomposes_to": null,
  "xas": null,
  "grain_boundaries": null,
  "band_gap": 1.037,
  "cbm": null,
  "vbm": null,
  "efermi": 3.96903884,
  "is_gap_direct": null,
  "is_metal": null,
  "es_source_calc_id": null,
  "bandstructure": null,
  "dos": null,
  "dos_energy_up": null,
  "dos_energy_down": null,
  "is_magnetic": null,
  "ordering": null,
  "total_magnetization": 2.9999995,
  "total_magnetization_normalized_vol": null,
  "total_magnetization_normalized_formula_units": null,
  "num_magnetic_sites": null,
  "num_unique_magnetic_sites": null,
  "types_of_magnetic_species": null,
  "bulk_modulus": null,
  "shear_modulus": null,
  "universal_anisotropy": null,
  "homogeneous_poisson": null,
  "e_total": null,
  "e_ionic": null,
  "e_electronic": null,
  "n": null,
  "e_ij_max": null,
  "weighted_surface_energy_EV_PER_ANG2": null,
  "weighted_surface_energy": null,
  "weighted_work_function": null,
  "surface_anisotropy": null,
  "shape_factor": null,
  "has_reconstructed": null,
  "possible_species": null,
  "has_props": null,
  "theoretical": null,
  "database_IDs": null,
  "fields_not_requested": [
    "builder_meta",
    "nsites",
    "elements",
    "nelements",
    "composition",
    "composition_reduced",
    "chemsys",
    "symmetry",
    "property_name",
    "deprecated",
    "deprecation_reasons",
    "last_updated",
    "origins",
    "warnings",
    "task_ids",
    "uncorrected_energy_per_atom",
    "equilibrium_reaction_energy_per_atom",
    "decomposes_to",
    "xas",
    "grain_boundaries",
    "cbm",
    "vbm",
    "is_gap_direct",
    "is_metal",
    "es_source_calc_id",
    "bandstructure",
    "dos",
    "dos_energy_up",
    "dos_energy_down",
    "is_magnetic",
    "ordering",
    "total_magnetization_normalized_vol",
    "total_magnetization_normalized_formula_units",
    "num_magnetic_sites",
    "num_unique_magnetic_sites",
    "types_of_magnetic_species",
    "bulk_modulus",
    "shear_modulus",
    "universal_anisotropy",
    "homogeneous_poisson",
    "e_total",
    "e_ionic",
    "e_electronic",
    "n",
    "e_ij_max",
    "weighted_surface_energy_EV_PER_ANG2",
    "weighted_surface_energy",
    "weighted_work_function",
    "surface_anisotropy",
    "shape_factor",
    "has_reconstructed",
    "possible_species",
    "has_props",
    "theoretical",
    "database_IDs"
  ]
}
