{
  "builder_meta": null,
  "nsites": null,
  "elements": null,
  "nelements": null,
  "composition": null,
  "composition_reduced": null,
  "formula_pretty": "VI3",
  "formula_anonymous": "AB3",
  "chemsys": null,
  "volume": 359.2618399439994,
  "density": 3.990292102586995,
  "density_atomic": 44.907729992999926,
  "symmetry": null,
  "property_name": null,
  "material_id": "mp-865493",
  "deprecated": null,
  "deprecation_reasons": null,
  "last_updated": null,
  "origins": null,
  "warnings": null,
  "structure": {
    "@module": "pymatgen.core.structure",
    "@class": "Structure",
    "charge": 0,
    "lattice": {
      "matrix": [
        [10.63122496, -3.9030000000000004e-5, 7.03e-6],
        [-5.31564482, 9.20695656, -2.299999999999999e-7],
        [2.71e-6, 1.71e-6, 3.67039334]
      ],
      "pbc": [true, true, true],
      "a": 10.63122496007397,
      "b": 10.631280682501046,
      "c": 3.6703933400013984,
      "alpha": 89.99999927419177,
      "beta": 89.99991980891777,
      "gamma": 120.00023821943246,
      "volume": 359.2618399439994
    },
    "properties": {},
    "sites": [
      {
        "species": [{ "element": "V", "occu": 1 }],
        "abc": [0.33332541, 0.6666686900000001, 0.75000039],
        "properties": { "magmom": 2.143 },
        "label": "V",
        "xyz": [-0.00011451755939562492, 6.1379779415520215, 2.7527986263972357]
      },
      {
        "species": [{ "element": "V", "occu": 1 }],
        "abc": [0.66667325, 0.33333117, 0.24999891000000002],
        "properties": { "magmom": 2.143 },
        "label": "V",
        "xyz": [5.315683865906327, 3.068940009525164, 0.9175989443180379]
      },
      {
        "species": [{ "element": "I", "occu": 1 }],
        "abc": [0.2197767, 0.43954048, 0.25000007],
        "properties": { "magmom": -0.12 },
        "label": "I",
        "xyz": [5.5140474308296466e-5, 4.046821955337068, 0.9176000358634245]
      },
      {
        "species": [{ "element": "I", "occu": 1 }],
        "abc": [0.56046114, 0.7802260400000001, 0.25000092],
        "properties": { "magmom": -0.12 },
        "label": "I",
        "xyz": [1.8109846302254349, 7.183485809964101, 0.9176054723516979]
      },
      {
        "species": [{ "element": "I", "occu": 1 }],
        "abc": [0.21977474, 0.78023681, 0.25000273],
        "properties": { "magmom": -0.12 },
        "label": "I",
        "xyz": [-1.8109863784769156, 7.18359826587954, 0.9176097207357741]
      },
      {
        "species": [{ "element": "I", "occu": 1 }],
        "abc": [0.78022614, 0.5604675, 0.74999876],
        "properties": { "magmom": -0.12 },
        "label": "I",
        "xyz": [5.315515483355745, 5.160170756063436, 2.7527958097944976]
      },
      {
        "species": [{ "element": "I", "occu": 1 }],
        "abc": [0.43953033, 0.2197689, 0.75000058],
        "properties": { "magmom": -0.12 },
        "label": "I",
        "xyz": [3.504534432592511, 2.023386843171196, 2.75280017317951]
      },
      {
        "species": [{ "element": "I", "occu": 1 }],
        "abc": [0.78023228, 0.21976241, 0.74999965],
        "properties": { "magmom": -0.12 },
        "label": "I",
        "xyz": [7.126648005885545, 2.0233137924244224, 2.7527991548499053]
      }
    ]
  },
  "task_ids": null,
  "uncorrected_energy_per_atom": null,
  "energy_per_atom": -4.07614942375,
  "formation_energy_per_atom": -0.662163445,
  "energy_above_hull": 0.0,
  "is_stable": true,
  "equilibrium_reaction_energy_per_atom": null,
  "decomposes_to": null,
  "xas": null,
  "grain_boundaries": null,
  "band_gap": 0.0,
  "cbm": null,
  "vbm": null,
  "efermi": 1.76286084,
  "is_gap_direct": null,
  "is_metal": null,
  "es_source_calc_id": null,
  "bandstructure": null,
  "dos": null,
  "dos_energy_up": null,
  "dos_energy_down": null,
  "is_magnetic": null,
  "ordering": null,
  "total_magnetization": 4.0,
  "total_magnetization_normalized_vol": null,
  "total_magnetization_normalized_formula_units": null,
  "num_magnetic_sites": null,
  "num_unique_magnetic_sites": null,
  "types_of_magnetic_species": null,
  "bulk_modulus": null,
  "shear_modulus": null,
  "universal_anisotropy": null,
  "homogeneous_poisson": null,
  "e_total": null,
  "e_ionic": null,
  "e_electronic": null,
  "n": null,
  "e_ij_max": null,
  "weighted_surface_energy_EV_PER_ANG2": null,
  "weighted_surface_energy": null,
  "weighted_work_function": null,
  "surface_anisotropy": null,
  "shape_factor": null,
  "has_reconstructed": null,
  "possible_species": null,
  "has_props": null,
  "theoretical": null,
  "database_IDs": null,
  "fields_not_requested": [
    "builder_meta",
    "nsites",
    "elements",
    "nelements",
    "composition",
    "composition_reduced",
    "chemsys",
    "symmetry",
    "property_name",
    "deprecated",
    "deprecation_reasons",
    "last_updated",
    "origins",
    "warnings",
    "task_ids",
    "uncorrected_energy_per_atom",
    "equilibrium_reaction_energy_per_atom",
    "decomposes_to",
    "xas",
    "grain_boundaries",
    "cbm",
    "vbm",
    "is_gap_direct",
    "is_metal",
    "es_source_calc_id",
    "bandstructure",
    "dos",
    "dos_energy_up",
    "dos_energy_down",
    "is_magnetic",
    "ordering",
    "total_magnetization_normalized_vol",
    "total_magnetization_normalized_formula_units",
    "num_magnetic_sites",
    "num_unique_magnetic_sites",
    "types_of_magnetic_species",
    "bulk_modulus",
    "shear_modulus",
    "universal_anisotropy",
    "homogeneous_poisson",
    "e_total",
    "e_ionic",
    "e_electronic",
    "n",
    "e_ij_max",
    "weighted_surface_energy_EV_PER_ANG2",
    "weighted_surface_energy",
    "weighted_work_function",
    "surface_anisotropy",
    "shape_factor",
    "has_reconstructed",
    "possible_species",
    "has_props",
    "theoretical",
    "database_IDs"
  ]
}
