{"builder_meta": null, "nsites": null, "elements": null, "nelements": null, "composition": null, "composition_reduced": null, "formula_pretty": "VIr", "formula_anonymous": "AB", "chemsys": null, "volume": 54.53079717478992, "density": 14.809033043533958, "density_atomic": 13.63269929369748, "symmetry": null, "property_name": null, "material_id": "mp-569250", "deprecated": null, "deprecation_reasons": null, "last_updated": null, "origins": null, "warnings": null, "structure": {"@module": "pymatgen.core.structure", "@class": "Structure", "charge": 0, "lattice": {"matrix": [[2.81918853, 0.0, 0.0], [0.0, 4.37210261, -0.68315589], [0.0, -0.00655086, 4.42514851]], "pbc": [true, true, true], "a": 2.81918853, "b": 4.425153466537687, "c": 4.425153358847799, "alpha": 98.96566814028398, "beta": 90.0, "gamma": 90.0, "volume": 54.53079717478992}, "properties": {}, "sites": [{"species": [{"element": "V", "occu": 1}], "abc": [-0.0, 0.70295516, 0.70295516], "properties": {"magmom": 0.0}, "label": "V", "xyz": [0.0, 3.06878712890953, 2.630453020910919]}, {"species": [{"element": "V", "occu": 1}], "abc": [-0.0, 0.29704484000000003, 0.29704484000000003], "properties": {"magmom": 0.0}, "label": "V", "xyz": [0.0, 1.2967646210904702, 1.1115395990890808]}, {"species": [{"element": "Ir", "occu": 1}], "abc": [0.5, 0.78346128, 0.21653872000000002], "properties": {"magmom": -0.0}, "label": "Ir", "xyz": [1.409594265, 3.4239545922826413, 0.42298980614636805]}, {"species": [{"element": "Ir", "occu": 1}], "abc": [0.5, 0.21653872000000002, 0.78346128], "properties": {"magmom": -0.0}, "label": "Ir", "xyz": [1.409594265, 0.9415971577173584, 3.319002813853632]}]}, "task_ids": null, "uncorrected_energy_per_atom": null, "energy_per_atom": -33.8330484875, "formation_energy_per_atom": -0.6085838975000041, "energy_above_hull": 0.0, "is_stable": true, "equilibrium_reaction_energy_per_atom": null, "decomposes_to": null, "xas": null, "grain_boundaries": null, "band_gap": 0.0, "cbm": null, "vbm": null, "efermi": 8.28769836, "is_gap_direct": null, "is_metal": null, "es_source_calc_id": null, "bandstructure": null, "dos": null, "dos_energy_up": null, "dos_energy_down": null, "is_magnetic": null, "ordering": null, "total_magnetization": 3e-07, "total_magnetization_normalized_vol": null, "total_magnetization_normalized_formula_units": null, "num_magnetic_sites": null, "num_unique_magnetic_sites": null, "types_of_magnetic_species": null, "bulk_modulus": null, "shear_modulus": null, "universal_anisotropy": null, "homogeneous_poisson": null, "e_total": null, "e_ionic": null, "e_electronic": null, "n": null, "e_ij_max": null, "weighted_surface_energy_EV_PER_ANG2": null, "weighted_surface_energy": null, "weighted_work_function": null, "surface_anisotropy": null, "shape_factor": null, "has_reconstructed": null, "possible_species": null, "has_props": null, "theoretical": null, "database_IDs": null, "fields_not_requested": ["builder_meta", "nsites", "elements", "nelements", "composition", "composition_reduced", "chemsys", "symmetry", "property_name", "deprecated", "deprecation_reasons", "last_updated", "origins", "warnings", "task_ids", "uncorrected_energy_per_atom", "equilibrium_reaction_energy_per_atom", "decomposes_to", "xas", "grain_boundaries", "cbm", "vbm", "is_gap_direct", "is_metal", "es_source_calc_id", "bandstructure", "dos", "dos_energy_up", "dos_energy_down", "is_magnetic", "ordering", "total_magnetization_normalized_vol", "total_magnetization_normalized_formula_units", "num_magnetic_sites", "num_unique_magnetic_sites", "types_of_magnetic_species", "bulk_modulus", "shear_modulus", "universal_anisotropy", "homogeneous_poisson", "e_total", "e_ionic", "e_electronic", "n", "e_ij_max", "weighted_surface_energy_EV_PER_ANG2", "weighted_surface_energy", "weighted_work_function", "surface_anisotropy", "shape_factor", "has_reconstructed", "possible_species", "has_props", "theoretical", "database_IDs"]}