{"builder_meta": null, "nsites": null, "elements": null, "nelements": null, "composition": null, "composition_reduced": null, "formula_pretty": "VIr3", "formula_anonymous": "AB3", "chemsys": null, "volume": 110.85025102920723, "density": 18.802697413478537, "density_atomic": 13.856281378650904, "symmetry": null, "property_name": null, "material_id": "mp-865496", "deprecated": null, "deprecation_reasons": null, "last_updated": null, "origins": null, "warnings": null, "structure": {"@module": "pymatgen.core.structure", "@class": "Structure", "charge": 0, "lattice": {"matrix": [[5.43434995, -0.0, 0.0], [-2.71717497, 4.70628485, -0.0], [0.0, 0.0, 4.33421918]], "pbc": [true, true, true], "a": 5.43434995, "b": 5.434349722545838, "c": 4.33421918, "alpha": 90.0, "beta": 90.0, "gamma": 120.00000132367738, "volume": 110.85025102920723}, "properties": {}, "sites": [{"species": [{"element": "V", "occu": 1}], "abc": [0.333333999999999, 0.666667999999999, 0.74999645], "properties": {"magmom": -0.0}, "label": "V", "xyz": [3.3333373838928537e-09, 3.137529508379796, 3.250648998521911]}, {"species": [{"element": "V", "occu": 1}], "abc": [0.666667, 0.333333, 0.25000355], "properties": {"magmom": -0.0}, "label": "V", "xyz": [2.71717769384164, 1.56876004790505, 1.0835701814780891]}, {"species": [{"element": "Ir", "occu": 1}], "abc": [0.16742612, 0.33485224, 0.24999931], "properties": {"magmom": 0.0}, "label": "Ir", "xyz": [1.6742612851672334e-09, 1.5759100241005641, 1.0835518043887657]}, {"species": [{"element": "Ir", "occu": 1}], "abc": [0.66514876, 0.83257488, 0.24999931], "properties": {"magmom": 0.0}, "label": "Ir", "xyz": [1.3523995060618081, 3.9183345442345683, 1.0835518043887657]}, {"species": [{"element": "Ir", "occu": 1}], "abc": [0.16742612, 0.83257488, 0.24999931], "properties": {"magmom": 0.0}, "label": "Ir", "xyz": [-1.3523994977360594, 3.9183345442345683, 1.0835518043887657]}, {"species": [{"element": "Ir", "occu": 1}], "abc": [0.83257388, 0.6651467600000001, 0.75000069], "properties": {"magmom": 0.0}, "label": "Ir", "xyz": [2.717177695500708, 3.1303701196145863, 3.250667375611234]}, {"species": [{"element": "Ir", "occu": 1}], "abc": [0.33485324, 0.16742812, 0.75000069], "properties": {"magmom": 0.0}, "label": "Ir", "xyz": [1.3647781911131815, 0.7879644246199821, 3.250667375611234]}, {"species": [{"element": "Ir", "occu": 1}], "abc": [0.83257488, 0.16742812, 0.75000069], "properties": {"magmom": 0.0}, "label": "Ir", "xyz": [4.069571760561099, 0.7879644246199821, 3.250667375611234]}]}, "task_ids": null, "uncorrected_energy_per_atom": null, "energy_per_atom": -43.34993780125, "formation_energy_per_atom": -0.558028781250001, "energy_above_hull": 0.0, "is_stable": true, "equilibrium_reaction_energy_per_atom": null, "decomposes_to": null, "xas": null, "grain_boundaries": null, "band_gap": 0.0, "cbm": null, "vbm": null, "efermi": 9.32033257, "is_gap_direct": null, "is_metal": null, "es_source_calc_id": null, "bandstructure": null, "dos": null, "dos_energy_up": null, "dos_energy_down": null, "is_magnetic": null, "ordering": null, "total_magnetization": 1e-07, "total_magnetization_normalized_vol": null, "total_magnetization_normalized_formula_units": null, "num_magnetic_sites": null, "num_unique_magnetic_sites": null, "types_of_magnetic_species": null, "bulk_modulus": null, "shear_modulus": null, "universal_anisotropy": null, "homogeneous_poisson": null, "e_total": null, "e_ionic": null, "e_electronic": null, "n": null, "e_ij_max": null, "weighted_surface_energy_EV_PER_ANG2": null, "weighted_surface_energy": null, "weighted_work_function": null, "surface_anisotropy": null, "shape_factor": null, "has_reconstructed": null, "possible_species": null, "has_props": null, "theoretical": null, "database_IDs": null, "fields_not_requested": ["builder_meta", "nsites", "elements", "nelements", "composition", "composition_reduced", "chemsys", "symmetry", "property_name", "deprecated", "deprecation_reasons", "last_updated", "origins", "warnings", "task_ids", "uncorrected_energy_per_atom", "equilibrium_reaction_energy_per_atom", "decomposes_to", "xas", "grain_boundaries", "cbm", "vbm", "is_gap_direct", "is_metal", "es_source_calc_id", "bandstructure", "dos", "dos_energy_up", "dos_energy_down", "is_magnetic", "ordering", "total_magnetization_normalized_vol", "total_magnetization_normalized_formula_units", "num_magnetic_sites", "num_unique_magnetic_sites", "types_of_magnetic_species", "bulk_modulus", "shear_modulus", "universal_anisotropy", "homogeneous_poisson", "e_total", "e_ionic", "e_electronic", "n", "e_ij_max", "weighted_surface_energy_EV_PER_ANG2", "weighted_surface_energy", "weighted_work_function", "surface_anisotropy", "shape_factor", "has_reconstructed", "possible_species", "has_props", "theoretical", "database_IDs"]}