{"builder_meta": null, "nsites": null, "elements": null, "nelements": null, "composition": null, "composition_reduced": null, "formula_pretty": "VN", "formula_anonymous": "AB", "chemsys": null, "volume": 17.097020862487465, "density": 6.3080594141393025, "density_atomic": 8.548510431243733, "symmetry": null, "property_name": null, "material_id": "mp-1018027", "deprecated": null, "deprecation_reasons": null, "last_updated": null, "origins": null, "warnings": null, "structure": {"@module": "pymatgen.core.structure", "@class": "Structure", "charge": 0, "lattice": {"matrix": [[2.7338976600000002, -0.0, 0.0], [-1.3669493400000001, 2.36762108, 0.0], [0.0, 0.0, 2.64135023]], "pbc": [true, true, true], "a": 2.7338976600000002, "b": 2.7338946718165285, "c": 2.64135023, "alpha": 90.0, "beta": 90.0, "gamma": 120.00004849845745, "volume": 17.09702086248747}, "properties": {}, "sites": [{"species": [{"element": "V", "occu": 1}], "abc": [1.834e-05, 3.768e-05, -0.0], "properties": {"magmom": -0.0}, "label": "V", "xyz": [-1.3669680467999948e-06, 8.92119622944e-05, 0.0]}, {"species": [{"element": "N", "occu": 1}], "abc": [0.6666816600000001, 0.33336232, 0.5], "properties": {"magmom": -0.0}, "label": "N", "xyz": [1.366950026934047, 0.7892756561097056, 1.320675115]}]}, "task_ids": null, "uncorrected_energy_per_atom": null, "energy_per_atom": -12.96169112, "formation_energy_per_atom": -1.352527919374999, "energy_above_hull": 0.0, "is_stable": true, "equilibrium_reaction_energy_per_atom": null, "decomposes_to": null, "xas": null, "grain_boundaries": null, "band_gap": 0.0, "cbm": null, "vbm": null, "efermi": 8.00206554, "is_gap_direct": null, "is_metal": null, "es_source_calc_id": null, "bandstructure": null, "dos": null, "dos_energy_up": null, "dos_energy_down": null, "is_magnetic": null, "ordering": null, "total_magnetization": 0.0, "total_magnetization_normalized_vol": null, "total_magnetization_normalized_formula_units": null, "num_magnetic_sites": null, "num_unique_magnetic_sites": null, "types_of_magnetic_species": null, "bulk_modulus": null, "shear_modulus": null, "universal_anisotropy": null, "homogeneous_poisson": null, "e_total": null, "e_ionic": null, "e_electronic": null, "n": null, "e_ij_max": null, "weighted_surface_energy_EV_PER_ANG2": null, "weighted_surface_energy": null, "weighted_work_function": null, "surface_anisotropy": null, "shape_factor": null, "has_reconstructed": null, "possible_species": null, "has_props": null, "theoretical": null, "database_IDs": null, "fields_not_requested": ["builder_meta", "nsites", "elements", "nelements", "composition", "composition_reduced", "chemsys", "symmetry", "property_name", "deprecated", "deprecation_reasons", "last_updated", "origins", "warnings", "task_ids", "uncorrected_energy_per_atom", "equilibrium_reaction_energy_per_atom", "decomposes_to", "xas", "grain_boundaries", "cbm", "vbm", "is_gap_direct", "is_metal", "es_source_calc_id", "bandstructure", "dos", "dos_energy_up", "dos_energy_down", "is_magnetic", "ordering", "total_magnetization_normalized_vol", "total_magnetization_normalized_formula_units", "num_magnetic_sites", "num_unique_magnetic_sites", "types_of_magnetic_species", "bulk_modulus", "shear_modulus", "universal_anisotropy", "homogeneous_poisson", "e_total", "e_ionic", "e_electronic", "n", "e_ij_max", "weighted_surface_energy_EV_PER_ANG2", "weighted_surface_energy", "weighted_work_function", "surface_anisotropy", "shape_factor", "has_reconstructed", "possible_species", "has_props", "theoretical", "database_IDs"]}