{"builder_meta": null, "nsites": null, "elements": null, "nelements": null, "composition": null, "composition_reduced": null, "formula_pretty": "VNi3", "formula_anonymous": "AB3", "chemsys": null, "volume": 43.40330284322307, "density": 8.685477305209414, "density_atomic": 10.850825710805767, "symmetry": null, "property_name": null, "material_id": "mp-171", "deprecated": null, "deprecation_reasons": null, "last_updated": null, "origins": null, "warnings": null, "structure": {"@module": "pymatgen.core.structure", "@class": "Structure", "charge": 0, "lattice": {"matrix": [[3.19379259, 0.0, -1.40602274], [-0.61898189, 3.13323456, -1.40602476], [0.00207114, 0.00251482, 4.33507793]], "pbc": [true, true, true], "a": 3.4895860862480546, "b": 3.4895849343237693, "c": 4.335079154192414, "alpha": 113.73356403583854, "beta": 113.73344804153928, "gamma": 89.9999858283374, "volume": 43.40330284322307}, "properties": {}, "sites": [{"species": [{"element": "V", "occu": 1}], "abc": [0.0, -0.0, 0.0], "properties": {"magmom": 0.0}, "label": "V", "xyz": [0.0, 0.0, 0.0]}, {"species": [{"element": "Ni", "occu": 1}], "abc": [0.25, 0.750000999999999, 0.5], "properties": {"magmom": -0.0}, "label": "Ni", "xyz": [0.3352466810181106, 2.351186463234557, 0.7615133039752413]}, {"species": [{"element": "Ni", "occu": 1}], "abc": [0.75, 0.249999, 0.5], "properties": {"magmom": -0.0}, "label": "Ni", "xyz": [2.24163515898189, 0.78456291676544, 0.76151712602476]}, {"species": [{"element": "Ni", "occu": 1}], "abc": [0.5, 0.5, 0.0], "properties": {"magmom": -0.0}, "label": "Ni", "xyz": [1.28740535, 1.56661728, -1.4060237500000001]}]}, "task_ids": null, "uncorrected_energy_per_atom": null, "energy_per_atom": -12.72460083, "formation_energy_per_atom": -0.21591902750000003, "energy_above_hull": 0.0, "is_stable": true, "equilibrium_reaction_energy_per_atom": null, "decomposes_to": null, "xas": null, "grain_boundaries": null, "band_gap": 0.0, "cbm": null, "vbm": null, "efermi": 7.92572361, "is_gap_direct": null, "is_metal": null, "es_source_calc_id": null, "bandstructure": null, "dos": null, "dos_energy_up": null, "dos_energy_down": null, "is_magnetic": null, "ordering": null, "total_magnetization": 0.0, "total_magnetization_normalized_vol": null, "total_magnetization_normalized_formula_units": null, "num_magnetic_sites": null, "num_unique_magnetic_sites": null, "types_of_magnetic_species": null, "bulk_modulus": null, "shear_modulus": null, "universal_anisotropy": null, "homogeneous_poisson": null, "e_total": null, "e_ionic": null, "e_electronic": null, "n": null, "e_ij_max": null, "weighted_surface_energy_EV_PER_ANG2": null, "weighted_surface_energy": null, "weighted_work_function": null, "surface_anisotropy": null, "shape_factor": null, "has_reconstructed": null, "possible_species": null, "has_props": null, "theoretical": null, "database_IDs": null, "fields_not_requested": ["builder_meta", "nsites", "elements", "nelements", "composition", "composition_reduced", "chemsys", "symmetry", "property_name", "deprecated", "deprecation_reasons", "last_updated", "origins", "warnings", "task_ids", "uncorrected_energy_per_atom", "equilibrium_reaction_energy_per_atom", "decomposes_to", "xas", "grain_boundaries", "cbm", "vbm", "is_gap_direct", "is_metal", "es_source_calc_id", "bandstructure", "dos", "dos_energy_up", "dos_energy_down", "is_magnetic", "ordering", "total_magnetization_normalized_vol", "total_magnetization_normalized_formula_units", "num_magnetic_sites", "num_unique_magnetic_sites", "types_of_magnetic_species", "bulk_modulus", "shear_modulus", "universal_anisotropy", "homogeneous_poisson", "e_total", "e_ionic", "e_electronic", "n", "e_ij_max", "weighted_surface_energy_EV_PER_ANG2", "weighted_surface_energy", "weighted_work_function", "surface_anisotropy", "shape_factor", "has_reconstructed", "possible_species", "has_props", "theoretical", "database_IDs"]}