{"builder_meta": null, "nsites": null, "elements": null, "nelements": null, "composition": null, "composition_reduced": null, "formula_pretty": "VO", "formula_anonymous": "AB", "chemsys": null, "volume": 41.804172700848774, "density": 5.318032742750917, "density_atomic": 10.451043175212194, "symmetry": null, "property_name": null, "material_id": "mp-19184", "deprecated": null, "deprecation_reasons": null, "last_updated": null, "origins": null, "warnings": null, "structure": {"@module": "pymatgen.core.structure", "@class": "Structure", "charge": 0, "lattice": {"matrix": [[0.89368119, 2.52771337, 1.5479020000000001], [-3.56587718, -2.5214551, 3.08047619], [2.68104464, 2e-08, 1.54790191]], "pbc": [true, true, true], "a": 3.095803861978432, "b": 5.34439420714057, "c": 3.0958037219201056, "alpha": 106.83586387459134, "beta": 60.00000608826006, "gamma": 106.83585188048218, "volume": 41.804172700848774}, "properties": {}, "sites": [{"species": [{"element": "V", "occu": 1}], "abc": [0.0, 0.0, -0.0], "properties": {"magmom": 2.6310000000000002}, "label": "V", "xyz": [0.0, 0.0, 0.0]}, {"species": [{"element": "V", "occu": 1}], "abc": [0.5, 0.5, 0.5], "properties": {"magmom": 2.6310000000000002}, "label": "V", "xyz": [0.004424325000000007, 0.003129145000000005, 3.0881400500000002]}, {"species": [{"element": "O", "occu": 1}], "abc": [0.750000999999999, 0.250001, 0.750000999999999], "properties": {"magmom": 0.084}, "label": "O", "xyz": [1.7895750863486468, 1.2654212737582875, 3.091978156280097]}, {"species": [{"element": "O", "occu": 1}], "abc": [0.249999, 0.749999, 0.249999], "properties": {"magmom": 0.084}, "label": "O", "xyz": [-1.78072643634865, -1.2591629837582898, 3.0843019437199]}]}, "task_ids": null, "uncorrected_energy_per_atom": null, "energy_per_atom": -9.1062212975, "formation_energy_per_atom": -2.09028776, "energy_above_hull": 0.021835317708333003, "is_stable": false, "equilibrium_reaction_energy_per_atom": null, "decomposes_to": null, "xas": null, "grain_boundaries": null, "band_gap": 0.9700999999999991, "cbm": null, "vbm": null, "efermi": 6.09173558, "is_gap_direct": null, "is_metal": null, "es_source_calc_id": null, "bandstructure": null, "dos": null, "dos_energy_up": null, "dos_energy_down": null, "is_magnetic": null, "ordering": null, "total_magnetization": 5.9333946, "total_magnetization_normalized_vol": null, "total_magnetization_normalized_formula_units": null, "num_magnetic_sites": null, "num_unique_magnetic_sites": null, "types_of_magnetic_species": null, "bulk_modulus": null, "shear_modulus": null, "universal_anisotropy": null, "homogeneous_poisson": null, "e_total": null, "e_ionic": null, "e_electronic": null, "n": null, "e_ij_max": null, "weighted_surface_energy_EV_PER_ANG2": null, "weighted_surface_energy": null, "weighted_work_function": null, "surface_anisotropy": null, "shape_factor": null, "has_reconstructed": null, "possible_species": null, "has_props": null, "theoretical": null, "database_IDs": null, "fields_not_requested": ["builder_meta", "nsites", "elements", "nelements", "composition", "composition_reduced", "chemsys", "symmetry", "property_name", "deprecated", "deprecation_reasons", "last_updated", "origins", "warnings", "task_ids", "uncorrected_energy_per_atom", "equilibrium_reaction_energy_per_atom", "decomposes_to", "xas", "grain_boundaries", "cbm", "vbm", "is_gap_direct", "is_metal", "es_source_calc_id", "bandstructure", "dos", "dos_energy_up", "dos_energy_down", "is_magnetic", "ordering", "total_magnetization_normalized_vol", "total_magnetization_normalized_formula_units", "num_magnetic_sites", "num_unique_magnetic_sites", "types_of_magnetic_species", "bulk_modulus", "shear_modulus", "universal_anisotropy", "homogeneous_poisson", "e_total", "e_ionic", "e_electronic", "n", "e_ij_max", "weighted_surface_energy_EV_PER_ANG2", "weighted_surface_energy", "weighted_work_function", "surface_anisotropy", "shape_factor", "has_reconstructed", "possible_species", "has_props", "theoretical", "database_IDs"]}