{
  "builder_meta": null,
  "nsites": null,
  "elements": null,
  "nelements": null,
  "composition": null,
  "composition_reduced": null,
  "formula_pretty": "VO2",
  "formula_anonymous": "AB2",
  "chemsys": null,
  "volume": 135.43671915122044,
  "density": 4.067600255193656,
  "density_atomic": 11.286393262601704,
  "symmetry": null,
  "property_name": null,
  "material_id": "mp-541404",
  "deprecated": null,
  "deprecation_reasons": null,
  "last_updated": null,
  "origins": null,
  "warnings": null,
  "structure": {
    "@module": "pymatgen.core.structure",
    "@class": "Structure",
    "charge": 0,
    "lattice": {
      "matrix": [
        [3.53138901, 0.00020265, -1.06330459],
        [-0.56032921, 6.10323163, -1.8602000200000002],
        [-0.03758314, 0.09327771, 6.26419933]
      ],
      "pbc": [true, true, true],
      "a": 3.6879974284333317,
      "b": 6.404978475172237,
      "c": 6.265006501957325,
      "alpha": 106.0025924020586,
      "beta": 107.09884693326345,
      "gamma": 89.99889484758272,
      "volume": 135.43671915122044
    },
    "properties": {},
    "sites": [
      {
        "species": [{ "element": "V", "occu": 1 }],
        "abc": [0.69658928, 0.27924042, 0.39305361],
        "properties": { "magmom": 0.9490000000000001 },
        "label": "V",
        "xyz": [2.288688975085009, 1.7410732681841097, 1.2020365467784782]
      },
      {
        "species": [{ "element": "V", "occu": 1 }],
        "abc": [0.30341072, 0.7207595800000001, 0.6069463900000001],
        "properties": { "magmom": 0.9490000000000001 },
        "label": "V",
        "xyz": [0.6447876849149906, 4.45563872181589, 2.1386581732215224]
      },
      {
        "species": [{ "element": "V", "occu": 1 }],
        "abc": [0.60061911, 0.69849415, 0.20044071],
        "properties": { "magmom": 1.263 },
        "label": "V",
        "xyz": [1.72209985772523, 4.28188995553218, -0.682379327017874]
      },
      {
        "species": [{ "element": "V", "occu": 1 }],
        "abc": [0.39938089, 0.30150585, 0.79955929],
        "properties": { "magmom": 1.263 },
        "label": "V",
        "xyz": [1.2113768022747695, 1.91482203446782, 4.023074047017874]
      },
      {
        "species": [{ "element": "O", "occu": 1 }],
        "abc": [0.63782558, 0.00772776, 0.27539202],
        "properties": { "magmom": -0.145 },
        "label": "O",
        "xyz": [2.237730057010463, 0.07298150159271, 1.0325324610313795]
      },
      {
        "species": [{ "element": "O", "occu": 1 }],
        "abc": [0.36217442, 0.99227224, 0.72460698],
        "properties": { "magmom": -0.145 },
        "label": "O",
        "xyz": [0.6957466405726764, 6.123730395129581, 2.308155994769291]
      },
      {
        "species": [{ "element": "O", "occu": 1 }],
        "abc": [0.76759191, 0.65420551, 0.53524],
        "properties": { "magmom": -0.027 },
        "label": "O",
        "xyz": [2.323979178689362, 4.042849275153243, 1.3197129454532233]
      },
      {
        "species": [{ "element": "O", "occu": 1 }],
        "abc": [0.23240809, 0.34579449, 0.46476000000000006],
        "properties": { "magmom": -0.027 },
        "label": "O",
        "xyz": [0.609497481310638, 2.1538627148467575, 2.0209817745467773]
      },
      {
        "species": [{ "element": "O", "occu": 1 }],
        "abc": [0.559370199999999, 0.36931303, 0.11874008],
        "properties": { "magmom": -0.068 },
        "label": "O",
        "xyz": [1.763954273408641, 2.265192125185785, -0.5379654773813312]
      },
      {
        "species": [{ "element": "O", "occu": 1 }],
        "abc": [0.440629799999999, 0.63068697, 0.88125992],
        "properties": { "magmom": -0.068 },
        "label": "O",
        "xyz": [1.1695223865913518, 3.9315198648142142, 3.878660197381333]
      },
      {
        "species": [{ "element": "O", "occu": 1 }],
        "abc": [0.86530367, 0.29523549, 0.73105583],
        "properties": { "magmom": -0.083 },
        "label": "O",
        "xyz": [2.8628194280682973, 1.8702571483598234, 3.110201012021039]
      },
      {
        "species": [{ "element": "O", "occu": 1 }],
        "abc": [0.13469633, 0.7047645100000001, 0.26894417],
        "properties": { "magmom": -0.083 },
        "label": "O",
        "xyz": [0.07065723193170237, 4.326454841640177, 0.23049370797896107]
      }
    ]
  },
  "task_ids": null,
  "uncorrected_energy_per_atom": null,
  "energy_per_atom": -8.849077536666668,
  "formation_energy_per_atom": -2.522468176666668,
  "energy_above_hull": 0.0,
  "is_stable": true,
  "equilibrium_reaction_energy_per_atom": null,
  "decomposes_to": null,
  "xas": null,
  "grain_boundaries": null,
  "band_gap": 0.7584000000000001,
  "cbm": null,
  "vbm": null,
  "efermi": 2.16139927,
  "is_gap_direct": null,
  "is_metal": null,
  "es_source_calc_id": null,
  "bandstructure": null,
  "dos": null,
  "dos_energy_up": null,
  "dos_energy_down": null,
  "is_magnetic": null,
  "ordering": null,
  "total_magnetization": 4.0000001,
  "total_magnetization_normalized_vol": null,
  "total_magnetization_normalized_formula_units": null,
  "num_magnetic_sites": null,
  "num_unique_magnetic_sites": null,
  "types_of_magnetic_species": null,
  "bulk_modulus": null,
  "shear_modulus": null,
  "universal_anisotropy": null,
  "homogeneous_poisson": null,
  "e_total": null,
  "e_ionic": null,
  "e_electronic": null,
  "n": null,
  "e_ij_max": null,
  "weighted_surface_energy_EV_PER_ANG2": null,
  "weighted_surface_energy": null,
  "weighted_work_function": null,
  "surface_anisotropy": null,
  "shape_factor": null,
  "has_reconstructed": null,
  "possible_species": null,
  "has_props": null,
  "theoretical": null,
  "database_IDs": null,
  "fields_not_requested": [
    "builder_meta",
    "nsites",
    "elements",
    "nelements",
    "composition",
    "composition_reduced",
    "chemsys",
    "symmetry",
    "property_name",
    "deprecated",
    "deprecation_reasons",
    "last_updated",
    "origins",
    "warnings",
    "task_ids",
    "uncorrected_energy_per_atom",
    "equilibrium_reaction_energy_per_atom",
    "decomposes_to",
    "xas",
    "grain_boundaries",
    "cbm",
    "vbm",
    "is_gap_direct",
    "is_metal",
    "es_source_calc_id",
    "bandstructure",
    "dos",
    "dos_energy_up",
    "dos_energy_down",
    "is_magnetic",
    "ordering",
    "total_magnetization_normalized_vol",
    "total_magnetization_normalized_formula_units",
    "num_magnetic_sites",
    "num_unique_magnetic_sites",
    "types_of_magnetic_species",
    "bulk_modulus",
    "shear_modulus",
    "universal_anisotropy",
    "homogeneous_poisson",
    "e_total",
    "e_ionic",
    "e_electronic",
    "n",
    "e_ij_max",
    "weighted_surface_energy_EV_PER_ANG2",
    "weighted_surface_energy",
    "weighted_work_function",
    "surface_anisotropy",
    "shape_factor",
    "has_reconstructed",
    "possible_species",
    "has_props",
    "theoretical",
    "database_IDs"
  ]
}
