{
  "builder_meta": null,
  "nsites": null,
  "elements": null,
  "nelements": null,
  "composition": null,
  "composition_reduced": null,
  "formula_pretty": "VO3",
  "formula_anonymous": "AB3",
  "chemsys": null,
  "volume": 96.3003820650156,
  "density": 3.4120993824669172,
  "density_atomic": 12.03754775812695,
  "symmetry": null,
  "property_name": null,
  "material_id": "mp-1207792",
  "deprecated": null,
  "deprecation_reasons": null,
  "last_updated": null,
  "origins": null,
  "warnings": null,
  "structure": {
    "@module": "pymatgen.core.structure",
    "@class": "Structure",
    "charge": 0,
    "lattice": {
      "matrix": [
        [-1.979615, 2.814987, 4.32027],
        [1.979615, -2.814987, 4.32027],
        [1.979615, 2.814987, -4.32027]
      ],
      "pbc": [true, true, true],
      "a": 5.523383042239058,
      "b": 5.523383042239058,
      "c": 5.523383042239058,
      "alpha": 137.99529888266704,
      "beta": 118.71908614243203,
      "gamma": 77.07910502276472,
      "volume": 96.3003820650156
    },
    "properties": {},
    "sites": [
      {
        "species": [{ "element": "V", "occu": 1 }],
        "abc": [0.75, 0.918221, 0.168220999999999],
        "properties": { "magmom": -0.26 },
        "label": "V",
        "xyz": [0.6660256298299978, -2.6645352591003757e-15, 6.480405000000005]
      },
      {
        "species": [{ "element": "V", "occu": 1 }],
        "abc": [0.25, 0.081778999999999, 0.831778999999999],
        "properties": { "magmom": -0.26 },
        "label": "V",
        "xyz": [1.313589370169996, 2.8149870000000004, -2.1601350000000004]
      },
      {
        "species": [{ "element": "O", "occu": 1 }],
        "abc": [0.75, 0.49671000000000004, 0.7467100000000001],
        "properties": { "magmom": 0.281 },
        "label": "O",
        "xyz": [0.9767816333000002, 2.814987, 2.160134999999999]
      },
      {
        "species": [{ "element": "O", "occu": 1 }],
        "abc": [0.25, 0.50329, 0.25329],
        "properties": { "magmom": 0.281 },
        "label": "O",
        "xyz": [1.0028333667, 0.0, 2.1601349999999995]
      },
      {
        "species": [{ "element": "O", "occu": 1 }],
        "abc": [0.857147999999999, 0.857147999999999, 0.5],
        "properties": { "magmom": 0.394 },
        "label": "O",
        "xyz": [0.9898075, 1.4074935, 5.246086579919991]
      },
      {
        "species": [{ "element": "O", "occu": 1 }],
        "abc": [0.142852, 0.142852, 0.5],
        "properties": { "magmom": 0.394 },
        "label": "O",
        "xyz": [0.9898075, 1.4074935, -0.92581657992]
      },
      {
        "species": [{ "element": "O", "occu": 1 }],
        "abc": [0.642852, 0.142852, 0.0],
        "properties": { "magmom": 0.394 },
        "label": "O",
        "xyz": [-0.9898074999999998, 1.4074934999999997, 3.39445342008]
      },
      {
        "species": [{ "element": "O", "occu": 1 }],
        "abc": [0.357147999999999, 0.857147999999999, 0.0],
        "properties": { "magmom": 0.394 },
        "label": "O",
        "xyz": [0.9898075, -1.4074935, 5.246086579919991]
      }
    ]
  },
  "task_ids": null,
  "uncorrected_energy_per_atom": null,
  "energy_per_atom": -7.67395544375,
  "formation_energy_per_atom": -1.6920081724999991,
  "energy_above_hull": 0.3108859175,
  "is_stable": false,
  "equilibrium_reaction_energy_per_atom": null,
  "decomposes_to": null,
  "xas": null,
  "grain_boundaries": null,
  "band_gap": 0.0,
  "cbm": null,
  "vbm": null,
  "efermi": -0.033942770000000004,
  "is_gap_direct": null,
  "is_metal": null,
  "es_source_calc_id": null,
  "bandstructure": null,
  "dos": null,
  "dos_energy_up": null,
  "dos_energy_down": null,
  "is_magnetic": null,
  "ordering": null,
  "total_magnetization": 1.996696899999999,
  "total_magnetization_normalized_vol": null,
  "total_magnetization_normalized_formula_units": null,
  "num_magnetic_sites": null,
  "num_unique_magnetic_sites": null,
  "types_of_magnetic_species": null,
  "bulk_modulus": null,
  "shear_modulus": null,
  "universal_anisotropy": null,
  "homogeneous_poisson": null,
  "e_total": null,
  "e_ionic": null,
  "e_electronic": null,
  "n": null,
  "e_ij_max": null,
  "weighted_surface_energy_EV_PER_ANG2": null,
  "weighted_surface_energy": null,
  "weighted_work_function": null,
  "surface_anisotropy": null,
  "shape_factor": null,
  "has_reconstructed": null,
  "possible_species": null,
  "has_props": null,
  "theoretical": null,
  "database_IDs": null,
  "fields_not_requested": [
    "builder_meta",
    "nsites",
    "elements",
    "nelements",
    "composition",
    "composition_reduced",
    "chemsys",
    "symmetry",
    "property_name",
    "deprecated",
    "deprecation_reasons",
    "last_updated",
    "origins",
    "warnings",
    "task_ids",
    "uncorrected_energy_per_atom",
    "equilibrium_reaction_energy_per_atom",
    "decomposes_to",
    "xas",
    "grain_boundaries",
    "cbm",
    "vbm",
    "is_gap_direct",
    "is_metal",
    "es_source_calc_id",
    "bandstructure",
    "dos",
    "dos_energy_up",
    "dos_energy_down",
    "is_magnetic",
    "ordering",
    "total_magnetization_normalized_vol",
    "total_magnetization_normalized_formula_units",
    "num_magnetic_sites",
    "num_unique_magnetic_sites",
    "types_of_magnetic_species",
    "bulk_modulus",
    "shear_modulus",
    "universal_anisotropy",
    "homogeneous_poisson",
    "e_total",
    "e_ionic",
    "e_electronic",
    "n",
    "e_ij_max",
    "weighted_surface_energy_EV_PER_ANG2",
    "weighted_surface_energy",
    "weighted_work_function",
    "surface_anisotropy",
    "shape_factor",
    "has_reconstructed",
    "possible_species",
    "has_props",
    "theoretical",
    "database_IDs"
  ]
}
