{"builder_meta": null, "nsites": null, "elements": null, "nelements": null, "composition": null, "composition_reduced": null, "formula_pretty": "VP2", "formula_anonymous": "AB2", "chemsys": null, "volume": 81.78032093666212, "density": 4.584394690442164, "density_atomic": 13.630053489443688, "symmetry": null, "property_name": null, "material_id": "mp-9923", "deprecated": null, "deprecation_reasons": null, "last_updated": null, "origins": null, "warnings": null, "structure": {"@module": "pymatgen.core.structure", "@class": "Structure", "charge": 0, "lattice": {"matrix": [[3.02431832, -0.0, 0.74574199], [1.3969652, 4.17771858, 0.84003065], [0.00786633, -0.00958877, 6.47345234]], "pbc": [true, true, true], "a": 3.1149048807847697, "b": 4.484472744551769, "c": 6.473464221103663, "alpha": 79.26200983942113, "beta": 76.07862142971946, "gamma": 69.67781917123065, "volume": 81.78032093666212}, "properties": {}, "sites": [{"species": [{"element": "V", "occu": 1}], "abc": [0.84346137, 0.61471022, 0.69836705], "properties": {"magmom": 0.0}, "label": "V", "xyz": [3.4151180446040685, 2.561389826391859, 5.666225800221566]}, {"species": [{"element": "V", "occu": 1}], "abc": [0.15653863, 0.38528978, 0.30163295], "properties": {"magmom": 0.0}, "label": "V", "xyz": [1.0140318053959312, 1.6067399836081409, 2.3929991797784336]}, {"species": [{"element": "P", "occu": 1}], "abc": [0.14228611, 0.7457179700000001, 0.9697117999999991], "properties": {"magmom": -0.0}, "label": "P", "xyz": [1.4796886152828732, 3.1061014752923963, 7.009917798712145]}, {"species": [{"element": "P", "occu": 1}], "abc": [0.85771389, 0.25428203, 0.030288199999999002], "properties": {"magmom": -0.0}, "label": "P", "xyz": [2.9494612347171265, 1.0620283347076034, 1.049307181287842]}, {"species": [{"element": "P", "occu": 1}], "abc": [0.39948099000000004, 0.79799116, 0.40304786000000004], "properties": {"magmom": 0.0}, "label": "P", "xyz": [2.3260940644489225, 3.3299177625792202, 3.5773578937278163]}, {"species": [{"element": "P", "occu": 1}], "abc": [0.60051901, 0.20200884, 0.59695214], "properties": {"magmom": 0.0}, "label": "P", "xyz": [2.103055785551077, 0.8382120474207793, 4.481867086272183]}]}, "task_ids": null, "uncorrected_energy_per_atom": null, "energy_per_atom": -11.330542676666667, "formation_energy_per_atom": -0.63263322531746, "energy_above_hull": 0.0, "is_stable": true, "equilibrium_reaction_energy_per_atom": null, "decomposes_to": null, "xas": null, "grain_boundaries": null, "band_gap": 0.0, "cbm": null, "vbm": null, "efermi": 8.6158015, "is_gap_direct": null, "is_metal": null, "es_source_calc_id": null, "bandstructure": null, "dos": null, "dos_energy_up": null, "dos_energy_down": null, "is_magnetic": null, "ordering": null, "total_magnetization": 0.0, "total_magnetization_normalized_vol": null, "total_magnetization_normalized_formula_units": null, "num_magnetic_sites": null, "num_unique_magnetic_sites": null, "types_of_magnetic_species": null, "bulk_modulus": null, "shear_modulus": null, "universal_anisotropy": null, "homogeneous_poisson": null, "e_total": null, "e_ionic": null, "e_electronic": null, "n": null, "e_ij_max": null, "weighted_surface_energy_EV_PER_ANG2": null, "weighted_surface_energy": null, "weighted_work_function": null, "surface_anisotropy": null, "shape_factor": null, "has_reconstructed": null, "possible_species": null, "has_props": null, "theoretical": null, "database_IDs": null, "fields_not_requested": ["builder_meta", "nsites", "elements", "nelements", "composition", "composition_reduced", "chemsys", "symmetry", "property_name", "deprecated", "deprecation_reasons", "last_updated", "origins", "warnings", "task_ids", "uncorrected_energy_per_atom", "equilibrium_reaction_energy_per_atom", "decomposes_to", "xas", "grain_boundaries", "cbm", "vbm", "is_gap_direct", "is_metal", "es_source_calc_id", "bandstructure", "dos", "dos_energy_up", "dos_energy_down", "is_magnetic", "ordering", "total_magnetization_normalized_vol", "total_magnetization_normalized_formula_units", "num_magnetic_sites", "num_unique_magnetic_sites", "types_of_magnetic_species", "bulk_modulus", "shear_modulus", "universal_anisotropy", "homogeneous_poisson", "e_total", "e_ionic", "e_electronic", "n", "e_ij_max", "weighted_surface_energy_EV_PER_ANG2", "weighted_surface_energy", "weighted_work_function", "surface_anisotropy", "shape_factor", "has_reconstructed", "possible_species", "has_props", "theoretical", "database_IDs"]}