{"builder_meta": null, "nsites": null, "elements": null, "nelements": null, "composition": null, "composition_reduced": null, "formula_pretty": "VP4", "formula_anonymous": "AB4", "chemsys": null, "volume": 157.0739016087692, "density": 3.696641074678414, "density_atomic": 15.707390160876919, "symmetry": null, "property_name": null, "material_id": "mp-8251", "deprecated": null, "deprecation_reasons": null, "last_updated": null, "origins": null, "warnings": null, "structure": {"@module": "pymatgen.core.structure", "@class": "Structure", "charge": 0, "lattice": {"matrix": [[4.7284971, -0.0154433, 2.26158275], [1.86900464, 5.46558891, 0.89326706], [0.00168195, -0.00831138, 6.07179066]], "pbc": [true, true, true], "a": 5.241534112768977, "b": 5.84497788857559, "c": 6.071796581478709, "alpha": 81.27831955164476, "beta": 64.42279337125916, "gamma": 69.41173956255095, "volume": 157.0739016087692}, "properties": {}, "sites": [{"species": [{"element": "V", "occu": 1}], "abc": [0.06326349, 0.25006108, 0.87349391], "properties": {"magmom": -0.0}, "label": "V", "xyz": [0.7679757208862148, 1.35849412880181, 5.670119107745703]}, {"species": [{"element": "V", "occu": 1}], "abc": [0.93673651, 0.7499389200000001, 0.12650609000000002], "properties": {"magmom": -0.0}, "label": "V", "xyz": [5.831207969113785, 4.083340101198191, 3.5565213622542973]}, {"species": [{"element": "P", "occu": 1}], "abc": [0.49864194, 0.31065557, 0.55284479], "properties": {"magmom": 0.0}, "label": "P", "xyz": [2.939373526294759, 1.6856200580190164, 4.76197622996872]}, {"species": [{"element": "P", "occu": 1}], "abc": [0.94851969, 0.1893499, 0.55286184], "properties": {"magmom": 0.0}, "label": "P", "xyz": [4.839898331113223, 1.0156653945812928, 5.671157153806057]}, {"species": [{"element": "P", "occu": 1}], "abc": [0.18627601, 0.32244628000000003, 0.17823198], "properties": {"magmom": 0.0}, "label": "P", "xyz": [1.4837589438340713, 1.7580007420195896, 1.7914965229756712]}, {"species": [{"element": "P", "occu": 1}], "abc": [0.6354083500000001, 0.17764033, 0.17805198], "properties": {"magmom": 0.0}, "label": "P", "xyz": [3.336836615839678, 0.9596163581796531, 2.6768031680409994]}, {"species": [{"element": "P", "occu": 1}], "abc": [0.8137239900000001, 0.67755372, 0.82176802], "properties": {"magmom": 0.0}, "label": "P", "xyz": [5.115424746165929, 3.683833487980411, 7.435143947024329]}, {"species": [{"element": "P", "occu": 1}], "abc": [0.36459165, 0.82235967, 0.82194802], "properties": {"magmom": 0.0}, "label": "P", "xyz": [3.2623470741603224, 4.482217871820347, 6.549837301959]}, {"species": [{"element": "P", "occu": 1}], "abc": [0.05148031, 0.810650099999999, 0.44713816], "properties": {"magmom": 0.0}, "label": "P", "xyz": [1.7592853588867752, 4.426168835418701, 3.555483316193943]}, {"species": [{"element": "P", "occu": 1}], "abc": [0.50135806, 0.68934443, 0.44715521], "properties": {"magmom": 0.0}, "label": "P", "xyz": [3.6598101637052407, 3.7562141719809836, 4.464664240031279]}]}, "task_ids": null, "uncorrected_energy_per_atom": null, "energy_per_atom": -10.40518776, "formation_energy_per_atom": -0.385611564380951, "energy_above_hull": 0.0, "is_stable": true, "equilibrium_reaction_energy_per_atom": null, "decomposes_to": null, "xas": null, "grain_boundaries": null, "band_gap": 0.0, "cbm": null, "vbm": null, "efermi": 7.63189438, "is_gap_direct": null, "is_metal": null, "es_source_calc_id": null, "bandstructure": null, "dos": null, "dos_energy_up": null, "dos_energy_down": null, "is_magnetic": null, "ordering": null, "total_magnetization": 4.6600000000000015e-05, "total_magnetization_normalized_vol": null, "total_magnetization_normalized_formula_units": null, "num_magnetic_sites": null, "num_unique_magnetic_sites": null, "types_of_magnetic_species": null, "bulk_modulus": null, "shear_modulus": null, "universal_anisotropy": null, "homogeneous_poisson": null, "e_total": null, "e_ionic": null, "e_electronic": null, "n": null, "e_ij_max": null, "weighted_surface_energy_EV_PER_ANG2": null, "weighted_surface_energy": null, "weighted_work_function": null, "surface_anisotropy": null, "shape_factor": null, "has_reconstructed": null, "possible_species": null, "has_props": null, "theoretical": null, "database_IDs": null, "fields_not_requested": ["builder_meta", "nsites", "elements", "nelements", "composition", "composition_reduced", "chemsys", "symmetry", "property_name", "deprecated", "deprecation_reasons", "last_updated", "origins", "warnings", "task_ids", "uncorrected_energy_per_atom", "equilibrium_reaction_energy_per_atom", "decomposes_to", "xas", "grain_boundaries", "cbm", "vbm", "is_gap_direct", "is_metal", "es_source_calc_id", "bandstructure", "dos", "dos_energy_up", "dos_energy_down", "is_magnetic", "ordering", "total_magnetization_normalized_vol", "total_magnetization_normalized_formula_units", "num_magnetic_sites", "num_unique_magnetic_sites", "types_of_magnetic_species", "bulk_modulus", "shear_modulus", "universal_anisotropy", "homogeneous_poisson", "e_total", "e_ionic", "e_electronic", "n", "e_ij_max", "weighted_surface_energy_EV_PER_ANG2", "weighted_surface_energy", "weighted_work_function", "surface_anisotropy", "shape_factor", "has_reconstructed", "possible_species", "has_props", "theoretical", "database_IDs"]}