{
  "builder_meta": null,
  "nsites": null,
  "elements": null,
  "nelements": null,
  "composition": null,
  "composition_reduced": null,
  "formula_pretty": "VPd2",
  "formula_anonymous": "AB2",
  "chemsys": null,
  "volume": 42.51655256983561,
  "density": 10.302328371447295,
  "density_atomic": 14.172184189945204,
  "symmetry": null,
  "property_name": null,
  "material_id": "mp-11549",
  "deprecated": null,
  "deprecation_reasons": null,
  "last_updated": null,
  "origins": null,
  "warnings": null,
  "structure": {
    "@module": "pymatgen.core.structure",
    "@class": "Structure",
    "charge": 0,
    "lattice": {
      "matrix": [
        [2.60121725, -1e-8, -0.78931805],
        [-0.45473033, 3.44438046, -1.4985727500000001],
        [0.01941547, -0.01126987, 4.74483569]
      ],
      "pbc": [true, true, true],
      "a": 2.7183366542342333,
      "b": 3.7836829562338177,
      "c": 4.744888796962782,
      "alpha": 113.49764821975381,
      "beta": 106.64549398134565,
      "gamma": 90.00001054033574,
      "volume": 42.51655256983561
    },
    "properties": {},
    "sites": [
      {
        "species": [{ "element": "V", "occu": 1 }],
        "abc": [-0.0, 0.0, 0.0],
        "properties": { "magmom": 0.0 },
        "label": "V",
        "xyz": [0.0, 0.0, 0.0]
      },
      {
        "species": [{ "element": "Pd", "occu": 1 }],
        "abc": [0.66225216, 0.66225216, 0.32450432],
        "properties": { "magmom": -0.0 },
        "label": "Pd",
        "xyz": [1.4278160030715774, 2.2773912713734337, 0.02455905495105304]
      },
      {
        "species": [{ "element": "Pd", "occu": 1 }],
        "abc": [0.33774784, 0.33774784, 0.67549568],
        "properties": { "magmom": -0.0 },
        "label": "Pd",
        "xyz": [0.7380863869284224, 1.1557193086265667, 2.4323858350489473]
      }
    ]
  },
  "task_ids": null,
  "uncorrected_energy_per_atom": null,
  "energy_per_atom": -20.27306376,
  "formation_energy_per_atom": -0.269569443333331,
  "energy_above_hull": 0.0,
  "is_stable": true,
  "equilibrium_reaction_energy_per_atom": null,
  "decomposes_to": null,
  "xas": null,
  "grain_boundaries": null,
  "band_gap": 0.0,
  "cbm": null,
  "vbm": null,
  "efermi": 5.70257113,
  "is_gap_direct": null,
  "is_metal": null,
  "es_source_calc_id": null,
  "bandstructure": null,
  "dos": null,
  "dos_energy_up": null,
  "dos_energy_down": null,
  "is_magnetic": null,
  "ordering": null,
  "total_magnetization": 0.00014089999999900002,
  "total_magnetization_normalized_vol": null,
  "total_magnetization_normalized_formula_units": null,
  "num_magnetic_sites": null,
  "num_unique_magnetic_sites": null,
  "types_of_magnetic_species": null,
  "bulk_modulus": null,
  "shear_modulus": null,
  "universal_anisotropy": null,
  "homogeneous_poisson": null,
  "e_total": null,
  "e_ionic": null,
  "e_electronic": null,
  "n": null,
  "e_ij_max": null,
  "weighted_surface_energy_EV_PER_ANG2": null,
  "weighted_surface_energy": null,
  "weighted_work_function": null,
  "surface_anisotropy": null,
  "shape_factor": null,
  "has_reconstructed": null,
  "possible_species": null,
  "has_props": null,
  "theoretical": null,
  "database_IDs": null,
  "fields_not_requested": [
    "builder_meta",
    "nsites",
    "elements",
    "nelements",
    "composition",
    "composition_reduced",
    "chemsys",
    "symmetry",
    "property_name",
    "deprecated",
    "deprecation_reasons",
    "last_updated",
    "origins",
    "warnings",
    "task_ids",
    "uncorrected_energy_per_atom",
    "equilibrium_reaction_energy_per_atom",
    "decomposes_to",
    "xas",
    "grain_boundaries",
    "cbm",
    "vbm",
    "is_gap_direct",
    "is_metal",
    "es_source_calc_id",
    "bandstructure",
    "dos",
    "dos_energy_up",
    "dos_energy_down",
    "is_magnetic",
    "ordering",
    "total_magnetization_normalized_vol",
    "total_magnetization_normalized_formula_units",
    "num_magnetic_sites",
    "num_unique_magnetic_sites",
    "types_of_magnetic_species",
    "bulk_modulus",
    "shear_modulus",
    "universal_anisotropy",
    "homogeneous_poisson",
    "e_total",
    "e_ionic",
    "e_electronic",
    "n",
    "e_ij_max",
    "weighted_surface_energy_EV_PER_ANG2",
    "weighted_surface_energy",
    "weighted_work_function",
    "surface_anisotropy",
    "shape_factor",
    "has_reconstructed",
    "possible_species",
    "has_props",
    "theoretical",
    "database_IDs"
  ]
}
