{
  "builder_meta": null,
  "nsites": null,
  "elements": null,
  "nelements": null,
  "composition": null,
  "composition_reduced": null,
  "formula_pretty": "VPd4",
  "formula_anonymous": "AB4",
  "chemsys": null,
  "volume": 75.01708081329623,
  "density": 10.550245519433933,
  "density_atomic": 15.003416162659246,
  "symmetry": null,
  "property_name": null,
  "material_id": "mp-1216296",
  "deprecated": null,
  "deprecation_reasons": null,
  "last_updated": null,
  "origins": null,
  "warnings": null,
  "structure": {
    "@module": "pymatgen.core.structure",
    "@class": "Structure",
    "charge": 0,
    "lattice": {
      "matrix": [
        [11.291234, -1.386632, 0.0],
        [11.291234, 1.386632, 0.0],
        [11.120947, 0.0, 2.395673]
      ],
      "pbc": [true, true, true],
      "a": 11.376058787918598,
      "b": 11.376058787918598,
      "c": 11.376058689183084,
      "alpha": 14.002429194407966,
      "beta": 14.002429194407966,
      "gamma": 14.002427417931125,
      "volume": 75.01708081329623
    },
    "properties": {},
    "sites": [
      {
        "species": [{ "element": "V", "occu": 1 }],
        "abc": [0.0, 0.0, 0.0],
        "properties": { "magmom": -0.01 },
        "label": "V",
        "xyz": [0.0, 0.0, 0.0]
      },
      {
        "species": [{ "element": "Pd", "occu": 1 }],
        "abc": [0.604183, 0.604183, 0.604183],
        "properties": { "magmom": -0.002 },
        "label": "Pd",
        "xyz": [20.363030384945, 0.0, 1.447424900159]
      },
      {
        "species": [{ "element": "Pd", "occu": 1 }],
        "abc": [0.201072, 0.201072, 0.201072],
        "properties": { "magmom": -0.008 },
        "label": "Pd",
        "xyz": [6.7768130608799995, 0.0, 0.481702761456]
      },
      {
        "species": [{ "element": "Pd", "occu": 1 }],
        "abc": [0.798928, 0.798928, 0.798928],
        "properties": { "magmom": -0.008 },
        "label": "Pd",
        "xyz": [26.926601939119998, 0.0, 1.9139702385439998]
      },
      {
        "species": [{ "element": "Pd", "occu": 1 }],
        "abc": [0.395817, 0.395817, 0.395817],
        "properties": { "magmom": -0.002 },
        "label": "Pd",
        "xyz": [13.340384615055, 0.0, 0.9482480998409999]
      }
    ]
  },
  "task_ids": null,
  "uncorrected_energy_per_atom": null,
  "energy_per_atom": -21.343760958,
  "formation_energy_per_atom": -0.15748292399999803,
  "energy_above_hull": 0.055600324000000007,
  "is_stable": false,
  "equilibrium_reaction_energy_per_atom": null,
  "decomposes_to": null,
  "xas": null,
  "grain_boundaries": null,
  "band_gap": 0.0,
  "cbm": null,
  "vbm": null,
  "efermi": 4.61566071,
  "is_gap_direct": null,
  "is_metal": null,
  "es_source_calc_id": null,
  "bandstructure": null,
  "dos": null,
  "dos_energy_up": null,
  "dos_energy_down": null,
  "is_magnetic": null,
  "ordering": null,
  "total_magnetization": 0.0344825,
  "total_magnetization_normalized_vol": null,
  "total_magnetization_normalized_formula_units": null,
  "num_magnetic_sites": null,
  "num_unique_magnetic_sites": null,
  "types_of_magnetic_species": null,
  "bulk_modulus": null,
  "shear_modulus": null,
  "universal_anisotropy": null,
  "homogeneous_poisson": null,
  "e_total": null,
  "e_ionic": null,
  "e_electronic": null,
  "n": null,
  "e_ij_max": null,
  "weighted_surface_energy_EV_PER_ANG2": null,
  "weighted_surface_energy": null,
  "weighted_work_function": null,
  "surface_anisotropy": null,
  "shape_factor": null,
  "has_reconstructed": null,
  "possible_species": null,
  "has_props": null,
  "theoretical": null,
  "database_IDs": null,
  "fields_not_requested": [
    "builder_meta",
    "nsites",
    "elements",
    "nelements",
    "composition",
    "composition_reduced",
    "chemsys",
    "symmetry",
    "property_name",
    "deprecated",
    "deprecation_reasons",
    "last_updated",
    "origins",
    "warnings",
    "task_ids",
    "uncorrected_energy_per_atom",
    "equilibrium_reaction_energy_per_atom",
    "decomposes_to",
    "xas",
    "grain_boundaries",
    "cbm",
    "vbm",
    "is_gap_direct",
    "is_metal",
    "es_source_calc_id",
    "bandstructure",
    "dos",
    "dos_energy_up",
    "dos_energy_down",
    "is_magnetic",
    "ordering",
    "total_magnetization_normalized_vol",
    "total_magnetization_normalized_formula_units",
    "num_magnetic_sites",
    "num_unique_magnetic_sites",
    "types_of_magnetic_species",
    "bulk_modulus",
    "shear_modulus",
    "universal_anisotropy",
    "homogeneous_poisson",
    "e_total",
    "e_ionic",
    "e_electronic",
    "n",
    "e_ij_max",
    "weighted_surface_energy_EV_PER_ANG2",
    "weighted_surface_energy",
    "weighted_work_function",
    "surface_anisotropy",
    "shape_factor",
    "has_reconstructed",
    "possible_species",
    "has_props",
    "theoretical",
    "database_IDs"
  ]
}
