{"builder_meta": null, "nsites": null, "elements": null, "nelements": null, "composition": null, "composition_reduced": null, "formula_pretty": "VPt8", "formula_anonymous": "AB8", "chemsys": null, "volume": 135.052394215597, "density": 19.8156218744095, "density_atomic": 15.005821579510776, "symmetry": null, "property_name": null, "material_id": "mp-1079997", "deprecated": null, "deprecation_reasons": null, "last_updated": null, "origins": null, "warnings": null, "structure": {"@module": "pymatgen.core.structure", "@class": "Structure", "charge": 0, "lattice": {"matrix": [[0.00435428, -0.0, 3.88989106], [-4.16510959, 4.16564315, 1.94031799], [-4.16510959, -4.16564213, 1.94031799]], "pbc": [true, true, true], "a": 3.8898934970539027, "b": 6.202060516648442, "c": 6.2020598315606845, "alpha": 84.3898026764958, "beta": 71.81425027178737, "gamma": 71.81425235090177, "volume": 135.05239421559702}, "properties": {}, "sites": [{"species": [{"element": "V", "occu": 1}], "abc": [-5.04e-06, 1.00000634, 1.00000634], "properties": {"magmom": -0.0}, "label": "V", "xyz": [-8.330272015535172, 1.0200064668453024e-06, 3.8806409781811713]}, {"species": [{"element": "Pt", "occu": 1}], "abc": [0.33931833, 0.9999943, 0.32110573000000003], "properties": {"magmom": 0.0}, "label": "Pt", "xyz": [-5.5010489172843355, 2.82800784876164, 3.8832654931596697]}, {"species": [{"element": "Pt", "occu": 1}], "abc": [0.66068001, 4.759999999999998e-06, 0.67889468], "properties": {"magmom": 0.0}, "label": "Pt", "xyz": [-2.8248137824356867, -2.828012452379474, 3.8872540612526363]}, {"species": [{"element": "Pt", "occu": 1}], "abc": [0.66068001, 0.67889468, 4.759999999999998e-06], "properties": {"magmom": 0.0}, "label": "Pt", "xyz": [-2.8248137824356867, 2.8280131448569032, 3.8872540612526363]}, {"species": [{"element": "Pt", "occu": 1}], "abc": [0.33931833, 0.32110573000000003, 0.9999943], "properties": {"magmom": 0.0}, "label": "Pt", "xyz": [-5.501048917284336, -2.828006501239609, 3.8832654931596697]}, {"species": [{"element": "Pt", "occu": 1}], "abc": [1.00000156, 0.32800392, 0.67199295], "properties": {"magmom": 0.0}, "label": "Pt", "xyz": [-4.160742266414307, -1.4329348610618355, 5.830209045034746]}, {"species": [{"element": "Pt", "occu": 1}], "abc": [1.00000156, 0.67199295, 0.32800392], "properties": {"magmom": 0.0}, "label": "Pt", "xyz": [-4.160742266414307, 1.432935881058643, 5.830209045034745]}, {"species": [{"element": "Pt", "occu": 1}], "abc": [0.6721767200000001, 0.32799787, 0.32799787], "properties": {"magmom": 0.0}, "label": "Pt", "xyz": [-2.7293673020247855, 3.345578274416283e-07, 3.887534549553486]}, {"species": [{"element": "Pt", "occu": 1}], "abc": [0.32782954000000003, 0.67199845, 0.67199845], "properties": {"magmom": 0.0}, "label": "Pt", "xyz": [-5.59646691551084, 6.85438418912554e-07, 3.883002560424144]}]}, "task_ids": null, "uncorrected_energy_per_atom": null, "energy_per_atom": -6.666051126666667, "formation_energy_per_atom": -0.260165278888888, "energy_above_hull": 0.0, "is_stable": true, "equilibrium_reaction_energy_per_atom": null, "decomposes_to": null, "xas": null, "grain_boundaries": null, "band_gap": 0.0, "cbm": null, "vbm": null, "efermi": 7.43056285, "is_gap_direct": null, "is_metal": null, "es_source_calc_id": null, "bandstructure": null, "dos": null, "dos_energy_up": null, "dos_energy_down": null, "is_magnetic": null, "ordering": null, "total_magnetization": 1.3e-06, "total_magnetization_normalized_vol": null, "total_magnetization_normalized_formula_units": null, "num_magnetic_sites": null, "num_unique_magnetic_sites": null, "types_of_magnetic_species": null, "bulk_modulus": null, "shear_modulus": null, "universal_anisotropy": null, "homogeneous_poisson": null, "e_total": null, "e_ionic": null, "e_electronic": null, "n": null, "e_ij_max": null, "weighted_surface_energy_EV_PER_ANG2": null, "weighted_surface_energy": null, "weighted_work_function": null, "surface_anisotropy": null, "shape_factor": null, "has_reconstructed": null, "possible_species": null, "has_props": null, "theoretical": null, "database_IDs": null, "fields_not_requested": ["builder_meta", "nsites", "elements", "nelements", "composition", "composition_reduced", "chemsys", "symmetry", "property_name", "deprecated", "deprecation_reasons", "last_updated", "origins", "warnings", "task_ids", "uncorrected_energy_per_atom", "equilibrium_reaction_energy_per_atom", "decomposes_to", "xas", "grain_boundaries", "cbm", "vbm", "is_gap_direct", "is_metal", "es_source_calc_id", "bandstructure", "dos", "dos_energy_up", "dos_energy_down", "is_magnetic", "ordering", "total_magnetization_normalized_vol", "total_magnetization_normalized_formula_units", "num_magnetic_sites", "num_unique_magnetic_sites", "types_of_magnetic_species", "bulk_modulus", "shear_modulus", "universal_anisotropy", "homogeneous_poisson", "e_total", "e_ionic", "e_electronic", "n", "e_ij_max", "weighted_surface_energy_EV_PER_ANG2", "weighted_surface_energy", "weighted_work_function", "surface_anisotropy", "shape_factor", "has_reconstructed", "possible_species", "has_props", "theoretical", "database_IDs"]}