{"builder_meta": null, "nsites": null, "elements": null, "nelements": null, "composition": null, "composition_reduced": null, "formula_pretty": "VRh", "formula_anonymous": "AB", "chemsys": null, "volume": 53.749063160821706, "density": 9.505987221203302, "density_atomic": 13.437265790205426, "symmetry": null, "property_name": null, "material_id": "mp-971751", "deprecated": null, "deprecation_reasons": null, "last_updated": null, "origins": null, "warnings": null, "structure": {"@module": "pymatgen.core.structure", "@class": "Structure", "charge": 0, "lattice": {"matrix": [[2.87337913, 3.34963812, 0.0], [-2.87337913, 3.34963812, 0.0], [0.0, 0.0, 2.79222287]], "pbc": [true, true, true], "a": 4.413205542423408, "b": 4.413205542423408, "c": 2.79222287, "alpha": 90.0, "beta": 90.0, "gamma": 81.24715880973011, "volume": 53.749063160821706}, "properties": {}, "sites": [{"species": [{"element": "V", "occu": 1}], "abc": [0.29627889, 0.70372011, -0.0], "properties": {"magmom": -0.0}, "label": "V", "xyz": [-1.1707330982497388, 3.34963477036188, 0.0]}, {"species": [{"element": "V", "occu": 1}], "abc": [0.70372011, 0.29627889, -0.0], "properties": {"magmom": -0.0}, "label": "V", "xyz": [1.1707330982497388, 3.34963477036188, 0.0]}, {"species": [{"element": "Rh", "occu": 1}], "abc": [0.21594552, 0.21594552, 0.5], "properties": {"magmom": 0.0}, "label": "Rh", "xyz": [0.0, 1.4466786912704448, 1.396111435]}, {"species": [{"element": "Rh", "occu": 1}], "abc": [0.78405548, 0.78405548, 0.5], "properties": {"magmom": 0.0}, "label": "Rh", "xyz": [0.0, 5.252604248005795, 1.396111435]}]}, "task_ids": null, "uncorrected_energy_per_atom": null, "energy_per_atom": -19.5445587575, "formation_energy_per_atom": -0.4316565775, "energy_above_hull": 0.0, "is_stable": true, "equilibrium_reaction_energy_per_atom": null, "decomposes_to": null, "xas": null, "grain_boundaries": null, "band_gap": 0.0, "cbm": null, "vbm": null, "efermi": 7.00329328, "is_gap_direct": null, "is_metal": null, "es_source_calc_id": null, "bandstructure": null, "dos": null, "dos_energy_up": null, "dos_energy_down": null, "is_magnetic": null, "ordering": null, "total_magnetization": 0.0, "total_magnetization_normalized_vol": null, "total_magnetization_normalized_formula_units": null, "num_magnetic_sites": null, "num_unique_magnetic_sites": null, "types_of_magnetic_species": null, "bulk_modulus": null, "shear_modulus": null, "universal_anisotropy": null, "homogeneous_poisson": null, "e_total": null, "e_ionic": null, "e_electronic": null, "n": null, "e_ij_max": null, "weighted_surface_energy_EV_PER_ANG2": null, "weighted_surface_energy": null, "weighted_work_function": null, "surface_anisotropy": null, "shape_factor": null, "has_reconstructed": null, "possible_species": null, "has_props": null, "theoretical": null, "database_IDs": null, "fields_not_requested": ["builder_meta", "nsites", "elements", "nelements", "composition", "composition_reduced", "chemsys", "symmetry", "property_name", "deprecated", "deprecation_reasons", "last_updated", "origins", "warnings", "task_ids", "uncorrected_energy_per_atom", "equilibrium_reaction_energy_per_atom", "decomposes_to", "xas", "grain_boundaries", "cbm", "vbm", "is_gap_direct", "is_metal", "es_source_calc_id", "bandstructure", "dos", "dos_energy_up", "dos_energy_down", "is_magnetic", "ordering", "total_magnetization_normalized_vol", "total_magnetization_normalized_formula_units", "num_magnetic_sites", "num_unique_magnetic_sites", "types_of_magnetic_species", "bulk_modulus", "shear_modulus", "universal_anisotropy", "homogeneous_poisson", "e_total", "e_ionic", "e_electronic", "n", "e_ij_max", "weighted_surface_energy_EV_PER_ANG2", "weighted_surface_energy", "weighted_work_function", "surface_anisotropy", "shape_factor", "has_reconstructed", "possible_species", "has_props", "theoretical", "database_IDs"]}