{"builder_meta": null, "nsites": null, "elements": null, "nelements": null, "composition": null, "composition_reduced": null, "formula_pretty": "VRu3", "formula_anonymous": "AB3", "chemsys": null, "volume": 108.03271120176173, "density": 10.887117331466172, "density_atomic": 13.504088900220216, "symmetry": null, "property_name": null, "material_id": "mp-971788", "deprecated": null, "deprecation_reasons": null, "last_updated": null, "origins": null, "warnings": null, "structure": {"@module": "pymatgen.core.structure", "@class": "Structure", "charge": 0, "lattice": {"matrix": [[5.42226977, -0.0014590200000000001, 0.0], [-2.71239799, 4.69570406, 0.0], [0.0, 0.0, 4.24366354]], "pbc": [true, true, true], "a": 5.4222699662959615, "b": 5.42279812230333, "c": 4.24366354, "alpha": 90.0, "beta": 90.0, "gamma": 120.02760502754437, "volume": 108.03271120176173}, "properties": {}, "sites": [{"species": [{"element": "V", "occu": 1}], "abc": [0.33297149, 0.6668961800000001, 0.750000999999999], "properties": {"magmom": 0.618}, "label": "V", "xyz": [-0.003426613671821066, 3.131061287961151, 3.1827518986635357]}, {"species": [{"element": "V", "occu": 1}], "abc": [0.66697792, 0.33320519, 0.250001], "properties": {"magmom": 0.618}, "label": "V", "xyz": [2.71274912525991, 1.5636598293712327, 1.06092012866354]}, {"species": [{"element": "Ru", "occu": 1}], "abc": [0.16949047, 0.33836716, 0.250001], "properties": {"magmom": -0.122}, "label": "Ru", "xyz": [0.001236647118083578, 1.5886247569971301, 1.06092012866354]}, {"species": [{"element": "Ru", "occu": 1}], "abc": [0.6616600300000001, 0.83058758, 0.250001], "properties": {"magmom": -0.121}, "label": "Ru", "xyz": [1.3348150961753293, 3.8992280963746038, 1.06092012866354]}, {"species": [{"element": "Ru", "occu": 1}], "abc": [0.16935841000000001, 0.8307458, 0.250001], "properties": {"magmom": -0.125}, "label": "Ru", "xyz": [-1.3350062512826764, 3.9006893285805897, 1.06092012866354]}, {"species": [{"element": "Ru", "occu": 1}], "abc": [0.83052077, 0.6615965500000001, 0.750000999999999], "properties": {"magmom": -0.122}, "label": "Ru", "xyz": [2.708794512117188, 3.1054498595031474, 3.1827518986635357]}, {"species": [{"element": "Ru", "occu": 1}], "abc": [0.33836115, 0.16938985, 0.750000999999999], "properties": {"magmom": -0.121}, "label": "Ru", "xyz": [1.375232746321034, 0.794910930682718, 3.1827518986635357]}, {"species": [{"element": "Ru", "occu": 1}], "abc": [0.8306647500000001, 0.16921268, 0.750000999999999], "properties": {"magmom": -0.125}, "label": "Ru", "xyz": [4.045116229815094, 0.7933607119959358, 3.1827518986635357]}]}, "task_ids": null, "uncorrected_energy_per_atom": null, "energy_per_atom": -22.70863265375, "formation_energy_per_atom": -0.11783725, "energy_above_hull": 0.035611196249995, "is_stable": false, "equilibrium_reaction_energy_per_atom": null, "decomposes_to": null, "xas": null, "grain_boundaries": null, "band_gap": 0.0, "cbm": null, "vbm": null, "efermi": 7.62256145, "is_gap_direct": null, "is_metal": null, "es_source_calc_id": null, "bandstructure": null, "dos": null, "dos_energy_up": null, "dos_energy_down": null, "is_magnetic": null, "ordering": null, "total_magnetization": 0.6753064, "total_magnetization_normalized_vol": null, "total_magnetization_normalized_formula_units": null, "num_magnetic_sites": null, "num_unique_magnetic_sites": null, "types_of_magnetic_species": null, "bulk_modulus": null, "shear_modulus": null, "universal_anisotropy": null, "homogeneous_poisson": null, "e_total": null, "e_ionic": null, "e_electronic": null, "n": null, "e_ij_max": null, "weighted_surface_energy_EV_PER_ANG2": null, "weighted_surface_energy": null, "weighted_work_function": null, "surface_anisotropy": null, "shape_factor": null, "has_reconstructed": null, "possible_species": null, "has_props": null, "theoretical": null, "database_IDs": null, "fields_not_requested": ["builder_meta", "nsites", "elements", "nelements", "composition", "composition_reduced", "chemsys", "symmetry", "property_name", "deprecated", "deprecation_reasons", "last_updated", "origins", "warnings", "task_ids", "uncorrected_energy_per_atom", "equilibrium_reaction_energy_per_atom", "decomposes_to", "xas", "grain_boundaries", "cbm", "vbm", "is_gap_direct", "is_metal", "es_source_calc_id", "bandstructure", "dos", "dos_energy_up", "dos_energy_down", "is_magnetic", "ordering", "total_magnetization_normalized_vol", "total_magnetization_normalized_formula_units", "num_magnetic_sites", "num_unique_magnetic_sites", "types_of_magnetic_species", "bulk_modulus", "shear_modulus", "universal_anisotropy", "homogeneous_poisson", "e_total", "e_ionic", "e_electronic", "n", "e_ij_max", "weighted_surface_energy_EV_PER_ANG2", "weighted_surface_energy", "weighted_work_function", "surface_anisotropy", "shape_factor", "has_reconstructed", "possible_species", "has_props", "theoretical", "database_IDs"]}