{"builder_meta": null, "nsites": null, "elements": null, "nelements": null, "composition": null, "composition_reduced": null, "formula_pretty": "VRu4", "formula_anonymous": "AB4", "chemsys": null, "volume": 70.69193871932718, "density": 10.693059186104696, "density_atomic": 14.138387743865437, "symmetry": null, "property_name": null, "material_id": "mp-1216276", "deprecated": null, "deprecation_reasons": null, "last_updated": null, "origins": null, "warnings": null, "structure": {"@module": "pymatgen.core.structure", "@class": "Structure", "charge": 0, "lattice": {"matrix": [[0.0, 2.269374, 11.001965], [1.415675, 0.0, 11.001965], [1.415675, 2.269374, 0.0]], "pbc": [true, true, true], "a": 11.233578780295307, "b": 11.092671885837515, "c": 2.6747325207394104, "alpha": 86.12685242015161, "beta": 80.13070685393745, "gamma": 13.742440725910926, "volume": 70.69193871932718}, "properties": {}, "sites": [{"species": [{"element": "V", "occu": 1}], "abc": [0.0, 0.0, 0.0], "properties": {"magmom": 0.004}, "label": "V", "xyz": [0.0, 0.0, 0.0]}, {"species": [{"element": "Ru", "occu": 1}], "abc": [0.406688, 0.406688, 0.593312], "properties": {"magmom": -0.003}, "label": "Ru", "xyz": [1.415675, 2.269374, 8.94873428384]}, {"species": [{"element": "Ru", "occu": 1}], "abc": [0.800307, 0.800307, 0.199692999999999], "properties": {"magmom": -0.007}, "label": "Ru", "xyz": [1.4156749999999985, 2.269373999999998, 17.60989920651]}, {"species": [{"element": "Ru", "occu": 1}], "abc": [0.199692999999999, 0.199692999999999, 0.800307], "properties": {"magmom": -0.007}, "label": "Ru", "xyz": [1.4156749999999985, 2.269373999999998, 4.3940307934899785]}, {"species": [{"element": "Ru", "occu": 1}], "abc": [0.593312, 0.593312, 0.406688], "properties": {"magmom": -0.003}, "label": "Ru", "xyz": [1.415675, 2.269374, 13.055195716159998]}]}, "task_ids": null, "uncorrected_energy_per_atom": null, "energy_per_atom": -22.923569317000002, "formation_energy_per_atom": 0.233974065000001, "energy_above_hull": 0.356732822000001, "is_stable": false, "equilibrium_reaction_energy_per_atom": null, "decomposes_to": null, "xas": null, "grain_boundaries": null, "band_gap": 0.0, "cbm": null, "vbm": null, "efermi": 7.6783912, "is_gap_direct": null, "is_metal": null, "es_source_calc_id": null, "bandstructure": null, "dos": null, "dos_energy_up": null, "dos_energy_down": null, "is_magnetic": null, "ordering": null, "total_magnetization": 0.019636999999999002, "total_magnetization_normalized_vol": null, "total_magnetization_normalized_formula_units": null, "num_magnetic_sites": null, "num_unique_magnetic_sites": null, "types_of_magnetic_species": null, "bulk_modulus": null, "shear_modulus": null, "universal_anisotropy": null, "homogeneous_poisson": null, "e_total": null, "e_ionic": null, "e_electronic": null, "n": null, "e_ij_max": null, "weighted_surface_energy_EV_PER_ANG2": null, "weighted_surface_energy": null, "weighted_work_function": null, "surface_anisotropy": null, "shape_factor": null, "has_reconstructed": null, "possible_species": null, "has_props": null, "theoretical": null, "database_IDs": null, "fields_not_requested": ["builder_meta", "nsites", "elements", "nelements", "composition", "composition_reduced", "chemsys", "symmetry", "property_name", "deprecated", "deprecation_reasons", "last_updated", "origins", "warnings", "task_ids", "uncorrected_energy_per_atom", "equilibrium_reaction_energy_per_atom", "decomposes_to", "xas", "grain_boundaries", "cbm", "vbm", "is_gap_direct", "is_metal", "es_source_calc_id", "bandstructure", "dos", "dos_energy_up", "dos_energy_down", "is_magnetic", "ordering", "total_magnetization_normalized_vol", "total_magnetization_normalized_formula_units", "num_magnetic_sites", "num_unique_magnetic_sites", "types_of_magnetic_species", "bulk_modulus", "shear_modulus", "universal_anisotropy", "homogeneous_poisson", "e_total", "e_ionic", "e_electronic", "n", "e_ij_max", "weighted_surface_energy_EV_PER_ANG2", "weighted_surface_energy", "weighted_work_function", "surface_anisotropy", "shape_factor", "has_reconstructed", "possible_species", "has_props", "theoretical", "database_IDs"]}