{"builder_meta": null, "nsites": null, "elements": null, "nelements": null, "composition": null, "composition_reduced": null, "formula_pretty": "VS", "formula_anonymous": "AB", "chemsys": null, "volume": 108.7116478292818, "density": 5.071601388958302, "density_atomic": 13.588955978660225, "symmetry": null, "property_name": null, "material_id": "mp-1868", "deprecated": null, "deprecation_reasons": null, "last_updated": null, "origins": null, "warnings": null, "structure": {"@module": "pymatgen.core.structure", "@class": "Structure", "charge": 0, "lattice": {"matrix": [[3.208094, 0.0, 0.0], [0.0, 5.792848, 0.0], [0.0, 0.0, 5.849744]], "pbc": [true, true, true], "a": 3.208094, "b": 5.792848, "c": 5.849744, "alpha": 90.0, "beta": 90.0, "gamma": 90.0, "volume": 108.7116478292818}, "properties": {}, "sites": [{"species": [{"element": "V", "occu": 1}], "abc": [0.25, 0.802256, 0.9896959999999991], "properties": {"magmom": 0.005}, "label": "V", "xyz": [0.8020235, 4.647347065088, 5.7894682378239954]}, {"species": [{"element": "V", "occu": 1}], "abc": [0.25, 0.697743999999999, 0.489695999999999], "properties": {"magmom": 0.005}, "label": "V", "xyz": [0.8020235, 4.041924934911995, 2.8645962378239944]}, {"species": [{"element": "V", "occu": 1}], "abc": [0.75, 0.302255999999999, 0.510304], "properties": {"magmom": 0.005}, "label": "V", "xyz": [2.4060705000000002, 1.7509230650879943, 2.985147762176]}, {"species": [{"element": "V", "occu": 1}], "abc": [0.75, 0.197744, 0.010303999999999001], "properties": {"magmom": 0.005}, "label": "V", "xyz": [2.4060705000000002, 1.145500934912, 0.06027576217599416]}, {"species": [{"element": "S", "occu": 1}], "abc": [0.75, 0.923163, 0.719776], "properties": {"magmom": -0.0}, "label": "S", "xyz": [2.4060705000000002, 5.347742938224, 4.210505337344]}, {"species": [{"element": "S", "occu": 1}], "abc": [0.25, 0.076837, 0.280224], "properties": {"magmom": -0.0}, "label": "S", "xyz": [0.8020235, 0.445105061776, 1.6392386626559998]}, {"species": [{"element": "S", "occu": 1}], "abc": [0.25, 0.423162999999999, 0.780223999999999], "properties": {"magmom": -0.0}, "label": "S", "xyz": [0.8020235, 2.451318938223994, 4.564110662655994]}, {"species": [{"element": "S", "occu": 1}], "abc": [0.75, 0.576836999999999, 0.219776], "properties": {"magmom": -0.0}, "label": "S", "xyz": [2.4060705000000002, 3.3415290617759945, 1.285633337344]}]}, "task_ids": null, "uncorrected_energy_per_atom": null, "energy_per_atom": -7.75615828875, "formation_energy_per_atom": -1.145025469999999, "energy_above_hull": 0.08773910062499701, "is_stable": false, "equilibrium_reaction_energy_per_atom": null, "decomposes_to": null, "xas": null, "grain_boundaries": null, "band_gap": 0.0, "cbm": null, "vbm": null, "efermi": 8.70232476, "is_gap_direct": null, "is_metal": null, "es_source_calc_id": null, "bandstructure": null, "dos": null, "dos_energy_up": null, "dos_energy_down": null, "is_magnetic": null, "ordering": null, "total_magnetization": 0.020635399999999002, "total_magnetization_normalized_vol": null, "total_magnetization_normalized_formula_units": null, "num_magnetic_sites": null, "num_unique_magnetic_sites": null, "types_of_magnetic_species": null, "bulk_modulus": null, "shear_modulus": null, "universal_anisotropy": null, "homogeneous_poisson": null, "e_total": null, "e_ionic": null, "e_electronic": null, "n": null, "e_ij_max": null, "weighted_surface_energy_EV_PER_ANG2": null, "weighted_surface_energy": null, "weighted_work_function": null, "surface_anisotropy": null, "shape_factor": null, "has_reconstructed": null, "possible_species": null, "has_props": null, "theoretical": null, "database_IDs": null, "fields_not_requested": ["builder_meta", "nsites", "elements", "nelements", "composition", "composition_reduced", "chemsys", "symmetry", "property_name", "deprecated", "deprecation_reasons", "last_updated", "origins", "warnings", "task_ids", "uncorrected_energy_per_atom", "equilibrium_reaction_energy_per_atom", "decomposes_to", "xas", "grain_boundaries", "cbm", "vbm", "is_gap_direct", "is_metal", "es_source_calc_id", "bandstructure", "dos", "dos_energy_up", "dos_energy_down", "is_magnetic", "ordering", "total_magnetization_normalized_vol", "total_magnetization_normalized_formula_units", "num_magnetic_sites", "num_unique_magnetic_sites", "types_of_magnetic_species", "bulk_modulus", "shear_modulus", "universal_anisotropy", "homogeneous_poisson", "e_total", "e_ionic", "e_electronic", "n", "e_ij_max", "weighted_surface_energy_EV_PER_ANG2", "weighted_surface_energy", "weighted_work_function", "surface_anisotropy", "shape_factor", "has_reconstructed", "possible_species", "has_props", "theoretical", "database_IDs"]}