{"builder_meta": null, "nsites": null, "elements": null, "nelements": null, "composition": null, "composition_reduced": null, "formula_pretty": "VS4", "formula_anonymous": "AB4", "chemsys": null, "volume": 446.1816509535987, "density": 2.667712496982679, "density_atomic": 22.309082547679935, "symmetry": null, "property_name": null, "material_id": "mp-541155", "deprecated": null, "deprecation_reasons": null, "last_updated": null, "origins": null, "warnings": null, "structure": {"@module": "pymatgen.core.structure", "@class": "Structure", "charge": 0, "lattice": {"matrix": [[6.7069822, 0.10879702000000001, 2.0408482], [2.11475771, 7.98402511, 1.59081157], [0.17178166, -0.10571607, 8.40755356]], "pbc": [true, true, true], "a": 7.011455512097395, "b": 8.411155603147574, "c": 8.409972752062712, "alpha": 79.49738984875519, "beta": 71.92066618264124, "gamma": 71.92359300431903, "volume": 446.1816509535987}, "properties": {}, "sites": [{"species": [{"element": "V", "occu": 1}], "abc": [0.11498981, 0.88594782, 0.8844693100000001], "properties": {"magmom": 0.0}, "label": "V", "xyz": [2.796735198144929, 6.992437570199316, 9.080275885230364]}, {"species": [{"element": "V", "occu": 1}], "abc": [0.88501019, 0.11405218, 0.11553069], "properties": {"magmom": 0.0}, "label": "V", "xyz": [6.1967863718550715, 0.9946684898006853, 2.9589374447696373]}, {"species": [{"element": "V", "occu": 1}], "abc": [0.3849855, 0.61556562, 0.61407974], "properties": {"magmom": 0.0}, "label": "V", "xyz": [3.989350673773598, 4.891658545296507, 6.927854179252197]}, {"species": [{"element": "V", "occu": 1}], "abc": [0.6150145, 0.38443438, 0.38592026], "properties": {"magmom": 0.0}, "label": "V", "xyz": [5.004170896226402, 3.0954475147034937, 5.111359150747802]}, {"species": [{"element": "S", "occu": 1}], "abc": [0.54432066, 0.6805934, 0.32514841], "properties": {"magmom": 0.0}, "label": "S", "xyz": [5.145893651353526, 5.458721848960758, 4.92727436639329]}, {"species": [{"element": "S", "occu": 1}], "abc": [0.25687701, 0.42319265, 0.53047152], "properties": {"magmom": -0.0}, "label": "S", "xyz": [2.708944731350377, 3.3506488328206254, 5.657434463893454]}, {"species": [{"element": "S", "occu": 1}], "abc": [0.45567934, 0.3194066, 0.6748515900000001], "properties": {"magmom": 0.0}, "label": "S", "xyz": [3.8476279186464737, 2.5283842110392416, 7.111938963606711]}, {"species": [{"element": "S", "occu": 1}], "abc": [0.24309205, 0.9695270500000001, 0.07685075], "properties": {"magmom": -0.0}, "label": "S", "xyz": [3.693930405759811, 7.759051643383365, 2.684575617995949]}, {"species": [{"element": "S", "occu": 1}], "abc": [0.96677225, 0.35174937, 0.16760991], "properties": {"magmom": -0.0}, "label": "S", "xyz": [7.256781272971343, 2.895838681347122, 3.941791669270441]}, {"species": [{"element": "S", "occu": 1}], "abc": [0.44719551, 0.87369241, 0.6861914100000001], "properties": {"magmom": -0.0}, "label": "S", "xyz": [4.964855185193444, 6.951694219568837, 8.071729178067686]}, {"species": [{"element": "S", "occu": 1}], "abc": [0.94713676, 0.18621275, 0.37372286], "properties": {"magmom": -0.0}, "label": "S", "xyz": [6.8104229723192224, 1.5502644167942476, 5.371286711027731]}, {"species": [{"element": "S", "occu": 1}], "abc": [0.75690795, 0.030472950000000002, 0.92314925], "properties": {"magmom": -0.0}, "label": "S", "xyz": [5.29959116424019, 0.22805441661663603, 9.354637712004052]}, {"species": [{"element": "S", "occu": 1}], "abc": [0.74312299, 0.57680735, 0.46952848], "properties": {"magmom": -0.0}, "label": "S", "xyz": [6.284576838649623, 4.636457227179375, 6.381778866106547]}, {"species": [{"element": "S", "occu": 1}], "abc": [0.46675744, 0.66761356, 0.85175712], "properties": {"magmom": -0.0}, "label": "S", "xyz": [4.688691017098535, 5.290980830030402, 9.175822063308846]}, {"species": [{"element": "S", "occu": 1}], "abc": [0.55280449, 0.12630759, 0.31380859], "properties": {"magmom": -0.0}, "label": "S", "xyz": [4.028666384806556, 1.0354118404311634, 3.9674841519323145]}, {"species": [{"element": "S", "occu": 1}], "abc": [0.05286324, 0.81378725, 0.62627714], "properties": {"magmom": -0.0}, "label": "S", "xyz": [2.1830985976807775, 6.436841643205753, 6.6679266189722695]}, {"species": [{"element": "S", "occu": 1}], "abc": [0.03322775, 0.64825063, 0.83239009], "properties": {"magmom": -0.0}, "label": "S", "xyz": [1.736740297028657, 5.091267378652878, 8.097421660729559]}, {"species": [{"element": "S", "occu": 1}], "abc": [0.04422861, 0.82519642, 0.18066072], "properties": {"magmom": 0.0}, "label": "S", "xyz": [2.0727651898385355, 6.574102137607078, 2.9219105711537448]}, {"species": [{"element": "S", "occu": 1}], "abc": [0.53324256, 0.33238644, 0.14824288], "properties": {"magmom": -0.0}, "label": "S", "xyz": [4.304830552901465, 2.6961252299695984, 2.8633912666911554]}, {"species": [{"element": "S", "occu": 1}], "abc": [0.95577139, 0.17480358000000001, 0.81933928], "properties": {"magmom": 0.0}, "label": "S", "xyz": [6.920756380161465, 1.413003922392922, 9.117302758846256]}]}, "task_ids": null, "uncorrected_energy_per_atom": null, "energy_per_atom": -6.0777620415, "formation_energy_per_atom": -0.9502931734999991, "energy_above_hull": 0.0, "is_stable": true, "equilibrium_reaction_energy_per_atom": null, "decomposes_to": null, "xas": null, "grain_boundaries": null, "band_gap": 0.9239, "cbm": null, "vbm": null, "efermi": 3.07144873, "is_gap_direct": null, "is_metal": null, "es_source_calc_id": null, "bandstructure": null, "dos": null, "dos_energy_up": null, "dos_energy_down": null, "is_magnetic": null, "ordering": null, "total_magnetization": 0.0, "total_magnetization_normalized_vol": null, "total_magnetization_normalized_formula_units": null, "num_magnetic_sites": null, "num_unique_magnetic_sites": null, "types_of_magnetic_species": null, "bulk_modulus": null, "shear_modulus": null, "universal_anisotropy": null, "homogeneous_poisson": null, "e_total": null, "e_ionic": null, "e_electronic": null, "n": null, "e_ij_max": null, "weighted_surface_energy_EV_PER_ANG2": null, "weighted_surface_energy": null, "weighted_work_function": null, "surface_anisotropy": null, "shape_factor": null, "has_reconstructed": null, "possible_species": null, "has_props": null, "theoretical": null, "database_IDs": null, "fields_not_requested": ["builder_meta", "nsites", "elements", "nelements", "composition", "composition_reduced", "chemsys", "symmetry", "property_name", "deprecated", "deprecation_reasons", "last_updated", "origins", "warnings", "task_ids", "uncorrected_energy_per_atom", "equilibrium_reaction_energy_per_atom", "decomposes_to", "xas", "grain_boundaries", "cbm", "vbm", "is_gap_direct", "is_metal", "es_source_calc_id", "bandstructure", "dos", "dos_energy_up", "dos_energy_down", "is_magnetic", "ordering", "total_magnetization_normalized_vol", "total_magnetization_normalized_formula_units", "num_magnetic_sites", "num_unique_magnetic_sites", "types_of_magnetic_species", "bulk_modulus", "shear_modulus", "universal_anisotropy", "homogeneous_poisson", "e_total", "e_ionic", "e_electronic", "n", "e_ij_max", "weighted_surface_energy_EV_PER_ANG2", "weighted_surface_energy", "weighted_work_function", "surface_anisotropy", "shape_factor", "has_reconstructed", "possible_species", "has_props", "theoretical", "database_IDs"]}