{
  "builder_meta": null,
  "nsites": null,
  "elements": null,
  "nelements": null,
  "composition": null,
  "composition_reduced": null,
  "formula_pretty": "VSb2",
  "formula_anonymous": "AB2",
  "chemsys": null,
  "volume": 121.11404154889459,
  "density": 8.0744531039737,
  "density_atomic": 20.18567359148243,
  "symmetry": null,
  "property_name": null,
  "material_id": "mp-2851",
  "deprecated": null,
  "deprecation_reasons": null,
  "last_updated": null,
  "origins": null,
  "warnings": null,
  "structure": {
    "@module": "pymatgen.core.structure",
    "@class": "Structure",
    "charge": 0,
    "lattice": {
      "matrix": [
        [5.22481257, -0.005752999999999, -1.46261928],
        [-3.0072697, 4.27259063, -1.46261928],
        [0.00298993, 0.005752999999999, 5.42567304]
      ],
      "pbc": [true, true, true],
      "a": 5.42567550143452,
      "b": 5.42567570891678,
      "c": 5.425676913867361,
      "alpha": 105.6073829094179,
      "beta": 105.60738344298535,
      "gamma": 117.51055557416966,
      "volume": 121.1140415488946
    },
    "properties": {},
    "sites": [
      {
        "species": [{ "element": "V", "occu": 1 }],
        "abc": [0.75, 0.75, 0.0],
        "properties": { "magmom": 0.685 },
        "label": "V",
        "xyz": [1.6631571524999997, 3.2001282225000005, -2.19392892]
      },
      {
        "species": [{ "element": "V", "occu": 1 }],
        "abc": [0.25, 0.25, 0.0],
        "properties": { "magmom": 0.685 },
        "label": "V",
        "xyz": [0.5543857175, 1.0667094075000003, -0.73130964]
      },
      {
        "species": [{ "element": "Sb", "occu": 1 }],
        "abc": [0.84425523, 0.65574477, 0.5],
        "properties": { "magmom": -0.043000000000000003 },
        "label": "Sb",
        "xyz": [2.4405689252377725, 2.799748459635315, 0.5189075999999999]
      },
      {
        "species": [{ "element": "Sb", "occu": 1 }],
        "abc": [0.34425523, 0.84425523, 0.18851146],
        "properties": { "magmom": -0.043000000000000003 },
        "label": "Sb",
        "xyz": [-0.739670483183692, 3.606260991117685, -0.7155367670246304]
      },
      {
        "species": [{ "element": "Sb", "occu": 1 }],
        "abc": [0.15574477, 0.34425523, 0.5],
        "properties": { "magmom": -0.043000000000000003 },
        "label": "Sb",
        "xyz": [-0.2200361252377723, 1.4728421703646846, 1.98152688]
      },
      {
        "species": [{ "element": "Sb", "occu": 1 }],
        "abc": [0.65574477, 0.15574477, 0.81148854],
        "properties": { "magmom": -0.043000000000000003 },
        "label": "Sb",
        "xyz": [2.960203283183692, 0.6663296388823149, 3.2159712470246307]
      }
    ]
  },
  "task_ids": null,
  "uncorrected_energy_per_atom": null,
  "energy_per_atom": -21.894908548333333,
  "formation_energy_per_atom": -0.06083948499999701,
  "energy_above_hull": 0.056161105555553,
  "is_stable": false,
  "equilibrium_reaction_energy_per_atom": null,
  "decomposes_to": null,
  "xas": null,
  "grain_boundaries": null,
  "band_gap": 0.0,
  "cbm": null,
  "vbm": null,
  "efermi": 9.4193892,
  "is_gap_direct": null,
  "is_metal": null,
  "es_source_calc_id": null,
  "bandstructure": null,
  "dos": null,
  "dos_energy_up": null,
  "dos_energy_down": null,
  "is_magnetic": null,
  "ordering": null,
  "total_magnetization": 1.2742393,
  "total_magnetization_normalized_vol": null,
  "total_magnetization_normalized_formula_units": null,
  "num_magnetic_sites": null,
  "num_unique_magnetic_sites": null,
  "types_of_magnetic_species": null,
  "bulk_modulus": null,
  "shear_modulus": null,
  "universal_anisotropy": null,
  "homogeneous_poisson": null,
  "e_total": null,
  "e_ionic": null,
  "e_electronic": null,
  "n": null,
  "e_ij_max": null,
  "weighted_surface_energy_EV_PER_ANG2": null,
  "weighted_surface_energy": null,
  "weighted_work_function": null,
  "surface_anisotropy": null,
  "shape_factor": null,
  "has_reconstructed": null,
  "possible_species": null,
  "has_props": null,
  "theoretical": null,
  "database_IDs": null,
  "fields_not_requested": [
    "builder_meta",
    "nsites",
    "elements",
    "nelements",
    "composition",
    "composition_reduced",
    "chemsys",
    "symmetry",
    "property_name",
    "deprecated",
    "deprecation_reasons",
    "last_updated",
    "origins",
    "warnings",
    "task_ids",
    "uncorrected_energy_per_atom",
    "equilibrium_reaction_energy_per_atom",
    "decomposes_to",
    "xas",
    "grain_boundaries",
    "cbm",
    "vbm",
    "is_gap_direct",
    "is_metal",
    "es_source_calc_id",
    "bandstructure",
    "dos",
    "dos_energy_up",
    "dos_energy_down",
    "is_magnetic",
    "ordering",
    "total_magnetization_normalized_vol",
    "total_magnetization_normalized_formula_units",
    "num_magnetic_sites",
    "num_unique_magnetic_sites",
    "types_of_magnetic_species",
    "bulk_modulus",
    "shear_modulus",
    "universal_anisotropy",
    "homogeneous_poisson",
    "e_total",
    "e_ionic",
    "e_electronic",
    "n",
    "e_ij_max",
    "weighted_surface_energy_EV_PER_ANG2",
    "weighted_surface_energy",
    "weighted_work_function",
    "surface_anisotropy",
    "shape_factor",
    "has_reconstructed",
    "possible_species",
    "has_props",
    "theoretical",
    "database_IDs"
  ]
}
