{"builder_meta": null, "nsites": null, "elements": null, "nelements": null, "composition": null, "composition_reduced": null, "formula_pretty": "VSe2", "formula_anonymous": "AB2", "chemsys": null, "volume": 64.55613548875348, "density": 5.37242010589523, "density_atomic": 21.518711829584493, "symmetry": null, "property_name": null, "material_id": "mp-694", "deprecated": null, "deprecation_reasons": null, "last_updated": null, "origins": null, "warnings": null, "structure": {"@module": "pymatgen.core.structure", "@class": "Structure", "charge": 0, "lattice": {"matrix": [[3.4263087, 0.0, 0.0], [-1.71315435, 2.9672715800000002, -0.0], [0.0, 0.0, 6.34970777]], "pbc": [true, true, true], "a": 3.4263087, "b": 3.4263097432076424, "c": 6.34970777, "alpha": 90.0, "beta": 90.0, "gamma": 119.9999899282225, "volume": 64.5561354887535}, "properties": {}, "sites": [{"species": [{"element": "V", "occu": 1}], "abc": [0.0, -0.0, 0.0], "properties": {"magmom": 1.342}, "label": "V", "xyz": [0.0, 0.0, 0.0]}, {"species": [{"element": "Se", "occu": 1}], "abc": [0.666667, 0.333333, 0.7587290600000001], "properties": {"magmom": -0.15}, "label": "Se", "xyz": [1.7131560631543499, 0.98908953757614, 4.817707807606797]}, {"species": [{"element": "Se", "occu": 1}], "abc": [0.333333, 0.666667, 0.24127094000000002], "properties": {"magmom": -0.15}, "label": "Se", "xyz": [-1.7131543499360191e-06, 1.97818204242386, 1.531999962393204]}]}, "task_ids": null, "uncorrected_energy_per_atom": null, "energy_per_atom": -15.070957743333333, "formation_energy_per_atom": -0.833392346041667, "energy_above_hull": 0.0, "is_stable": true, "equilibrium_reaction_energy_per_atom": null, "decomposes_to": null, "xas": null, "grain_boundaries": null, "band_gap": 0.0, "cbm": null, "vbm": null, "efermi": 3.64142869, "is_gap_direct": null, "is_metal": null, "es_source_calc_id": null, "bandstructure": null, "dos": null, "dos_energy_up": null, "dos_energy_down": null, "is_magnetic": null, "ordering": null, "total_magnetization": 1.0761393, "total_magnetization_normalized_vol": null, "total_magnetization_normalized_formula_units": null, "num_magnetic_sites": null, "num_unique_magnetic_sites": null, "types_of_magnetic_species": null, "bulk_modulus": null, "shear_modulus": null, "universal_anisotropy": null, "homogeneous_poisson": null, "e_total": null, "e_ionic": null, "e_electronic": null, "n": null, "e_ij_max": null, "weighted_surface_energy_EV_PER_ANG2": null, "weighted_surface_energy": null, "weighted_work_function": null, "surface_anisotropy": null, "shape_factor": null, "has_reconstructed": null, "possible_species": null, "has_props": null, "theoretical": null, "database_IDs": null, "fields_not_requested": ["builder_meta", "nsites", "elements", "nelements", "composition", "composition_reduced", "chemsys", "symmetry", "property_name", "deprecated", "deprecation_reasons", "last_updated", "origins", "warnings", "task_ids", "uncorrected_energy_per_atom", "equilibrium_reaction_energy_per_atom", "decomposes_to", "xas", "grain_boundaries", "cbm", "vbm", "is_gap_direct", "is_metal", "es_source_calc_id", "bandstructure", "dos", "dos_energy_up", "dos_energy_down", "is_magnetic", "ordering", "total_magnetization_normalized_vol", "total_magnetization_normalized_formula_units", "num_magnetic_sites", "num_unique_magnetic_sites", "types_of_magnetic_species", "bulk_modulus", "shear_modulus", "universal_anisotropy", "homogeneous_poisson", "e_total", "e_ionic", "e_electronic", "n", "e_ij_max", "weighted_surface_energy_EV_PER_ANG2", "weighted_surface_energy", "weighted_work_function", "surface_anisotropy", "shape_factor", "has_reconstructed", "possible_species", "has_props", "theoretical", "database_IDs"]}