{"builder_meta": null, "nsites": null, "elements": null, "nelements": null, "composition": null, "composition_reduced": null, "formula_pretty": "VSi2", "formula_anonymous": "AB2", "chemsys": null, "volume": 112.53543354287558, "density": 4.741559662719745, "density_atomic": 12.503937060319508, "symmetry": null, "property_name": null, "material_id": "mp-10711", "deprecated": null, "deprecation_reasons": null, "last_updated": null, "origins": null, "warnings": null, "structure": {"@module": "pymatgen.core.structure", "@class": "Structure", "charge": 0, "lattice": {"matrix": [[4.53480875, 1.323e-05, 0.0], [-2.26739201, 3.92724554, 0.0], [0.0, 0.0, 6.31890063]], "pbc": [true, true, true], "a": 4.534808750019298, "b": 4.534790409540636, "c": 6.31890063, "alpha": 90.0, "beta": 90.0, "gamma": 119.99978623392421, "volume": 112.53543354287558}, "properties": {}, "sites": [{"species": [{"element": "V", "occu": 1}], "abc": [0.0, 0.5, 0.16667077], "properties": {"magmom": 0.0}, "label": "V", "xyz": [-1.133696005, 1.96362277, 1.053176033555585]}, {"species": [{"element": "V", "occu": 1}], "abc": [0.5, 0.5, 0.83333769], "properties": {"magmom": -0.0}, "label": "V", "xyz": [1.13370837, 1.963629385, 5.265778054343745]}, {"species": [{"element": "V", "occu": 1}], "abc": [0.5, 0.0, 0.49999833], "properties": {"magmom": -0.0}, "label": "V", "xyz": [2.267404375, 6.615e-06, 3.1594397624359476]}, {"species": [{"element": "Si", "occu": 1}], "abc": [0.83749814, 0.67501355, 0.50000428], "properties": {"magmom": 0.0}, "label": "Si", "xyz": [2.2673735634689893, 2.6509550337774592, 3.159477359894696]}, {"species": [{"element": "Si", "occu": 1}], "abc": [0.16249609, 0.83750102, 0.83332905], "properties": {"magmom": -0.0}, "label": "Si", "xyz": [-1.1620544303420628, 3.2890742953637213, 5.265723459042301]}, {"species": [{"element": "Si", "occu": 1}], "abc": [0.67501804, 0.83750565, 0.16666228], "properties": {"magmom": 0.0}, "label": "Si", "xyz": [1.1621240950599936, 3.28909925917597, 1.0531223860892363]}, {"species": [{"element": "Si", "occu": 1}], "abc": [0.16250186, 0.32498645, 0.50000428], "properties": {"magmom": 0.0}, "label": "Si", "xyz": [4.317653101049146e-05, 1.276303736222541, 3.159477359894696]}, {"species": [{"element": "Si", "occu": 1}], "abc": [0.83750391, 0.16249898000000002, 0.83332905], "properties": {"magmom": -0.0}, "label": "Si", "xyz": [3.4294711703420626, 0.6381844746362786, 5.265723459042301]}, {"species": [{"element": "Si", "occu": 1}], "abc": [0.32498196, 0.16249435, 0.16666228], "properties": {"magmom": 0.0}, "label": "Si", "xyz": [1.1052926449400067, 0.6381595108240299, 1.0531223860892363]}]}, "task_ids": null, "uncorrected_energy_per_atom": null, "energy_per_atom": -11.000248939999999, "formation_energy_per_atom": -0.4545473, "energy_above_hull": 0.0, "is_stable": true, "equilibrium_reaction_energy_per_atom": null, "decomposes_to": null, "xas": null, "grain_boundaries": null, "band_gap": 0.0, "cbm": null, "vbm": null, "efermi": 9.90267122, "is_gap_direct": null, "is_metal": null, "es_source_calc_id": null, "bandstructure": null, "dos": null, "dos_energy_up": null, "dos_energy_down": null, "is_magnetic": null, "ordering": null, "total_magnetization": 0.0, "total_magnetization_normalized_vol": null, "total_magnetization_normalized_formula_units": null, "num_magnetic_sites": null, "num_unique_magnetic_sites": null, "types_of_magnetic_species": null, "bulk_modulus": null, "shear_modulus": null, "universal_anisotropy": null, "homogeneous_poisson": null, "e_total": null, "e_ionic": null, "e_electronic": null, "n": null, "e_ij_max": null, "weighted_surface_energy_EV_PER_ANG2": null, "weighted_surface_energy": null, "weighted_work_function": null, "surface_anisotropy": null, "shape_factor": null, "has_reconstructed": null, "possible_species": null, "has_props": null, "theoretical": null, "database_IDs": null, "fields_not_requested": ["builder_meta", "nsites", "elements", "nelements", "composition", "composition_reduced", "chemsys", "symmetry", "property_name", "deprecated", "deprecation_reasons", "last_updated", "origins", "warnings", "task_ids", "uncorrected_energy_per_atom", "equilibrium_reaction_energy_per_atom", "decomposes_to", "xas", "grain_boundaries", "cbm", "vbm", "is_gap_direct", "is_metal", "es_source_calc_id", "bandstructure", "dos", "dos_energy_up", "dos_energy_down", "is_magnetic", "ordering", "total_magnetization_normalized_vol", "total_magnetization_normalized_formula_units", "num_magnetic_sites", "num_unique_magnetic_sites", "types_of_magnetic_species", "bulk_modulus", "shear_modulus", "universal_anisotropy", "homogeneous_poisson", "e_total", "e_ionic", "e_electronic", "n", "e_ij_max", "weighted_surface_energy_EV_PER_ANG2", "weighted_surface_energy", "weighted_work_function", "surface_anisotropy", "shape_factor", "has_reconstructed", "possible_species", "has_props", "theoretical", "database_IDs"]}