{"builder_meta": null, "nsites": null, "elements": null, "nelements": null, "composition": null, "composition_reduced": null, "formula_pretty": "VSn2", "formula_anonymous": "AB2", "chemsys": null, "volume": 241.94787511497447, "density": 7.91634207700037, "density_atomic": 20.16232292624787, "symmetry": null, "property_name": null, "material_id": "mp-20887", "deprecated": null, "deprecation_reasons": null, "last_updated": null, "origins": null, "warnings": null, "structure": {"@module": "pymatgen.core.structure", "@class": "Structure", "charge": 0, "lattice": {"matrix": [[5.39922889, 0.03190751, -0.77652979], [-2.83632301, 4.5943401999999995, -0.77652979], [-0.0083, -0.01498324, 9.72321926]], "pbc": [true, true, true], "a": 5.4548775614639124, "b": 5.45487750597105, "c": 9.72323434694011, "alpha": 98.233576126816, "beta": 98.23357064692668, "gamma": 119.30541568236583, "volume": 241.9478751149744}, "properties": {}, "sites": [{"species": [{"element": "V", "occu": 1}], "abc": [0.25276953, 0.00276953, 0.00553806], "properties": {"magmom": 0.004}, "label": "V", "xyz": [1.3568593013238364, 0.0207064312381619, -0.14458592094356182]}, {"species": [{"element": "V", "occu": 1}], "abc": [0.99723047, 0.74723047, 0.49446194], "properties": {"magmom": 0.004}, "label": "V", "xyz": [3.2607845536761633, 3.4574414862618372, 3.4531359709435616]}, {"species": [{"element": "V", "occu": 1}], "abc": [0.74723047, 0.99723047, 0.99446194], "properties": {"magmom": 0.004}, "label": "V", "xyz": [1.1977465786761636, 4.590558038761838, 8.314745600943562]}, {"species": [{"element": "V", "occu": 1}], "abc": [0.00276953, 0.25276953, 0.50553806], "properties": {"magmom": 0.004}, "label": "V", "xyz": [-0.7061786736761636, 1.153822983738162, 4.717023709056439]}, {"species": [{"element": "Sn", "occu": 1}], "abc": [0.95913934, 0.04086066, 0.75], "properties": {"magmom": -0.0}, "label": "Sn", "xyz": [5.056493803901746, 0.20709409091897538, 6.515884655000001]}, {"species": [{"element": "Sn", "occu": 1}], "abc": [0.29086066, 0.70913934, 0.75], "properties": {"magmom": -0.0}, "label": "Sn", "xyz": [-0.44714994890174614, 3.2560705865810244, 6.515884655000001]}, {"species": [{"element": "Sn", "occu": 1}], "abc": [0.04086066, 0.95913934, 0.25], "properties": {"magmom": -0.0}, "label": "Sn", "xyz": [-2.5018879239017457, 4.404170379081024, 1.654275025]}, {"species": [{"element": "Sn", "occu": 1}], "abc": [0.70913934, 0.29086066, 0.25], "properties": {"magmom": -0.0}, "label": "Sn", "xyz": [3.001755828901746, 1.3551938834189752, 1.654275025]}, {"species": [{"element": "Sn", "occu": 1}], "abc": [0.54084135, 0.29084135, 0.58168369], "properties": {"magmom": 0.0}, "label": "Sn", "xyz": [2.0903782539351377, 1.344765500579453, 5.0100116654582365]}, {"species": [{"element": "Sn", "occu": 1}], "abc": [0.70915865, 0.45915865, 0.91831631], "properties": {"magmom": 0.0}, "label": "Sn", "xyz": [2.518965601064862, 2.118399176920547, 8.021757644541765]}, {"species": [{"element": "Sn", "occu": 1}], "abc": [0.45915865, 0.70915865, 0.41831631], "properties": {"magmom": 0.0}, "label": "Sn", "xyz": [0.46422762606486195, 3.266498969420547, 3.1601480145417638]}, {"species": [{"element": "Sn", "occu": 1}], "abc": [0.29084135, 0.54084135, 0.08168369], "properties": {"magmom": 0.0}, "label": "Sn", "xyz": [0.035640278935137805, 2.492865293079453, 0.1484020354582365]}]}, "task_ids": null, "uncorrected_energy_per_atom": null, "energy_per_atom": -21.212084683333334, "formation_energy_per_atom": -0.018103586666666, "energy_above_hull": 0.026624009444443004, "is_stable": false, "equilibrium_reaction_energy_per_atom": null, "decomposes_to": null, "xas": null, "grain_boundaries": null, "band_gap": 0.0, "cbm": null, "vbm": null, "efermi": 8.687723890000001, "is_gap_direct": null, "is_metal": null, "es_source_calc_id": null, "bandstructure": null, "dos": null, "dos_energy_up": null, "dos_energy_down": null, "is_magnetic": null, "ordering": null, "total_magnetization": 0.0185332, "total_magnetization_normalized_vol": null, "total_magnetization_normalized_formula_units": null, "num_magnetic_sites": null, "num_unique_magnetic_sites": null, "types_of_magnetic_species": null, "bulk_modulus": null, "shear_modulus": null, "universal_anisotropy": null, "homogeneous_poisson": null, "e_total": null, "e_ionic": null, "e_electronic": null, "n": null, "e_ij_max": null, "weighted_surface_energy_EV_PER_ANG2": null, "weighted_surface_energy": null, "weighted_work_function": null, "surface_anisotropy": null, "shape_factor": null, "has_reconstructed": null, "possible_species": null, "has_props": null, "theoretical": null, "database_IDs": null, "fields_not_requested": ["builder_meta", "nsites", "elements", "nelements", "composition", "composition_reduced", "chemsys", "symmetry", "property_name", "deprecated", "deprecation_reasons", "last_updated", "origins", "warnings", "task_ids", "uncorrected_energy_per_atom", "equilibrium_reaction_energy_per_atom", "decomposes_to", "xas", "grain_boundaries", "cbm", "vbm", "is_gap_direct", "is_metal", "es_source_calc_id", "bandstructure", "dos", "dos_energy_up", "dos_energy_down", "is_magnetic", "ordering", "total_magnetization_normalized_vol", "total_magnetization_normalized_formula_units", "num_magnetic_sites", "num_unique_magnetic_sites", "types_of_magnetic_species", "bulk_modulus", "shear_modulus", "universal_anisotropy", "homogeneous_poisson", "e_total", "e_ionic", "e_electronic", "n", "e_ij_max", "weighted_surface_energy_EV_PER_ANG2", "weighted_surface_energy", "weighted_work_function", "surface_anisotropy", "shape_factor", "has_reconstructed", "possible_species", "has_props", "theoretical", "database_IDs"]}