{"builder_meta": null, "nsites": null, "elements": null, "nelements": null, "composition": null, "composition_reduced": null, "formula_pretty": "VTe2", "formula_anonymous": "AB2", "chemsys": null, "volume": 243.0937071265161, "density": 6.273629128453153, "density_atomic": 27.010411902946235, "symmetry": null, "property_name": null, "material_id": "mp-11687", "deprecated": null, "deprecation_reasons": null, "last_updated": null, "origins": null, "warnings": null, "structure": {"@module": "pymatgen.core.structure", "@class": "Structure", "charge": 0.0, "lattice": {"matrix": [[1.904205409999999, 7.30038695, -0.18474664000000002], [-1.904205409999999, 7.30038695, -0.18474664000000002], [-0.0, 3.3042562, 8.65985558]], "pbc": [true, true, true], "a": 7.5469052719770415, "b": 7.5469052719770415, "c": 9.268829899275074, "alpha": 71.2175912486086, "beta": 71.2175912486086, "gamma": 29.22921433292514, "volume": 243.09370712651597}, "properties": {}, "sites": [{"species": [{"element": "V", "occu": 1}], "abc": [-0.0, -0.0, 0.0], "properties": {"magmom": 1.859}, "label": "V", "xyz": [0.0, 0.0, 0.0]}, {"species": [{"element": "V", "occu": 1}], "abc": [0.35294872, 0.35294872, 0.30445707], "properties": {"magmom": 1.69}, "label": "V", "xyz": [0.0, 6.159328620195742, 2.506142076285349]}, {"species": [{"element": "V", "occu": 1}], "abc": [0.64705128, 0.64705128, 0.69554293], "properties": {"magmom": 1.69}, "label": "V", "xyz": [0.0, 11.745701479804257, 5.784220223714652]}, {"species": [{"element": "Te", "occu": 1}], "abc": [0.35932635, 0.35932635, 0.02068205], "properties": {"magmom": -0.185}, "label": "Te", "xyz": [0.0, 5.314781584603476, 0.04633489444641101]}, {"species": [{"element": "Te", "occu": 1}], "abc": [0.64067365, 0.64067365, 0.97931795], "properties": {"magmom": -0.185}, "label": "Te", "xyz": [0.0, 12.590248515396524, 8.24402740555359]}, {"species": [{"element": "Te", "occu": 1}], "abc": [0.70769128, 0.70769128, 0.3773311], "properties": {"magmom": -0.145}, "label": "Te", "xyz": [0.0, 11.579638996909413, 3.0061456595679394]}, {"species": [{"element": "Te", "occu": 1}], "abc": [0.29230872, 0.29230872, 0.6226689], "properties": {"magmom": -0.145}, "label": "Te", "xyz": [0.0, 6.325391103090588, 5.28421664043206]}, {"species": [{"element": "Te", "occu": 1}], "abc": [0.01602372, 0.01602372, 0.69795406], "properties": {"magmom": -0.184}, "label": "Te", "xyz": [0.0, 2.54017774282708, 6.038260704214054]}, {"species": [{"element": "Te", "occu": 1}], "abc": [0.98397628, 0.98397628, 0.30204594], "properties": {"magmom": -0.184}, "label": "Te", "xyz": [0.0, 15.364852357172921, 2.252101595785947]}]}, "task_ids": null, "uncorrected_energy_per_atom": null, "energy_per_atom": -5.731294518888884, "formation_energy_per_atom": -0.607788566666661, "energy_above_hull": 0.0, "is_stable": true, "equilibrium_reaction_energy_per_atom": null, "decomposes_to": null, "xas": null, "grain_boundaries": null, "band_gap": 0.0, "cbm": null, "vbm": null, "efermi": 6.52796899, "is_gap_direct": null, "is_metal": null, "es_source_calc_id": null, "bandstructure": null, "dos": null, "dos_energy_up": null, "dos_energy_down": null, "is_magnetic": null, "ordering": null, "total_magnetization": 4.4481468, "total_magnetization_normalized_vol": null, "total_magnetization_normalized_formula_units": null, "num_magnetic_sites": null, "num_unique_magnetic_sites": null, "types_of_magnetic_species": null, "bulk_modulus": null, "shear_modulus": null, "universal_anisotropy": null, "homogeneous_poisson": null, "e_total": null, "e_ionic": null, "e_electronic": null, "n": null, "e_ij_max": null, "weighted_surface_energy_EV_PER_ANG2": null, "weighted_surface_energy": null, "weighted_work_function": null, "surface_anisotropy": null, "shape_factor": null, "has_reconstructed": null, "possible_species": null, "has_props": null, "theoretical": null, "database_IDs": null, "fields_not_requested": ["builder_meta", "nsites", "elements", "nelements", "composition", "composition_reduced", "chemsys", "symmetry", "property_name", "deprecated", "deprecation_reasons", "last_updated", "origins", "warnings", "task_ids", "uncorrected_energy_per_atom", "equilibrium_reaction_energy_per_atom", "decomposes_to", "xas", "grain_boundaries", "cbm", "vbm", "is_gap_direct", "is_metal", "es_source_calc_id", "bandstructure", "dos", "dos_energy_up", "dos_energy_down", "is_magnetic", "ordering", "total_magnetization_normalized_vol", "total_magnetization_normalized_formula_units", "num_magnetic_sites", "num_unique_magnetic_sites", "types_of_magnetic_species", "bulk_modulus", "shear_modulus", "universal_anisotropy", "homogeneous_poisson", "e_total", "e_ionic", "e_electronic", "n", "e_ij_max", "weighted_surface_energy_EV_PER_ANG2", "weighted_surface_energy", "weighted_work_function", "surface_anisotropy", "shape_factor", "has_reconstructed", "possible_species", "has_props", "theoretical", "database_IDs"]}