{"builder_meta": null, "nsites": null, "elements": null, "nelements": null, "composition": null, "composition_reduced": null, "formula_pretty": "W2Br5", "formula_anonymous": "A2B5", "chemsys": null, "volume": 1929.3862828860924, "density": 5.282366038136626, "density_atomic": 34.45332648010879, "symmetry": null, "property_name": null, "material_id": "mp-1197907", "deprecated": null, "deprecation_reasons": null, "last_updated": null, "origins": null, "warnings": null, "structure": {"@module": "pymatgen.core.structure", "@class": "Structure", "charge": 0, "lattice": {"matrix": [[11.238358, 0.0, 0.0], [0.0, 9.538499999999999, 0.0], [0.0, 4.463865, 17.998497]], "pbc": [true, true, true], "a": 11.238358, "b": 9.538499999999999, "c": 18.543785616675848, "alpha": 76.07094508801237, "beta": 90.0, "gamma": 90.0, "volume": 1929.386282886092}, "properties": {}, "sites": [{"species": [{"element": "W", "occu": 1}], "abc": [0.24517399999999903, 0.840434999999999, 0.612221999999999], "properties": {"magmom": 0.0}, "label": "W", "xyz": [2.755353184291989, 10.749365605529986, 11.019075830333984]}, {"species": [{"element": "W", "occu": 1}], "abc": [0.745174, 0.159564999999999, 0.887778], "properties": {"magmom": 0.0}, "label": "W", "xyz": [8.374532184292, 5.48493189446999, 15.978669669665999]}, {"species": [{"element": "W", "occu": 1}], "abc": [0.754826, 0.159564999999999, 0.387777999999999], "properties": {"magmom": 0.0}, "label": "W", "xyz": [8.483004815708, 3.252999394469986, 6.979421169665982]}, {"species": [{"element": "W", "occu": 1}], "abc": [0.254826, 0.840434999999999, 0.112221999999999], "properties": {"magmom": 0.0}, "label": "W", "xyz": [2.863825815708, 8.517433105529985, 2.019827330333982]}, {"species": [{"element": "W", "occu": 1}], "abc": [0.301392, 0.574280999999999, 0.6352800000000001], "properties": {"magmom": 0.0}, "label": "W", "xyz": [3.387151194336, 8.313583475699991, 11.434085174160002]}, {"species": [{"element": "W", "occu": 1}], "abc": [0.801392, 0.425718999999999, 0.86472], "properties": {"magmom": 0.0}, "label": "W", "xyz": [9.006330194336, 7.920714024299991, 15.56366032584]}, {"species": [{"element": "W", "occu": 1}], "abc": [0.698608, 0.425718999999999, 0.36472000000000004], "properties": {"magmom": 0.0}, "label": "W", "xyz": [7.851206805664, 5.688781524299991, 6.564411825840001]}, {"species": [{"element": "W", "occu": 1}], "abc": [0.198607999999999, 0.574280999999999, 0.13528], "properties": {"magmom": 0.0}, "label": "W", "xyz": [2.232027805663989, 6.081650975699991, 2.43483667416]}, {"species": [{"element": "W", "occu": 1}], "abc": [0.605237999999999, 0.346796999999999, 0.809155], "properties": {"magmom": 0.0}, "label": "W", "xyz": [6.801881319203989, 6.91988186857499, 14.563573840035]}, {"species": [{"element": "W", "occu": 1}], "abc": [0.105238, 0.653203, 0.690844999999999], "properties": {"magmom": 0.0}, "label": "W", "xyz": [1.182702319204, 9.314415631424994, 12.434171659964983]}, {"species": [{"element": "W", "occu": 1}], "abc": [0.394762, 0.653203, 0.190845], "properties": {"magmom": 0.0}, "label": "W", "xyz": [4.436476680796, 7.082483131424999, 3.434923159965]}, {"species": [{"element": "W", "occu": 1}], "abc": [0.894762, 0.346796999999999, 0.309155], "properties": {"magmom": 0.0}, "label": "W", "xyz": [10.055655680795999, 4.687949368574991, 5.564325340035]}, {"species": [{"element": "W", "occu": 1}], "abc": [0.109715, 0.624305999999999, 0.556896], "properties": {"magmom": -0.0}, "label": "W", "xyz": [1.2330164479699999, 8.44085134403999, 10.023290985311998]}, {"species": [{"element": "W", "occu": 1}], "abc": [0.609715, 0.375694, 0.943103999999999], "properties": {"magmom": -0.0}, "label": "W", "xyz": [6.85219544797, 7.7934461559599955, 16.974454514687984]}, {"species": [{"element": "W", "occu": 1}], "abc": [0.890285, 0.375694, 0.443104], "properties": {"magmom": -0.0}, "label": "W", "xyz": [10.00534155203, 5.561513655959999, 7.975206014688]}, {"species": [{"element": "W", "occu": 1}], "abc": [0.390285, 0.624305999999999, 0.056895999999999], "properties": {"magmom": -0.0}, "label": "W", "xyz": [4.38616255203, 6.208918844039985, 1.024042485311982]}, {"species": [{"element": "Br", "occu": 1}], "abc": [0.815267, 0.304429, 0.748452999999999], "properties": {"magmom": -0.0}, "label": "Br", "xyz": [9.162262411586, 6.244789167344996, 13.471029075140983]}, {"species": [{"element": "Br", "occu": 1}], "abc": [0.315266999999999, 0.695570999999999, 0.751547], "properties": {"magmom": -0.0}, "label": "Br", "xyz": [3.543083411585989, 9.98950833265499, 13.526716424859]}, {"species": [{"element": "Br", "occu": 1}], "abc": [0.184732999999999, 0.695570999999999, 0.251546999999999], "properties": {"magmom": -0.0}, "label": "Br", "xyz": [2.0760955884139887, 7.757575832654986, 4.527467924858983]}, {"species": [{"element": "Br", "occu": 1}], "abc": [0.684732999999999, 0.304429, 0.248452999999999], "properties": {"magmom": -0.0}, "label": "Br", "xyz": [7.695274588413989, 4.0128566673449955, 4.471780575140982]}, {"species": [{"element": "Br", "occu": 1}], "abc": [0.564775, 0.071703999999999, 0.823259], "properties": {"magmom": 0.0}, "label": "Br", "xyz": [6.3471436394500005, 4.35886564003499, 14.817424641723]}, {"species": [{"element": "Br", "occu": 1}], "abc": [0.064775, 0.928296, 0.676740999999999], "properties": {"magmom": 0.0}, "label": "Br", "xyz": [0.72796463945, 11.875431859964996, 12.180320858276984]}, {"species": [{"element": "Br", "occu": 1}], "abc": [0.435225, 0.928296, 0.176740999999999], "properties": {"magmom": 0.0}, "label": "Br", "xyz": [4.891214360549999, 9.643499359964995, 3.181072358276982]}, {"species": [{"element": "Br", "occu": 1}], "abc": [0.935225, 0.071703999999999, 0.323258999999999], "properties": {"magmom": 0.0}, "label": "Br", "xyz": [10.51039336055, 2.1269331400349865, 5.818176141722983]}, {"species": [{"element": "Br", "occu": 1}], "abc": [0.447855, 0.772811999999999, 0.56379], "properties": {"magmom": 0.0}, "label": "Br", "xyz": [5.03315482209, 9.88814971034999, 10.14737262363]}, {"species": [{"element": "Br", "occu": 1}], "abc": [0.947855, 0.227188, 0.9362100000000001], "properties": {"magmom": 0.0}, "label": "Br", "xyz": [10.65233382209, 6.34614778965, 16.850372876370002]}, {"species": [{"element": "Br", "occu": 1}], "abc": [0.552145, 0.227188, 0.43621000000000004], "properties": {"magmom": 0.0}, "label": "Br", "xyz": [6.20520317791, 4.11421528965, 7.851124376370001]}, {"species": [{"element": "Br", "occu": 1}], "abc": [0.052145, 0.772811999999999, 0.06379], "properties": {"magmom": 0.0}, "label": "Br", "xyz": [0.5860241779099999, 7.656217210349991, 1.14812412363]}, {"species": [{"element": "Br", "occu": 1}], "abc": [0.677357, 0.615240999999999, 0.767987], "properties": {"magmom": 0.0}, "label": "Br", "xyz": [7.612380459805999, 9.29666656825499, 13.822611715539]}, {"species": [{"element": "Br", "occu": 1}], "abc": [0.177357, 0.384758999999999, 0.732012999999999], "properties": {"magmom": 0.0}, "label": "Br", "xyz": [1.9932014598059997, 6.9376309317449865, 13.175133784460982]}, {"species": [{"element": "Br", "occu": 1}], "abc": [0.322643, 0.384758999999999, 0.232013], "properties": {"magmom": 0.0}, "label": "Br", "xyz": [3.625977540194, 4.705698431744991, 4.175885284461]}, {"species": [{"element": "Br", "occu": 1}], "abc": [0.822643, 0.615240999999999, 0.267987], "properties": {"magmom": 0.0}, "label": "Br", "xyz": [9.245156540194, 7.064734068254991, 4.823363215539]}, {"species": [{"element": "Br", "occu": 1}], "abc": [0.91039, 0.680406, 0.613580999999999], "properties": {"magmom": -0.0}, "label": "Br", "xyz": [10.23128873962, 9.228995381564996, 11.043535787756984]}, {"species": [{"element": "Br", "occu": 1}], "abc": [0.41039000000000003, 0.319594, 0.886419], "properties": {"magmom": -0.0}, "label": "Br", "xyz": [4.61210973962, 7.005302118435, 15.954209712243]}, {"species": [{"element": "Br", "occu": 1}], "abc": [0.08961000000000001, 0.319594, 0.386418999999999], "properties": {"magmom": -0.0}, "label": "Br", "xyz": [1.00706926038, 4.773369618434995, 6.954961212242982]}, {"species": [{"element": "Br", "occu": 1}], "abc": [0.5896100000000001, 0.680406, 0.113581], "properties": {"magmom": -0.0}, "label": "Br", "xyz": [6.626248260380001, 6.997062881564999, 2.044287287757]}, {"species": [{"element": "Br", "occu": 1}], "abc": [0.152401999999999, 0.891633, 0.484633999999999], "properties": {"magmom": 0.0}, "label": "Br", "xyz": [1.712748235915989, 10.668182120909995, 8.722683595097982]}, {"species": [{"element": "Br", "occu": 1}], "abc": [0.652401999999999, 0.108366999999999, 0.015366], "properties": {"magmom": 0.0}, "label": "Br", "xyz": [7.331927235915989, 1.1022503790899902, 0.276564904902]}, {"species": [{"element": "Br", "occu": 1}], "abc": [0.847598, 0.108366999999999, 0.515366], "properties": {"magmom": 0.0}, "label": "Br", "xyz": [9.525609764083999, 3.3341828790899903, 9.275813404902]}, {"species": [{"element": "Br", "occu": 1}], "abc": [0.347597999999999, 0.891633, 0.984634], "properties": {"magmom": 0.0}, "label": "Br", "xyz": [3.906430764083989, 12.90011462091, 17.721932095098]}, {"species": [{"element": "Br", "occu": 1}], "abc": [0.294062999999999, 0.520614, 0.504232999999999], "properties": {"magmom": -0.0}, "label": "Br", "xyz": [3.304785268553989, 7.2167046795449945, 9.075436137800983]}, {"species": [{"element": "Br", "occu": 1}], "abc": [0.794063, 0.479386, 0.995767], "properties": {"magmom": -0.0}, "label": "Br", "xyz": [8.923964268554, 9.017592820455, 17.922309362198998]}, {"species": [{"element": "Br", "occu": 1}], "abc": [0.705936999999999, 0.479386, 0.495766999999999], "properties": {"magmom": -0.0}, "label": "Br", "xyz": [7.933572731445989, 6.785660320454996, 8.923060862198982]}, {"species": [{"element": "Br", "occu": 1}], "abc": [0.205936999999999, 0.520614, 0.004233], "properties": {"magmom": -0.0}, "label": "Br", "xyz": [2.314393731445989, 4.984772179545, 0.07618763780099999]}, {"species": [{"element": "Br", "occu": 1}], "abc": [0.490948, 0.39567, 0.675999], "properties": {"magmom": 0.0}, "label": "Br", "xyz": [5.517449383384, 6.791666571135, 12.166965973503]}, {"species": [{"element": "Br", "occu": 1}], "abc": [0.990947999999999, 0.60433, 0.824001], "properties": {"magmom": 0.0}, "label": "Br", "xyz": [11.13662838338399, 9.442630928865, 14.830779526497]}, {"species": [{"element": "Br", "occu": 1}], "abc": [0.509052, 0.60433, 0.324001], "properties": {"magmom": 0.0}, "label": "Br", "xyz": [5.720908616616, 7.210698428865, 5.831531026497]}, {"species": [{"element": "Br", "occu": 1}], "abc": [0.009052, 0.39567, 0.175999], "properties": {"magmom": 0.0}, "label": "Br", "xyz": [0.101729616616, 4.559734071135, 3.167717473503]}, {"species": [{"element": "Br", "occu": 1}], "abc": [0.347356, 0.073072, 0.623585], "properties": {"magmom": 0.0}, "label": "Br", "xyz": [3.903711081448, 3.480596528025, 11.223592751744999]}, {"species": [{"element": "Br", "occu": 1}], "abc": [0.847356, 0.926928, 0.8764149999999991], "properties": {"magmom": 0.0}, "label": "Br", "xyz": [9.522890081448, 12.753700971974993, 15.774152748254984]}, {"species": [{"element": "Br", "occu": 1}], "abc": [0.652644, 0.926928, 0.376415], "properties": {"magmom": 0.0}, "label": "Br", "xyz": [7.334646918552, 10.521768471974998, 6.774904248255]}, {"species": [{"element": "Br", "occu": 1}], "abc": [0.152644, 0.073072, 0.123585], "properties": {"magmom": 0.0}, "label": "Br", "xyz": [1.715467918552, 1.2486640280249999, 2.2243442517450003]}, {"species": [{"element": "Br", "occu": 1}], "abc": [0.020713, 0.363409, 0.576558999999999], "properties": {"magmom": 0.0}, "label": "Br", "xyz": [0.23278010925399997, 6.040058287034995, 10.377195431822983]}, {"species": [{"element": "Br", "occu": 1}], "abc": [0.520713, 0.636591, 0.923441], "properties": {"magmom": 0.0}, "label": "Br", "xyz": [5.8519591092539995, 10.194239212964998, 16.620550068177]}, {"species": [{"element": "Br", "occu": 1}], "abc": [0.9792869999999991, 0.636591, 0.423440999999999], "properties": {"magmom": 0.0}, "label": "Br", "xyz": [11.00557789074599, 7.962306712964995, 7.621301568176983]}, {"species": [{"element": "Br", "occu": 1}], "abc": [0.479286999999999, 0.363409, 0.076559], "properties": {"magmom": 0.0}, "label": "Br", "xyz": [5.386398890745989, 3.8081257870349994, 1.377946931823]}]}, "task_ids": null, "uncorrected_energy_per_atom": null, "energy_per_atom": -5.725781128214286, "formation_energy_per_atom": -0.8542106803571421, "energy_above_hull": 0.016084048690477002, "is_stable": false, "equilibrium_reaction_energy_per_atom": null, "decomposes_to": null, "xas": null, "grain_boundaries": null, "band_gap": 0.8696, "cbm": null, "vbm": null, "efermi": 0.64270993, "is_gap_direct": null, "is_metal": null, "es_source_calc_id": null, "bandstructure": null, "dos": null, "dos_energy_up": null, "dos_energy_down": null, "is_magnetic": null, "ordering": null, "total_magnetization": 0.0006291, "total_magnetization_normalized_vol": null, "total_magnetization_normalized_formula_units": null, "num_magnetic_sites": null, "num_unique_magnetic_sites": null, "types_of_magnetic_species": null, "bulk_modulus": null, "shear_modulus": null, "universal_anisotropy": null, "homogeneous_poisson": null, "e_total": null, "e_ionic": null, "e_electronic": null, "n": null, "e_ij_max": null, "weighted_surface_energy_EV_PER_ANG2": null, "weighted_surface_energy": null, "weighted_work_function": null, "surface_anisotropy": null, "shape_factor": null, "has_reconstructed": null, "possible_species": null, "has_props": null, "theoretical": null, "database_IDs": null, "fields_not_requested": ["builder_meta", "nsites", "elements", "nelements", "composition", "composition_reduced", "chemsys", "symmetry", "property_name", "deprecated", "deprecation_reasons", "last_updated", "origins", "warnings", "task_ids", "uncorrected_energy_per_atom", "equilibrium_reaction_energy_per_atom", "decomposes_to", "xas", "grain_boundaries", "cbm", "vbm", "is_gap_direct", "is_metal", "es_source_calc_id", "bandstructure", "dos", "dos_energy_up", "dos_energy_down", "is_magnetic", "ordering", "total_magnetization_normalized_vol", "total_magnetization_normalized_formula_units", "num_magnetic_sites", "num_unique_magnetic_sites", "types_of_magnetic_species", "bulk_modulus", "shear_modulus", "universal_anisotropy", "homogeneous_poisson", "e_total", "e_ionic", "e_electronic", "n", "e_ij_max", "weighted_surface_energy_EV_PER_ANG2", "weighted_surface_energy", "weighted_work_function", "surface_anisotropy", "shape_factor", "has_reconstructed", "possible_species", "has_props", "theoretical", "database_IDs"]}