{
  "builder_meta": null,
  "nsites": null,
  "elements": null,
  "nelements": null,
  "composition": null,
  "composition_reduced": null,
  "formula_pretty": "W2C",
  "formula_anonymous": "AB2",
  "chemsys": null,
  "volume": 152.22658256008276,
  "density": 16.56717847753956,
  "density_atomic": 12.685548546673564,
  "symmetry": null,
  "property_name": null,
  "material_id": "mp-2034",
  "deprecated": null,
  "deprecation_reasons": null,
  "last_updated": null,
  "origins": null,
  "warnings": null,
  "structure": {
    "@module": "pymatgen.core.structure",
    "@class": "Structure",
    "charge": 0,
    "lattice": {
      "matrix": [
        [4.756322, 0.0, 0.0],
        [0.0, 5.237265, 0.0],
        [0.0, 0.0, 6.111034]
      ],
      "pbc": [true, true, true],
      "a": 4.756322,
      "b": 5.237265,
      "c": 6.111034,
      "alpha": 90.0,
      "beta": 90.0,
      "gamma": 90.0,
      "volume": 152.22658256008276
    },
    "properties": {},
    "sites": [
      {
        "species": [{ "element": "W", "occu": 1 }],
        "abc": [0.244805, 0.081187, 0.8764200000000001],
        "properties": { "magmom": -0.0 },
        "label": "W",
        "xyz": [1.16437140721, 0.42519783355499996, 5.35583241828]
      },
      {
        "species": [{ "element": "W", "occu": 1 }],
        "abc": [0.744804999999999, 0.918813, 0.62358],
        "properties": { "magmom": 0.0 },
        "label": "W",
        "xyz": [3.5425324072099955, 4.812067166445, 3.81071858172]
      },
      {
        "species": [{ "element": "W", "occu": 1 }],
        "abc": [0.255195, 0.581187, 0.62358],
        "properties": { "magmom": 0.0 },
        "label": "W",
        "xyz": [1.21378959279, 3.043830333555, 3.81071858172]
      },
      {
        "species": [{ "element": "W", "occu": 1 }],
        "abc": [0.755195, 0.418813, 0.8764200000000001],
        "properties": { "magmom": -0.0 },
        "label": "W",
        "xyz": [3.5919505927899995, 2.193434666445, 5.35583241828]
      },
      {
        "species": [{ "element": "W", "occu": 1 }],
        "abc": [0.244805, 0.581187, 0.12358000000000001],
        "properties": { "magmom": -0.0 },
        "label": "W",
        "xyz": [1.16437140721, 3.043830333555, 0.7552015817200001]
      },
      {
        "species": [{ "element": "W", "occu": 1 }],
        "abc": [0.744804999999999, 0.418813, 0.37642000000000003],
        "properties": { "magmom": 0.0 },
        "label": "W",
        "xyz": [3.5425324072099955, 2.193434666445, 2.3003154182800003]
      },
      {
        "species": [{ "element": "W", "occu": 1 }],
        "abc": [0.255195, 0.081187, 0.37642000000000003],
        "properties": { "magmom": 0.0 },
        "label": "W",
        "xyz": [1.21378959279, 0.42519783355499996, 2.3003154182800003]
      },
      {
        "species": [{ "element": "W", "occu": 1 }],
        "abc": [0.755195, 0.918813, 0.12358000000000001],
        "properties": { "magmom": -0.0 },
        "label": "W",
        "xyz": [3.5919505927899995, 4.812067166445, 0.7552015817200001]
      },
      {
        "species": [{ "element": "C", "occu": 1 }],
        "abc": [0.5, 0.75, 0.8782500000000001],
        "properties": { "magmom": -0.0 },
        "label": "C",
        "xyz": [2.378161, 3.9279487499999997, 5.3670156105]
      },
      {
        "species": [{ "element": "C", "occu": 1 }],
        "abc": [0.0, 0.25, 0.62175],
        "properties": { "magmom": 0.0 },
        "label": "C",
        "xyz": [0.0, 1.30931625, 3.7995353895000004]
      },
      {
        "species": [{ "element": "C", "occu": 1 }],
        "abc": [0.5, 0.25, 0.12175000000000001],
        "properties": { "magmom": -0.0 },
        "label": "C",
        "xyz": [2.378161, 1.30931625, 0.7440183895000001]
      },
      {
        "species": [{ "element": "C", "occu": 1 }],
        "abc": [0.0, 0.75, 0.37825000000000003],
        "properties": { "magmom": 0.0 },
        "label": "C",
        "xyz": [0.0, 3.9279487499999997, 2.3114986105]
      }
    ]
  },
  "task_ids": null,
  "uncorrected_energy_per_atom": null,
  "energy_per_atom": -11.730657114166666,
  "formation_energy_per_atom": -0.015681796666664,
  "energy_above_hull": 0.06544971916667,
  "is_stable": false,
  "equilibrium_reaction_energy_per_atom": null,
  "decomposes_to": null,
  "xas": null,
  "grain_boundaries": null,
  "band_gap": 0.0,
  "cbm": null,
  "vbm": null,
  "efermi": 7.99016282,
  "is_gap_direct": null,
  "is_metal": null,
  "es_source_calc_id": null,
  "bandstructure": null,
  "dos": null,
  "dos_energy_up": null,
  "dos_energy_down": null,
  "is_magnetic": null,
  "ordering": null,
  "total_magnetization": 1.5100000000000001e-5,
  "total_magnetization_normalized_vol": null,
  "total_magnetization_normalized_formula_units": null,
  "num_magnetic_sites": null,
  "num_unique_magnetic_sites": null,
  "types_of_magnetic_species": null,
  "bulk_modulus": null,
  "shear_modulus": null,
  "universal_anisotropy": null,
  "homogeneous_poisson": null,
  "e_total": null,
  "e_ionic": null,
  "e_electronic": null,
  "n": null,
  "e_ij_max": null,
  "weighted_surface_energy_EV_PER_ANG2": null,
  "weighted_surface_energy": null,
  "weighted_work_function": null,
  "surface_anisotropy": null,
  "shape_factor": null,
  "has_reconstructed": null,
  "possible_species": null,
  "has_props": null,
  "theoretical": null,
  "database_IDs": null,
  "fields_not_requested": [
    "builder_meta",
    "nsites",
    "elements",
    "nelements",
    "composition",
    "composition_reduced",
    "chemsys",
    "symmetry",
    "property_name",
    "deprecated",
    "deprecation_reasons",
    "last_updated",
    "origins",
    "warnings",
    "task_ids",
    "uncorrected_energy_per_atom",
    "equilibrium_reaction_energy_per_atom",
    "decomposes_to",
    "xas",
    "grain_boundaries",
    "cbm",
    "vbm",
    "is_gap_direct",
    "is_metal",
    "es_source_calc_id",
    "bandstructure",
    "dos",
    "dos_energy_up",
    "dos_energy_down",
    "is_magnetic",
    "ordering",
    "total_magnetization_normalized_vol",
    "total_magnetization_normalized_formula_units",
    "num_magnetic_sites",
    "num_unique_magnetic_sites",
    "types_of_magnetic_species",
    "bulk_modulus",
    "shear_modulus",
    "universal_anisotropy",
    "homogeneous_poisson",
    "e_total",
    "e_ionic",
    "e_electronic",
    "n",
    "e_ij_max",
    "weighted_surface_energy_EV_PER_ANG2",
    "weighted_surface_energy",
    "weighted_work_function",
    "surface_anisotropy",
    "shape_factor",
    "has_reconstructed",
    "possible_species",
    "has_props",
    "theoretical",
    "database_IDs"
  ]
}
