{"builder_meta": null, "nsites": null, "elements": null, "nelements": null, "composition": null, "composition_reduced": null, "formula_pretty": "W2N", "formula_anonymous": "AB2", "chemsys": null, "volume": 122.91595966542148, "density": 15.4692444726509, "density_atomic": 13.657328851713498, "symmetry": null, "property_name": null, "material_id": "mp-27943", "deprecated": null, "deprecation_reasons": null, "last_updated": null, "origins": null, "warnings": null, "structure": {"@module": "pymatgen.core.structure", "@class": "Structure", "charge": 0, "lattice": {"matrix": [[1.417603, -2.45536, 0.0], [1.417603, 2.45536, 0.0], [0.0, 0.0, 17.656657]], "pbc": [true, true, true], "a": 2.8352056354361674, "b": 2.8352056354361674, "c": 17.656657, "alpha": 90.0, "beta": 90.0, "gamma": 119.99999149290997, "volume": 122.91595966542148}, "properties": {}, "sites": [{"species": [{"element": "W", "occu": 1}], "abc": [0.0, 0.0, 0.075686999999999], "properties": {"magmom": -0.0}, "label": "W", "xyz": [0.0, 0.0, 1.3363793983589825]}, {"species": [{"element": "W", "occu": 1}], "abc": [0.0, 0.0, 0.924312999999999], "properties": {"magmom": -0.0}, "label": "W", "xyz": [0.0, 0.0, 16.32027760164098]}, {"species": [{"element": "W", "occu": 1}], "abc": [0.333333, 0.666667, 0.262027], "properties": {"magmom": 0.001}, "label": "W", "xyz": [1.417603, 0.81845497024, 4.626520863739]}, {"species": [{"element": "W", "occu": 1}], "abc": [0.666667, 0.333333, 0.737973], "properties": {"magmom": -0.002}, "label": "W", "xyz": [1.417603, -0.81845497024, 13.030136136261]}, {"species": [{"element": "W", "occu": 1}], "abc": [0.333333, 0.666667, 0.4172], "properties": {"magmom": 0.001}, "label": "W", "xyz": [1.417603, 0.81845497024, 7.3663573004]}, {"species": [{"element": "W", "occu": 1}], "abc": [0.666667, 0.333333, 0.5828], "properties": {"magmom": 0.001}, "label": "W", "xyz": [1.417603, -0.81845497024, 10.290299699599998]}, {"species": [{"element": "N", "occu": 1}], "abc": [0.0, 0.0, 0.5], "properties": {"magmom": -0.0}, "label": "N", "xyz": [0.0, 0.0, 8.8283285]}, {"species": [{"element": "N", "occu": 1}], "abc": [0.333333, 0.666667, 0.150333], "properties": {"magmom": 0.0}, "label": "N", "xyz": [1.417603, 0.81845497024, 2.6543782167809997]}, {"species": [{"element": "N", "occu": 1}], "abc": [0.666667, 0.333333, 0.849667], "properties": {"magmom": 0.0}, "label": "N", "xyz": [1.417603, -0.81845497024, 15.002278783218998]}]}, "task_ids": null, "uncorrected_energy_per_atom": null, "energy_per_atom": -36.84397940722222, "formation_energy_per_atom": 0.44413373652777904, "energy_above_hull": 0.7537475783333321, "is_stable": false, "equilibrium_reaction_energy_per_atom": null, "decomposes_to": null, "xas": null, "grain_boundaries": null, "band_gap": 0.0, "cbm": null, "vbm": null, "efermi": 6.64457845, "is_gap_direct": null, "is_metal": null, "es_source_calc_id": null, "bandstructure": null, "dos": null, "dos_energy_up": null, "dos_energy_down": null, "is_magnetic": null, "ordering": null, "total_magnetization": 0.0029283, "total_magnetization_normalized_vol": null, "total_magnetization_normalized_formula_units": null, "num_magnetic_sites": null, "num_unique_magnetic_sites": null, "types_of_magnetic_species": null, "bulk_modulus": null, "shear_modulus": null, "universal_anisotropy": null, "homogeneous_poisson": null, "e_total": null, "e_ionic": null, "e_electronic": null, "n": null, "e_ij_max": null, "weighted_surface_energy_EV_PER_ANG2": null, "weighted_surface_energy": null, "weighted_work_function": null, "surface_anisotropy": null, "shape_factor": null, "has_reconstructed": null, "possible_species": null, "has_props": null, "theoretical": null, "database_IDs": null, "fields_not_requested": ["builder_meta", "nsites", "elements", "nelements", "composition", "composition_reduced", "chemsys", "symmetry", "property_name", "deprecated", "deprecation_reasons", "last_updated", "origins", "warnings", "task_ids", "uncorrected_energy_per_atom", "equilibrium_reaction_energy_per_atom", "decomposes_to", "xas", "grain_boundaries", "cbm", "vbm", "is_gap_direct", "is_metal", "es_source_calc_id", "bandstructure", "dos", "dos_energy_up", "dos_energy_down", "is_magnetic", "ordering", "total_magnetization_normalized_vol", "total_magnetization_normalized_formula_units", "num_magnetic_sites", "num_unique_magnetic_sites", "types_of_magnetic_species", "bulk_modulus", "shear_modulus", "universal_anisotropy", "homogeneous_poisson", "e_total", "e_ionic", "e_electronic", "n", "e_ij_max", "weighted_surface_energy_EV_PER_ANG2", "weighted_surface_energy", "weighted_work_function", "surface_anisotropy", "shape_factor", "has_reconstructed", "possible_species", "has_props", "theoretical", "database_IDs"]}