{
  "builder_meta": null,
  "nsites": null,
  "elements": null,
  "nelements": null,
  "composition": null,
  "composition_reduced": null,
  "formula_pretty": "W2N3",
  "formula_anonymous": "A2B3",
  "chemsys": null,
  "volume": 109.45224339442687,
  "density": 12.431413017059596,
  "density_atomic": 10.945224339442687,
  "symmetry": null,
  "property_name": null,
  "material_id": "mp-1216242",
  "deprecated": null,
  "deprecation_reasons": null,
  "last_updated": null,
  "origins": null,
  "warnings": null,
  "structure": {
    "@module": "pymatgen.core.structure",
    "@class": "Structure",
    "charge": 0,
    "lattice": {
      "matrix": [
        [4.31943522, 2.47812731, -0.00411111],
        [-0.01359572, 4.97980603, 0.004111099999999],
        [-1.45175202, 0.83816877, 5.08324425]
      ],
      "pbc": [true, true, true],
      "a": 4.979824543653091,
      "b": 4.979826286244319,
      "c": 5.352521174151061,
      "alpha": 80.90237471003758,
      "beta": 99.09763814097312,
      "gamma": 60.31292888286202,
      "volume": 109.45224339442689
    },
    "properties": {},
    "sites": [
      {
        "species": [{ "element": "W", "occu": 1 }],
        "abc": [0.6602907100000001, 0.6693099, 0.9909275999999991],
        "properties": { "magmom": -0.0 },
        "label": "W",
        "xyz": [1.4044020532454276, 5.7998824846000385, 5.037164097055397]
      },
      {
        "species": [{ "element": "W", "occu": 1 }],
        "abc": [0.344152299999999, 0.322513699999999, 0.01571485],
        "properties": { "magmom": -0.0 },
        "label": "W",
        "xyz": [1.4593446944711408, 2.4720805779421515, 0.07979345901212917]
      },
      {
        "species": [{ "element": "W", "occu": 1 }],
        "abc": [0.9973571, 0.00637629, 0.9909275999999991],
        "properties": { "magmom": -0.0 },
        "label": "W",
        "xyz": [2.8693515494298323, 3.333895122374481, 5.033052993684733]
      },
      {
        "species": [{ "element": "W", "occu": 1 }],
        "abc": [0.1585055, 0.5081605, 0.47860877],
        "properties": { "magmom": 0.0 },
        "label": "W",
        "xyz": [-0.017075817246565483, 3.3244924545051333, 2.434322743187517]
      },
      {
        "species": [{ "element": "N", "occu": 1 }],
        "abc": [0.7604802900000001, 0.90618571, 0.25013505],
        "properties": { "magmom": -0.0 },
        "label": "N",
        "xyz": [2.9093910374503515, 6.60685142551594, 1.2720965565833209]
      },
      {
        "species": [{ "element": "N", "occu": 1 }],
        "abc": [0.41165297, 0.58801598, 0.25286877],
        "properties": { "magmom": -0.0 },
        "label": "N",
        "xyz": [1.4030110887735825, 4.160280696062283, 1.2861187629609532]
      },
      {
        "species": [{ "element": "N", "occu": 1 }],
        "abc": [0.07865102, 0.25501403, 0.25286877],
        "properties": { "magmom": -0.0 },
        "label": "N",
        "xyz": [-0.03084186111344267, 1.67677435087227, 1.286118766290973]
      },
      {
        "species": [{ "element": "N", "occu": 1 }],
        "abc": [0.24710446, 0.73587042, 0.74943865],
        "properties": { "magmom": -0.0 },
        "label": "N",
        "xyz": [-0.030652054647094307, 4.905004337024396, 3.811589071607373]
      },
      {
        "species": [{ "element": "N", "occu": 1 }],
        "abc": [0.57034007, 0.09632593, 0.74707131],
        "properties": { "magmom": 0.0 },
        "label": "N",
        "xyz": [1.3776750819856995, 2.5192315915186585, 3.7955972156631126]
      },
      {
        "species": [{ "element": "N", "occu": 1 }],
        "abc": [0.93079658, 0.41956254, 0.74943865],
        "properties": { "magmom": -0.0 },
        "label": "N",
        "xyz": [2.926812201487646, 5.024128563067676, 3.807477964770452]
      }
    ]
  },
  "task_ids": null,
  "uncorrected_energy_per_atom": null,
  "energy_per_atom": -26.58167307,
  "formation_energy_per_atom": -0.557304915249999,
  "energy_above_hull": 0.0,
  "is_stable": true,
  "equilibrium_reaction_energy_per_atom": null,
  "decomposes_to": null,
  "xas": null,
  "grain_boundaries": null,
  "band_gap": 0.0,
  "cbm": null,
  "vbm": null,
  "efermi": 6.55994497,
  "is_gap_direct": null,
  "is_metal": null,
  "es_source_calc_id": null,
  "bandstructure": null,
  "dos": null,
  "dos_energy_up": null,
  "dos_energy_down": null,
  "is_magnetic": null,
  "ordering": null,
  "total_magnetization": 0.0,
  "total_magnetization_normalized_vol": null,
  "total_magnetization_normalized_formula_units": null,
  "num_magnetic_sites": null,
  "num_unique_magnetic_sites": null,
  "types_of_magnetic_species": null,
  "bulk_modulus": null,
  "shear_modulus": null,
  "universal_anisotropy": null,
  "homogeneous_poisson": null,
  "e_total": null,
  "e_ionic": null,
  "e_electronic": null,
  "n": null,
  "e_ij_max": null,
  "weighted_surface_energy_EV_PER_ANG2": null,
  "weighted_surface_energy": null,
  "weighted_work_function": null,
  "surface_anisotropy": null,
  "shape_factor": null,
  "has_reconstructed": null,
  "possible_species": null,
  "has_props": null,
  "theoretical": null,
  "database_IDs": null,
  "fields_not_requested": [
    "builder_meta",
    "nsites",
    "elements",
    "nelements",
    "composition",
    "composition_reduced",
    "chemsys",
    "symmetry",
    "property_name",
    "deprecated",
    "deprecation_reasons",
    "last_updated",
    "origins",
    "warnings",
    "task_ids",
    "uncorrected_energy_per_atom",
    "equilibrium_reaction_energy_per_atom",
    "decomposes_to",
    "xas",
    "grain_boundaries",
    "cbm",
    "vbm",
    "is_gap_direct",
    "is_metal",
    "es_source_calc_id",
    "bandstructure",
    "dos",
    "dos_energy_up",
    "dos_energy_down",
    "is_magnetic",
    "ordering",
    "total_magnetization_normalized_vol",
    "total_magnetization_normalized_formula_units",
    "num_magnetic_sites",
    "num_unique_magnetic_sites",
    "types_of_magnetic_species",
    "bulk_modulus",
    "shear_modulus",
    "universal_anisotropy",
    "homogeneous_poisson",
    "e_total",
    "e_ionic",
    "e_electronic",
    "n",
    "e_ij_max",
    "weighted_surface_energy_EV_PER_ANG2",
    "weighted_surface_energy",
    "weighted_work_function",
    "surface_anisotropy",
    "shape_factor",
    "has_reconstructed",
    "possible_species",
    "has_props",
    "theoretical",
    "database_IDs"
  ]
}
