{
  "builder_meta": null,
  "nsites": null,
  "elements": null,
  "nelements": null,
  "composition": null,
  "composition_reduced": null,
  "formula_pretty": "W2O3",
  "formula_anonymous": "A2B3",
  "chemsys": null,
  "volume": 268.80309098144886,
  "density": 10.27145763411783,
  "density_atomic": 13.440154549072442,
  "symmetry": null,
  "property_name": null,
  "material_id": "mp-1372094",
  "deprecated": null,
  "deprecation_reasons": null,
  "last_updated": null,
  "origins": null,
  "warnings": null,
  "structure": {
    "@module": "pymatgen.core.structure",
    "@class": "Structure",
    "charge": 0,
    "lattice": {
      "matrix": [
        [1.715564, -4.958918, 0.0],
        [1.715564, 4.958918, 0.0],
        [0.0, 0.0, 15.798302]
      ],
      "pbc": [true, true, true],
      "a": 5.247287639230386,
      "b": 5.247287639230386,
      "c": 15.798302,
      "alpha": 90.0,
      "beta": 90.0,
      "gamma": 141.83333376033295,
      "volume": 268.80309098144886
    },
    "properties": {},
    "sites": [
      {
        "species": [{ "element": "W", "occu": 1 }],
        "abc": [0.663532999999999, 0.336466999999999, 0.034724],
        "properties": { "magmom": -0.307 },
        "label": "W",
        "xyz": [1.7155639999999968, -1.621893474588, 0.548580238648]
      },
      {
        "species": [{ "element": "W", "occu": 1 }],
        "abc": [0.336466999999999, 0.663532999999999, 0.965275999999999],
        "properties": { "magmom": -0.307 },
        "label": "W",
        "xyz": [1.7155639999999968, 1.621893474588, 15.249721761351985]
      },
      {
        "species": [{ "element": "W", "occu": 1 }],
        "abc": [0.663532999999999, 0.336466999999999, 0.465275999999999],
        "properties": { "magmom": -0.307 },
        "label": "W",
        "xyz": [1.7155639999999968, -1.621893474588, 7.350570761351984]
      },
      {
        "species": [{ "element": "W", "occu": 1 }],
        "abc": [0.336466999999999, 0.663532999999999, 0.534724],
        "properties": { "magmom": -0.307 },
        "label": "W",
        "xyz": [1.7155639999999968, 1.621893474588, 8.447731238648]
      },
      {
        "species": [{ "element": "W", "occu": 1 }],
        "abc": [0.095932999999999, 0.904067, 0.631516],
        "properties": { "magmom": 2.093 },
        "label": "W",
        "xyz": [1.7155639999999983, 4.0074702390120045, 9.976880485832]
      },
      {
        "species": [{ "element": "W", "occu": 1 }],
        "abc": [0.904067, 0.095932999999999, 0.368484],
        "properties": { "magmom": 2.093 },
        "label": "W",
        "xyz": [1.7155639999999983, -4.0074702390120045, 5.821421514168]
      },
      {
        "species": [{ "element": "W", "occu": 1 }],
        "abc": [0.904067, 0.095932999999999, 0.131516],
        "properties": { "magmom": 2.093 },
        "label": "W",
        "xyz": [1.7155639999999983, -4.0074702390120045, 2.0777294858319997]
      },
      {
        "species": [{ "element": "W", "occu": 1 }],
        "abc": [0.095932999999999, 0.904067, 0.868483999999999],
        "properties": { "magmom": 2.093 },
        "label": "W",
        "xyz": [1.7155639999999983, 4.0074702390120045, 13.720572514167985]
      },
      {
        "species": [{ "element": "O", "occu": 1 }],
        "abc": [0.0, 0.0, 0.5],
        "properties": { "magmom": 0.036000000000000004 },
        "label": "O",
        "xyz": [0.0, 0.0, 7.899151]
      },
      {
        "species": [{ "element": "O", "occu": 1 }],
        "abc": [0.0, 0.0, 0.0],
        "properties": { "magmom": 0.036000000000000004 },
        "label": "O",
        "xyz": [0.0, 0.0, 0.0]
      },
      {
        "species": [{ "element": "O", "occu": 1 }],
        "abc": [0.471960999999999, 0.528038999999999, 0.864873],
        "properties": { "magmom": 0.003 },
        "label": "O",
        "xyz": [1.7155639999999968, 0.27808620360399994, 13.663524845646]
      },
      {
        "species": [{ "element": "O", "occu": 1 }],
        "abc": [0.528038999999999, 0.471960999999999, 0.135127],
        "properties": { "magmom": 0.003 },
        "label": "O",
        "xyz": [1.7155639999999968, -0.27808620360399994, 2.134777154354]
      },
      {
        "species": [{ "element": "O", "occu": 1 }],
        "abc": [0.528038999999999, 0.471960999999999, 0.364873],
        "properties": { "magmom": 0.003 },
        "label": "O",
        "xyz": [1.7155639999999968, -0.27808620360399994, 5.764373845646]
      },
      {
        "species": [{ "element": "O", "occu": 1 }],
        "abc": [0.471960999999999, 0.528038999999999, 0.635127],
        "properties": { "magmom": 0.003 },
        "label": "O",
        "xyz": [1.7155639999999968, 0.27808620360399994, 10.033928154354]
      },
      {
        "species": [{ "element": "O", "occu": 1 }],
        "abc": [0.739773, 0.260227, 0.900534],
        "properties": { "magmom": 0.06 },
        "label": "O",
        "xyz": [1.715564, -2.3780292912279997, 14.226908093268]
      },
      {
        "species": [{ "element": "O", "occu": 1 }],
        "abc": [0.260227, 0.739773, 0.099466],
        "properties": { "magmom": 0.06 },
        "label": "O",
        "xyz": [1.715564, 2.3780292912279997, 1.571393906732]
      },
      {
        "species": [{ "element": "O", "occu": 1 }],
        "abc": [0.260227, 0.739773, 0.400534],
        "properties": { "magmom": 0.06 },
        "label": "O",
        "xyz": [1.715564, 2.3780292912279997, 6.327757093268]
      },
      {
        "species": [{ "element": "O", "occu": 1 }],
        "abc": [0.739773, 0.260227, 0.599465999999999],
        "properties": { "magmom": 0.06 },
        "label": "O",
        "xyz": [1.715564, -2.3780292912279997, 9.470544906731984]
      },
      {
        "species": [{ "element": "O", "occu": 1 }],
        "abc": [0.155105, 0.844895, 0.75],
        "properties": { "magmom": 0.047 },
        "label": "O",
        "xyz": [1.715564, 3.4206120472199997, 11.8487265]
      },
      {
        "species": [{ "element": "O", "occu": 1 }],
        "abc": [0.844895, 0.155105, 0.25],
        "properties": { "magmom": 0.047 },
        "label": "O",
        "xyz": [1.715564, -3.4206120472199997, 3.9495755]
      }
    ]
  },
  "task_ids": null,
  "uncorrected_energy_per_atom": null,
  "energy_per_atom": -9.111709266999998,
  "formation_energy_per_atom": -0.9596805719999971,
  "energy_above_hull": 0.8733193005000021,
  "is_stable": false,
  "equilibrium_reaction_energy_per_atom": null,
  "decomposes_to": null,
  "xas": null,
  "grain_boundaries": null,
  "band_gap": 0.20569999999999902,
  "cbm": null,
  "vbm": null,
  "efermi": 5.1273969,
  "is_gap_direct": null,
  "is_metal": null,
  "es_source_calc_id": null,
  "bandstructure": null,
  "dos": null,
  "dos_energy_up": null,
  "dos_energy_down": null,
  "is_magnetic": null,
  "ordering": null,
  "total_magnetization": 8.0,
  "total_magnetization_normalized_vol": null,
  "total_magnetization_normalized_formula_units": null,
  "num_magnetic_sites": null,
  "num_unique_magnetic_sites": null,
  "types_of_magnetic_species": null,
  "bulk_modulus": null,
  "shear_modulus": null,
  "universal_anisotropy": null,
  "homogeneous_poisson": null,
  "e_total": null,
  "e_ionic": null,
  "e_electronic": null,
  "n": null,
  "e_ij_max": null,
  "weighted_surface_energy_EV_PER_ANG2": null,
  "weighted_surface_energy": null,
  "weighted_work_function": null,
  "surface_anisotropy": null,
  "shape_factor": null,
  "has_reconstructed": null,
  "possible_species": null,
  "has_props": null,
  "theoretical": null,
  "database_IDs": null,
  "fields_not_requested": [
    "builder_meta",
    "nsites",
    "elements",
    "nelements",
    "composition",
    "composition_reduced",
    "chemsys",
    "symmetry",
    "property_name",
    "deprecated",
    "deprecation_reasons",
    "last_updated",
    "origins",
    "warnings",
    "task_ids",
    "uncorrected_energy_per_atom",
    "equilibrium_reaction_energy_per_atom",
    "decomposes_to",
    "xas",
    "grain_boundaries",
    "cbm",
    "vbm",
    "is_gap_direct",
    "is_metal",
    "es_source_calc_id",
    "bandstructure",
    "dos",
    "dos_energy_up",
    "dos_energy_down",
    "is_magnetic",
    "ordering",
    "total_magnetization_normalized_vol",
    "total_magnetization_normalized_formula_units",
    "num_magnetic_sites",
    "num_unique_magnetic_sites",
    "types_of_magnetic_species",
    "bulk_modulus",
    "shear_modulus",
    "universal_anisotropy",
    "homogeneous_poisson",
    "e_total",
    "e_ionic",
    "e_electronic",
    "n",
    "e_ij_max",
    "weighted_surface_energy_EV_PER_ANG2",
    "weighted_surface_energy",
    "weighted_work_function",
    "surface_anisotropy",
    "shape_factor",
    "has_reconstructed",
    "possible_species",
    "has_props",
    "theoretical",
    "database_IDs"
  ]
}
