{"builder_meta": null, "nsites": null, "elements": null, "nelements": null, "composition": null, "composition_reduced": null, "formula_pretty": "W2O5", "formula_anonymous": "A2B5", "chemsys": null, "volume": 201.504846323931, "density": 7.378335174363523, "density_atomic": 14.393203308852213, "symmetry": null, "property_name": null, "material_id": "mp-1392923", "deprecated": null, "deprecation_reasons": null, "last_updated": null, "origins": null, "warnings": null, "structure": {"@module": "pymatgen.core.structure", "@class": "Structure", "charge": 0, "lattice": {"matrix": [[3.868304, 0.0, 0.0], [0.0, 4.03413, 0.0], [0.0, 0.0, 12.912639]], "pbc": [true, true, true], "a": 3.868304, "b": 4.03413, "c": 12.912639, "alpha": 90.0, "beta": 90.0, "gamma": 90.0, "volume": 201.504846323931}, "properties": {}, "sites": [{"species": [{"element": "W", "occu": 1}], "abc": [0.517361, 0.5, 0.348881999999999], "properties": {"magmom": 1.07}, "label": "W", "xyz": [2.0013096257439997, 2.017065, 4.504987319597988]}, {"species": [{"element": "W", "occu": 1}], "abc": [0.482639, 0.0, 0.151118], "properties": {"magmom": 1.07}, "label": "W", "xyz": [1.866994374256, 0.0, 1.951332180402]}, {"species": [{"element": "W", "occu": 1}], "abc": [0.482639, 0.0, 0.848881999999999], "properties": {"magmom": 1.07}, "label": "W", "xyz": [1.866994374256, 0.0, 10.961306819597988]}, {"species": [{"element": "W", "occu": 1}], "abc": [0.517361, 0.5, 0.651118], "properties": {"magmom": 1.07}, "label": "W", "xyz": [2.0013096257439997, 2.017065, 8.407651680402]}, {"species": [{"element": "O", "occu": 1}], "abc": [0.49373000000000006, 0.0, 0.316943], "properties": {"magmom": -0.008}, "label": "O", "xyz": [1.9098977339200003, 0.0, 4.092570542577]}, {"species": [{"element": "O", "occu": 1}], "abc": [0.50627, 0.5, 0.183057], "properties": {"magmom": -0.008}, "label": "O", "xyz": [1.9584062660800001, 2.017065, 2.363748957423]}, {"species": [{"element": "O", "occu": 1}], "abc": [0.50627, 0.5, 0.816943], "properties": {"magmom": -0.008}, "label": "O", "xyz": [1.9584062660800001, 2.017065, 10.548890042577]}, {"species": [{"element": "O", "occu": 1}], "abc": [0.49373000000000006, 0.0, 0.683056999999999], "properties": {"magmom": -0.008}, "label": "O", "xyz": [1.9098977339200003, 0.0, 8.820068457422988]}, {"species": [{"element": "O", "occu": 1}], "abc": [0.009054999999999001, 0.5, 0.653980999999999], "properties": {"magmom": -0.064}, "label": "O", "xyz": [0.03502749271999614, 2.017065, 8.444620565858989]}, {"species": [{"element": "O", "occu": 1}], "abc": [0.990945, 0.0, 0.846019], "properties": {"magmom": -0.064}, "label": "O", "xyz": [3.83327650728, 0.0, 10.924337934141]}, {"species": [{"element": "O", "occu": 1}], "abc": [0.990945, 0.0, 0.153981], "properties": {"magmom": -0.064}, "label": "O", "xyz": [3.83327650728, 0.0, 1.9883010658590001]}, {"species": [{"element": "O", "occu": 1}], "abc": [0.484817999999999, 0.0, 0.0], "properties": {"magmom": 0.013000000000000001}, "label": "O", "xyz": [1.8754234086719963, 0.0, 0.0]}, {"species": [{"element": "O", "occu": 1}], "abc": [0.515182, 0.5, 0.5], "properties": {"magmom": 0.013000000000000001}, "label": "O", "xyz": [1.992880591328, 2.017065, 6.4563195]}, {"species": [{"element": "O", "occu": 1}], "abc": [0.009054999999999001, 0.5, 0.346018999999999], "properties": {"magmom": -0.064}, "label": "O", "xyz": [0.03502749271999614, 2.017065, 4.468018434140988]}]}, "task_ids": null, "uncorrected_energy_per_atom": null, "energy_per_atom": -9.285054194285715, "formation_energy_per_atom": -2.048473410714286, "energy_above_hull": 0.076304018035713, "is_stable": false, "equilibrium_reaction_energy_per_atom": null, "decomposes_to": null, "xas": null, "grain_boundaries": null, "band_gap": 0.0, "cbm": null, "vbm": null, "efermi": 3.04314474, "is_gap_direct": null, "is_metal": null, "es_source_calc_id": null, "bandstructure": null, "dos": null, "dos_energy_up": null, "dos_energy_down": null, "is_magnetic": null, "ordering": null, "total_magnetization": 4.0050626, "total_magnetization_normalized_vol": null, "total_magnetization_normalized_formula_units": null, "num_magnetic_sites": null, "num_unique_magnetic_sites": null, "types_of_magnetic_species": null, "bulk_modulus": null, "shear_modulus": null, "universal_anisotropy": null, "homogeneous_poisson": null, "e_total": null, "e_ionic": null, "e_electronic": null, "n": null, "e_ij_max": null, "weighted_surface_energy_EV_PER_ANG2": null, "weighted_surface_energy": null, "weighted_work_function": null, "surface_anisotropy": null, "shape_factor": null, "has_reconstructed": null, "possible_species": null, "has_props": null, "theoretical": null, "database_IDs": null, "fields_not_requested": ["builder_meta", "nsites", "elements", "nelements", "composition", "composition_reduced", "chemsys", "symmetry", "property_name", "deprecated", "deprecation_reasons", "last_updated", "origins", "warnings", "task_ids", "uncorrected_energy_per_atom", "equilibrium_reaction_energy_per_atom", "decomposes_to", "xas", "grain_boundaries", "cbm", "vbm", "is_gap_direct", "is_metal", "es_source_calc_id", "bandstructure", "dos", "dos_energy_up", "dos_energy_down", "is_magnetic", "ordering", "total_magnetization_normalized_vol", "total_magnetization_normalized_formula_units", "num_magnetic_sites", "num_unique_magnetic_sites", "types_of_magnetic_species", "bulk_modulus", "shear_modulus", "universal_anisotropy", "homogeneous_poisson", "e_total", "e_ionic", "e_electronic", "n", "e_ij_max", "weighted_surface_energy_EV_PER_ANG2", "weighted_surface_energy", "weighted_work_function", "surface_anisotropy", "shape_factor", "has_reconstructed", "possible_species", "has_props", "theoretical", "database_IDs"]}