{"builder_meta": null, "nsites": null, "elements": null, "nelements": null, "composition": null, "composition_reduced": null, "formula_pretty": "W2O7", "formula_anonymous": "A2B7", "chemsys": null, "volume": 281.3683708713511, "density": 5.661762213968235, "density_atomic": 15.631576159519504, "symmetry": null, "property_name": null, "material_id": "mp-1178760", "deprecated": null, "deprecation_reasons": null, "last_updated": null, "origins": null, "warnings": null, "structure": {"@module": "pymatgen.core.structure", "@class": "Structure", "charge": 0, "lattice": {"matrix": [[0.0, 5.200939, 5.200939], [5.200939, 0.0, 5.200939], [5.200939, 5.200939, 0.0]], "pbc": [true, true, true], "a": 7.355238470875163, "b": 7.355238470875163, "c": 7.355238470875163, "alpha": 59.99999999999999, "beta": 59.99999999999999, "gamma": 59.99999999999999, "volume": 281.3683708713511}, "properties": {}, "sites": [{"species": [{"element": "W", "occu": 1}], "abc": [0.125, 0.625, 0.625], "properties": {"magmom": -0.004}, "label": "W", "xyz": [6.5011737499999995, 3.9007042499999995, 3.9007042499999995]}, {"species": [{"element": "W", "occu": 1}], "abc": [0.625, 0.125, 0.625], "properties": {"magmom": -0.004}, "label": "W", "xyz": [3.9007042499999995, 6.5011737499999995, 3.9007042499999995]}, {"species": [{"element": "W", "occu": 1}], "abc": [0.625, 0.625, 0.125], "properties": {"magmom": -0.004}, "label": "W", "xyz": [3.9007042499999995, 3.9007042499999995, 6.5011737499999995]}, {"species": [{"element": "W", "occu": 1}], "abc": [0.625, 0.625, 0.625], "properties": {"magmom": -0.004}, "label": "W", "xyz": [6.5011737499999995, 6.5011737499999995, 6.5011737499999995]}, {"species": [{"element": "O", "occu": 1}], "abc": [0.68388, 0.68388, 0.31612], "properties": {"magmom": 0.006}, "label": "O", "xyz": [5.200939, 5.200939, 7.11363632664]}, {"species": [{"element": "O", "occu": 1}], "abc": [0.31612, 0.31612, 0.68388], "properties": {"magmom": 0.006}, "label": "O", "xyz": [5.200939, 5.200939, 3.28824167336]}, {"species": [{"element": "O", "occu": 1}], "abc": [0.68388, 0.31612, 0.68388], "properties": {"magmom": 0.006}, "label": "O", "xyz": [5.200939, 7.11363632664, 5.200939]}, {"species": [{"element": "O", "occu": 1}], "abc": [0.31612, 0.68388, 0.31612], "properties": {"magmom": 0.006}, "label": "O", "xyz": [5.200939, 3.28824167336, 5.200939]}, {"species": [{"element": "O", "occu": 1}], "abc": [0.31612, 0.68388, 0.68388], "properties": {"magmom": 0.006}, "label": "O", "xyz": [7.11363632664, 5.200939, 5.200939]}, {"species": [{"element": "O", "occu": 1}], "abc": [0.68388, 0.31612, 0.31612], "properties": {"magmom": 0.006}, "label": "O", "xyz": [3.28824167336, 5.200939, 5.200939]}, {"species": [{"element": "O", "occu": 1}], "abc": [0.5661200000000001, 0.5661200000000001, 0.93388], "properties": {"magmom": 0.006}, "label": "O", "xyz": [7.801408500000001, 7.801408500000001, 5.888711173360001]}, {"species": [{"element": "O", "occu": 1}], "abc": [0.93388, 0.93388, 0.5661200000000001], "properties": {"magmom": 0.006}, "label": "O", "xyz": [7.801408500000001, 7.801408500000001, 9.71410582664]}, {"species": [{"element": "O", "occu": 1}], "abc": [0.5661200000000001, 0.93388, 0.5661200000000001], "properties": {"magmom": 0.006}, "label": "O", "xyz": [7.801408500000001, 5.888711173360001, 7.801408500000001]}, {"species": [{"element": "O", "occu": 1}], "abc": [0.93388, 0.5661200000000001, 0.93388], "properties": {"magmom": 0.006}, "label": "O", "xyz": [7.801408500000001, 9.71410582664, 7.801408500000001]}, {"species": [{"element": "O", "occu": 1}], "abc": [0.93388, 0.5661200000000001, 0.5661200000000001], "properties": {"magmom": 0.006}, "label": "O", "xyz": [5.888711173360001, 7.801408500000001, 7.801408500000001]}, {"species": [{"element": "O", "occu": 1}], "abc": [0.5661200000000001, 0.93388, 0.93388], "properties": {"magmom": 0.006}, "label": "O", "xyz": [9.71410582664, 7.801408500000001, 7.801408500000001]}, {"species": [{"element": "O", "occu": 1}], "abc": [0.25, 0.25, 0.25], "properties": {"magmom": 1.541}, "label": "O", "xyz": [2.6004695, 2.6004695, 2.6004695]}, {"species": [{"element": "O", "occu": 1}], "abc": [0.0, 0.0, 0.0], "properties": {"magmom": 1.541}, "label": "O", "xyz": [0.0, 0.0, 0.0]}]}, "task_ids": null, "uncorrected_energy_per_atom": null, "energy_per_atom": -8.371045585555557, "formation_energy_per_atom": -1.643046974999999, "energy_above_hull": 0.304384675277775, "is_stable": false, "equilibrium_reaction_energy_per_atom": null, "decomposes_to": null, "xas": null, "grain_boundaries": null, "band_gap": 0.0, "cbm": null, "vbm": null, "efermi": -1.13434621, "is_gap_direct": null, "is_metal": null, "es_source_calc_id": null, "bandstructure": null, "dos": null, "dos_energy_up": null, "dos_energy_down": null, "is_magnetic": null, "ordering": null, "total_magnetization": 3.9997128, "total_magnetization_normalized_vol": null, "total_magnetization_normalized_formula_units": null, "num_magnetic_sites": null, "num_unique_magnetic_sites": null, "types_of_magnetic_species": null, "bulk_modulus": null, "shear_modulus": null, "universal_anisotropy": null, "homogeneous_poisson": null, "e_total": null, "e_ionic": null, "e_electronic": null, "n": null, "e_ij_max": null, "weighted_surface_energy_EV_PER_ANG2": null, "weighted_surface_energy": null, "weighted_work_function": null, "surface_anisotropy": null, "shape_factor": null, "has_reconstructed": null, "possible_species": null, "has_props": null, "theoretical": null, "database_IDs": null, "fields_not_requested": ["builder_meta", "nsites", "elements", "nelements", "composition", "composition_reduced", "chemsys", "symmetry", "property_name", "deprecated", "deprecation_reasons", "last_updated", "origins", "warnings", "task_ids", "uncorrected_energy_per_atom", "equilibrium_reaction_energy_per_atom", "decomposes_to", "xas", "grain_boundaries", "cbm", "vbm", "is_gap_direct", "is_metal", "es_source_calc_id", "bandstructure", "dos", "dos_energy_up", "dos_energy_down", "is_magnetic", "ordering", "total_magnetization_normalized_vol", "total_magnetization_normalized_formula_units", "num_magnetic_sites", "num_unique_magnetic_sites", "types_of_magnetic_species", "bulk_modulus", "shear_modulus", "universal_anisotropy", "homogeneous_poisson", "e_total", "e_ionic", "e_electronic", "n", "e_ij_max", "weighted_surface_energy_EV_PER_ANG2", "weighted_surface_energy", "weighted_work_function", "surface_anisotropy", "shape_factor", "has_reconstructed", "possible_species", "has_props", "theoretical", "database_IDs"]}