{
  "builder_meta": null,
  "nsites": null,
  "elements": null,
  "nelements": null,
  "composition": null,
  "composition_reduced": null,
  "formula_pretty": "W3Br7",
  "formula_anonymous": "A3B7",
  "chemsys": null,
  "volume": 2852.950285030472,
  "density": 5.172488313541781,
  "density_atomic": 35.6618785628809,
  "symmetry": null,
  "property_name": null,
  "material_id": "mp-28880",
  "deprecated": null,
  "deprecation_reasons": null,
  "last_updated": null,
  "origins": null,
  "warnings": null,
  "structure": {
    "@module": "pymatgen.core.structure",
    "@class": "Structure",
    "charge": 0,
    "lattice": {
      "matrix": [
        [14.18289, 0.0, 0.0],
        [0.0, 14.18289, 0.0],
        [0.0, 0.0, 14.18289]
      ],
      "pbc": [true, true, true],
      "a": 14.18289,
      "b": 14.18289,
      "c": 14.18289,
      "alpha": 90.0,
      "beta": 90.0,
      "gamma": 90.0,
      "volume": 2852.950285030472
    },
    "properties": {},
    "sites": [
      {
        "species": [{ "element": "W", "occu": 1 }],
        "abc": [0.876325999999999, 0.723654, 0.785195],
        "properties": { "magmom": -0.0 },
        "label": "W",
        "xyz": [12.428835262139987, 10.26350508006, 11.13633431355]
      },
      {
        "species": [{ "element": "W", "occu": 1 }],
        "abc": [0.785195, 0.876325999999999, 0.723654],
        "properties": { "magmom": -0.0 },
        "label": "W",
        "xyz": [11.13633431355, 12.428835262139987, 10.26350508006]
      },
      {
        "species": [{ "element": "W", "occu": 1 }],
        "abc": [0.723654, 0.785195, 0.876325999999999],
        "properties": { "magmom": -0.0 },
        "label": "W",
        "xyz": [10.26350508006, 11.13633431355, 12.428835262139987]
      },
      {
        "species": [{ "element": "W", "occu": 1 }],
        "abc": [0.276346, 0.214805, 0.876325999999999],
        "properties": { "magmom": -0.0 },
        "label": "W",
        "xyz": [3.9193849199399997, 3.04655568645, 12.428835262139987]
      },
      {
        "species": [{ "element": "W", "occu": 1 }],
        "abc": [0.785195, 0.12367399999999901, 0.276346],
        "properties": { "magmom": -0.0 },
        "label": "W",
        "xyz": [11.13633431355, 1.754054737859986, 3.9193849199399997]
      },
      {
        "species": [{ "element": "W", "occu": 1 }],
        "abc": [0.276346, 0.785195, 0.12367399999999901],
        "properties": { "magmom": 0.0 },
        "label": "W",
        "xyz": [3.9193849199399997, 11.13633431355, 1.754054737859986]
      },
      {
        "species": [{ "element": "W", "occu": 1 }],
        "abc": [0.214805, 0.12367399999999901, 0.723654],
        "properties": { "magmom": -0.0 },
        "label": "W",
        "xyz": [3.04655568645, 1.754054737859986, 10.26350508006]
      },
      {
        "species": [{ "element": "W", "occu": 1 }],
        "abc": [0.214805, 0.876325999999999, 0.276346],
        "properties": { "magmom": 0.0 },
        "label": "W",
        "xyz": [3.04655568645, 12.428835262139987, 3.9193849199399997]
      },
      {
        "species": [{ "element": "W", "occu": 1 }],
        "abc": [0.723654, 0.214805, 0.12367399999999901],
        "properties": { "magmom": 0.0 },
        "label": "W",
        "xyz": [10.26350508006, 3.04655568645, 1.754054737859986]
      },
      {
        "species": [{ "element": "W", "occu": 1 }],
        "abc": [0.876325999999999, 0.276346, 0.214805],
        "properties": { "magmom": -0.0 },
        "label": "W",
        "xyz": [12.428835262139987, 3.9193849199399997, 3.04655568645]
      },
      {
        "species": [{ "element": "W", "occu": 1 }],
        "abc": [0.12367399999999901, 0.723654, 0.214805],
        "properties": { "magmom": -0.0 },
        "label": "W",
        "xyz": [1.754054737859986, 10.26350508006, 3.04655568645]
      },
      {
        "species": [{ "element": "W", "occu": 1 }],
        "abc": [0.12367399999999901, 0.276346, 0.785195],
        "properties": { "magmom": -0.0 },
        "label": "W",
        "xyz": [1.754054737859986, 3.9193849199399997, 11.13633431355]
      },
      {
        "species": [{ "element": "W", "occu": 1 }],
        "abc": [0.623674, 0.776346, 0.714804999999999],
        "properties": { "magmom": -0.0 },
        "label": "W",
        "xyz": [8.845499737859999, 11.01082991994, 10.138000686449987]
      },
      {
        "species": [{ "element": "W", "occu": 1 }],
        "abc": [0.714804999999999, 0.623674, 0.776346],
        "properties": { "magmom": -0.0 },
        "label": "W",
        "xyz": [10.138000686449987, 8.845499737859999, 11.01082991994]
      },
      {
        "species": [{ "element": "W", "occu": 1 }],
        "abc": [0.776346, 0.714804999999999, 0.623674],
        "properties": { "magmom": -0.0 },
        "label": "W",
        "xyz": [11.01082991994, 10.138000686449987, 8.845499737859999]
      },
      {
        "species": [{ "element": "W", "occu": 1 }],
        "abc": [0.223654, 0.285195, 0.623674],
        "properties": { "magmom": -0.0 },
        "label": "W",
        "xyz": [3.17206008006, 4.04488931355, 8.845499737859999]
      },
      {
        "species": [{ "element": "W", "occu": 1 }],
        "abc": [0.714804999999999, 0.376326, 0.223654],
        "properties": { "magmom": 0.0 },
        "label": "W",
        "xyz": [10.138000686449987, 5.3373902621400005, 3.17206008006]
      },
      {
        "species": [{ "element": "W", "occu": 1 }],
        "abc": [0.223654, 0.714804999999999, 0.376326],
        "properties": { "magmom": 0.0 },
        "label": "W",
        "xyz": [3.17206008006, 10.138000686449987, 5.3373902621400005]
      },
      {
        "species": [{ "element": "W", "occu": 1 }],
        "abc": [0.285195, 0.376326, 0.776346],
        "properties": { "magmom": 0.0 },
        "label": "W",
        "xyz": [4.04488931355, 5.3373902621400005, 11.01082991994]
      },
      {
        "species": [{ "element": "W", "occu": 1 }],
        "abc": [0.285195, 0.623674, 0.223654],
        "properties": { "magmom": 0.0 },
        "label": "W",
        "xyz": [4.04488931355, 8.845499737859999, 3.17206008006]
      },
      {
        "species": [{ "element": "W", "occu": 1 }],
        "abc": [0.776346, 0.285195, 0.376326],
        "properties": { "magmom": 0.0 },
        "label": "W",
        "xyz": [11.01082991994, 4.04488931355, 5.3373902621400005]
      },
      {
        "species": [{ "element": "W", "occu": 1 }],
        "abc": [0.623674, 0.223654, 0.285195],
        "properties": { "magmom": -0.0 },
        "label": "W",
        "xyz": [8.845499737859999, 3.17206008006, 4.04488931355]
      },
      {
        "species": [{ "element": "W", "occu": 1 }],
        "abc": [0.376326, 0.776346, 0.285195],
        "properties": { "magmom": -0.0 },
        "label": "W",
        "xyz": [5.3373902621400005, 11.01082991994, 4.04488931355]
      },
      {
        "species": [{ "element": "W", "occu": 1 }],
        "abc": [0.376326, 0.223654, 0.714804999999999],
        "properties": { "magmom": -0.0 },
        "label": "W",
        "xyz": [5.3373902621400005, 3.17206008006, 10.138000686449987]
      },
      {
        "species": [{ "element": "Br", "occu": 1 }],
        "abc": [0.8831, 0.8831, 0.8831],
        "properties": { "magmom": -0.0 },
        "label": "Br",
        "xyz": [12.524910159000001, 12.524910159000001, 12.524910159000001]
      },
      {
        "species": [{ "element": "Br", "occu": 1 }],
        "abc": [0.1169, 0.1169, 0.8831],
        "properties": { "magmom": -0.0 },
        "label": "Br",
        "xyz": [1.6579798410000002, 1.6579798410000002, 12.524910159000001]
      },
      {
        "species": [{ "element": "Br", "occu": 1 }],
        "abc": [0.8831, 0.1169, 0.1169],
        "properties": { "magmom": -0.0 },
        "label": "Br",
        "xyz": [12.524910159000001, 1.6579798410000002, 1.6579798410000002]
      },
      {
        "species": [{ "element": "Br", "occu": 1 }],
        "abc": [0.1169, 0.8831, 0.1169],
        "properties": { "magmom": -0.0 },
        "label": "Br",
        "xyz": [1.6579798410000002, 12.524910159000001, 1.6579798410000002]
      },
      {
        "species": [{ "element": "Br", "occu": 1 }],
        "abc": [0.6169, 0.6169, 0.6169],
        "properties": { "magmom": -0.0 },
        "label": "Br",
        "xyz": [8.749424841, 8.749424841, 8.749424841]
      },
      {
        "species": [{ "element": "Br", "occu": 1 }],
        "abc": [0.3831, 0.3831, 0.6169],
        "properties": { "magmom": -0.0 },
        "label": "Br",
        "xyz": [5.433465159, 5.433465159, 8.749424841]
      },
      {
        "species": [{ "element": "Br", "occu": 1 }],
        "abc": [0.6169, 0.3831, 0.3831],
        "properties": { "magmom": -0.0 },
        "label": "Br",
        "xyz": [8.749424841, 5.433465159, 5.433465159]
      },
      {
        "species": [{ "element": "Br", "occu": 1 }],
        "abc": [0.3831, 0.6169, 0.3831],
        "properties": { "magmom": -0.0 },
        "label": "Br",
        "xyz": [5.433465159, 8.749424841, 5.433465159]
      },
      {
        "species": [{ "element": "Br", "occu": 1 }],
        "abc": [0.935338, 0.812917, 0.631459],
        "properties": { "magmom": -0.0 },
        "label": "Br",
        "xyz": [13.26579596682, 11.52951239013, 8.95591353651]
      },
      {
        "species": [{ "element": "Br", "occu": 1 }],
        "abc": [0.631459, 0.935338, 0.812917],
        "properties": { "magmom": 0.0 },
        "label": "Br",
        "xyz": [8.95591353651, 13.26579596682, 11.52951239013]
      },
      {
        "species": [{ "element": "Br", "occu": 1 }],
        "abc": [0.812917, 0.631459, 0.935338],
        "properties": { "magmom": 0.0 },
        "label": "Br",
        "xyz": [11.52951239013, 8.95591353651, 13.26579596682]
      },
      {
        "species": [{ "element": "Br", "occu": 1 }],
        "abc": [0.187083, 0.368541, 0.935338],
        "properties": { "magmom": 0.0 },
        "label": "Br",
        "xyz": [2.65337760987, 5.226976463490001, 13.26579596682]
      },
      {
        "species": [{ "element": "Br", "occu": 1 }],
        "abc": [0.631459, 0.064662, 0.187083],
        "properties": { "magmom": 0.0 },
        "label": "Br",
        "xyz": [8.95591353651, 0.9170940331799999, 2.65337760987]
      },
      {
        "species": [{ "element": "Br", "occu": 1 }],
        "abc": [0.187083, 0.631459, 0.064662],
        "properties": { "magmom": 0.0 },
        "label": "Br",
        "xyz": [2.65337760987, 8.95591353651, 0.9170940331799999]
      },
      {
        "species": [{ "element": "Br", "occu": 1 }],
        "abc": [0.368541, 0.064662, 0.812917],
        "properties": { "magmom": 0.0 },
        "label": "Br",
        "xyz": [5.226976463490001, 0.9170940331799999, 11.52951239013]
      },
      {
        "species": [{ "element": "Br", "occu": 1 }],
        "abc": [0.368541, 0.935338, 0.187083],
        "properties": { "magmom": 0.0 },
        "label": "Br",
        "xyz": [5.226976463490001, 13.26579596682, 2.65337760987]
      },
      {
        "species": [{ "element": "Br", "occu": 1 }],
        "abc": [0.812917, 0.368541, 0.064662],
        "properties": { "magmom": 0.0 },
        "label": "Br",
        "xyz": [11.52951239013, 5.226976463490001, 0.9170940331799999]
      },
      {
        "species": [{ "element": "Br", "occu": 1 }],
        "abc": [0.935338, 0.187083, 0.368541],
        "properties": { "magmom": 0.0 },
        "label": "Br",
        "xyz": [13.26579596682, 2.65337760987, 5.226976463490001]
      },
      {
        "species": [{ "element": "Br", "occu": 1 }],
        "abc": [0.064662, 0.812917, 0.368541],
        "properties": { "magmom": 0.0 },
        "label": "Br",
        "xyz": [0.9170940331799999, 11.52951239013, 5.226976463490001]
      },
      {
        "species": [{ "element": "Br", "occu": 1 }],
        "abc": [0.064662, 0.187083, 0.631459],
        "properties": { "magmom": 0.0 },
        "label": "Br",
        "xyz": [0.9170940331799999, 2.65337760987, 8.95591353651]
      },
      {
        "species": [{ "element": "Br", "occu": 1 }],
        "abc": [0.564662, 0.687083, 0.868541],
        "properties": { "magmom": 0.0 },
        "label": "Br",
        "xyz": [8.00853903318, 9.74482260987, 12.318421463490001]
      },
      {
        "species": [{ "element": "Br", "occu": 1 }],
        "abc": [0.868541, 0.564662, 0.687083],
        "properties": { "magmom": 0.0 },
        "label": "Br",
        "xyz": [12.318421463490001, 8.00853903318, 9.74482260987]
      },
      {
        "species": [{ "element": "Br", "occu": 1 }],
        "abc": [0.687083, 0.868541, 0.564662],
        "properties": { "magmom": -0.0 },
        "label": "Br",
        "xyz": [9.74482260987, 12.318421463490001, 8.00853903318]
      },
      {
        "species": [{ "element": "Br", "occu": 1 }],
        "abc": [0.312917, 0.131459, 0.564662],
        "properties": { "magmom": 0.0 },
        "label": "Br",
        "xyz": [4.4380673901300005, 1.86446853651, 8.00853903318]
      },
      {
        "species": [{ "element": "Br", "occu": 1 }],
        "abc": [0.868541, 0.435338, 0.312917],
        "properties": { "magmom": 0.0 },
        "label": "Br",
        "xyz": [12.318421463490001, 6.1743509668200005, 4.4380673901300005]
      },
      {
        "species": [{ "element": "Br", "occu": 1 }],
        "abc": [0.312917, 0.868541, 0.435338],
        "properties": { "magmom": 0.0 },
        "label": "Br",
        "xyz": [4.4380673901300005, 12.318421463490001, 6.1743509668200005]
      },
      {
        "species": [{ "element": "Br", "occu": 1 }],
        "abc": [0.131459, 0.435338, 0.687083],
        "properties": { "magmom": 0.0 },
        "label": "Br",
        "xyz": [1.86446853651, 6.1743509668200005, 9.74482260987]
      },
      {
        "species": [{ "element": "Br", "occu": 1 }],
        "abc": [0.131459, 0.564662, 0.312917],
        "properties": { "magmom": 0.0 },
        "label": "Br",
        "xyz": [1.86446853651, 8.00853903318, 4.4380673901300005]
      },
      {
        "species": [{ "element": "Br", "occu": 1 }],
        "abc": [0.687083, 0.131459, 0.435338],
        "properties": { "magmom": 0.0 },
        "label": "Br",
        "xyz": [9.74482260987, 1.86446853651, 6.1743509668200005]
      },
      {
        "species": [{ "element": "Br", "occu": 1 }],
        "abc": [0.564662, 0.312917, 0.131459],
        "properties": { "magmom": 0.0 },
        "label": "Br",
        "xyz": [8.00853903318, 4.4380673901300005, 1.86446853651]
      },
      {
        "species": [{ "element": "Br", "occu": 1 }],
        "abc": [0.435338, 0.687083, 0.131459],
        "properties": { "magmom": 0.0 },
        "label": "Br",
        "xyz": [6.1743509668200005, 9.74482260987, 1.86446853651]
      },
      {
        "species": [{ "element": "Br", "occu": 1 }],
        "abc": [0.435338, 0.312917, 0.868541],
        "properties": { "magmom": 0.0 },
        "label": "Br",
        "xyz": [6.1743509668200005, 4.4380673901300005, 12.318421463490001]
      },
      {
        "species": [{ "element": "Br", "occu": 1 }],
        "abc": [0.046167, 0.688747, 0.831631],
        "properties": { "magmom": -0.0 },
        "label": "Br",
        "xyz": [0.65478148263, 9.76842293883, 11.79493099359]
      },
      {
        "species": [{ "element": "Br", "occu": 1 }],
        "abc": [0.831631, 0.046167, 0.688747],
        "properties": { "magmom": -0.0 },
        "label": "Br",
        "xyz": [11.79493099359, 0.65478148263, 9.76842293883]
      },
      {
        "species": [{ "element": "Br", "occu": 1 }],
        "abc": [0.688747, 0.831631, 0.046167],
        "properties": { "magmom": -0.0 },
        "label": "Br",
        "xyz": [9.76842293883, 11.79493099359, 0.65478148263]
      },
      {
        "species": [{ "element": "Br", "occu": 1 }],
        "abc": [0.311253, 0.168369, 0.046167],
        "properties": { "magmom": -0.0 },
        "label": "Br",
        "xyz": [4.41446706117, 2.38795900641, 0.65478148263]
      },
      {
        "species": [{ "element": "Br", "occu": 1 }],
        "abc": [0.831631, 0.953832999999999, 0.311253],
        "properties": { "magmom": -0.0 },
        "label": "Br",
        "xyz": [11.79493099359, 13.528108517369986, 4.41446706117]
      },
      {
        "species": [{ "element": "Br", "occu": 1 }],
        "abc": [0.311253, 0.831631, 0.953832999999999],
        "properties": { "magmom": -0.0 },
        "label": "Br",
        "xyz": [4.41446706117, 11.79493099359, 13.528108517369986]
      },
      {
        "species": [{ "element": "Br", "occu": 1 }],
        "abc": [0.168369, 0.953832999999999, 0.688747],
        "properties": { "magmom": -0.0 },
        "label": "Br",
        "xyz": [2.38795900641, 13.528108517369986, 9.76842293883]
      },
      {
        "species": [{ "element": "Br", "occu": 1 }],
        "abc": [0.168369, 0.046167, 0.311253],
        "properties": { "magmom": -0.0 },
        "label": "Br",
        "xyz": [2.38795900641, 0.65478148263, 4.41446706117]
      },
      {
        "species": [{ "element": "Br", "occu": 1 }],
        "abc": [0.688747, 0.168369, 0.953832999999999],
        "properties": { "magmom": -0.0 },
        "label": "Br",
        "xyz": [9.76842293883, 2.38795900641, 13.528108517369986]
      },
      {
        "species": [{ "element": "Br", "occu": 1 }],
        "abc": [0.046167, 0.311253, 0.168369],
        "properties": { "magmom": -0.0 },
        "label": "Br",
        "xyz": [0.65478148263, 4.41446706117, 2.38795900641]
      },
      {
        "species": [{ "element": "Br", "occu": 1 }],
        "abc": [0.953832999999999, 0.688747, 0.168369],
        "properties": { "magmom": -0.0 },
        "label": "Br",
        "xyz": [13.528108517369986, 9.76842293883, 2.38795900641]
      },
      {
        "species": [{ "element": "Br", "occu": 1 }],
        "abc": [0.953832999999999, 0.311253, 0.831631],
        "properties": { "magmom": -0.0 },
        "label": "Br",
        "xyz": [13.528108517369986, 4.41446706117, 11.79493099359]
      },
      {
        "species": [{ "element": "Br", "occu": 1 }],
        "abc": [0.453833, 0.811253, 0.668369],
        "properties": { "magmom": -0.0 },
        "label": "Br",
        "xyz": [6.43666351737, 11.505912061170001, 9.47940400641]
      },
      {
        "species": [{ "element": "Br", "occu": 1 }],
        "abc": [0.668369, 0.453833, 0.811253],
        "properties": { "magmom": -0.0 },
        "label": "Br",
        "xyz": [9.47940400641, 6.43666351737, 11.505912061170001]
      },
      {
        "species": [{ "element": "Br", "occu": 1 }],
        "abc": [0.811253, 0.668369, 0.453833],
        "properties": { "magmom": -0.0 },
        "label": "Br",
        "xyz": [11.505912061170001, 9.47940400641, 6.43666351737]
      },
      {
        "species": [{ "element": "Br", "occu": 1 }],
        "abc": [0.188747, 0.331631, 0.453833],
        "properties": { "magmom": -0.0 },
        "label": "Br",
        "xyz": [2.67697793883, 4.70348599359, 6.43666351737]
      },
      {
        "species": [{ "element": "Br", "occu": 1 }],
        "abc": [0.668369, 0.546167, 0.188747],
        "properties": { "magmom": -0.0 },
        "label": "Br",
        "xyz": [9.47940400641, 7.74622648263, 2.67697793883]
      },
      {
        "species": [{ "element": "Br", "occu": 1 }],
        "abc": [0.188747, 0.668369, 0.546167],
        "properties": { "magmom": -0.0 },
        "label": "Br",
        "xyz": [2.67697793883, 9.47940400641, 7.74622648263]
      },
      {
        "species": [{ "element": "Br", "occu": 1 }],
        "abc": [0.331631, 0.546167, 0.811253],
        "properties": { "magmom": -0.0 },
        "label": "Br",
        "xyz": [4.70348599359, 7.74622648263, 11.505912061170001]
      },
      {
        "species": [{ "element": "Br", "occu": 1 }],
        "abc": [0.331631, 0.453833, 0.188747],
        "properties": { "magmom": -0.0 },
        "label": "Br",
        "xyz": [4.70348599359, 6.43666351737, 2.67697793883]
      },
      {
        "species": [{ "element": "Br", "occu": 1 }],
        "abc": [0.811253, 0.331631, 0.546167],
        "properties": { "magmom": -0.0 },
        "label": "Br",
        "xyz": [11.505912061170001, 4.70348599359, 7.74622648263]
      },
      {
        "species": [{ "element": "Br", "occu": 1 }],
        "abc": [0.453833, 0.188747, 0.331631],
        "properties": { "magmom": -0.0 },
        "label": "Br",
        "xyz": [6.43666351737, 2.67697793883, 4.70348599359]
      },
      {
        "species": [{ "element": "Br", "occu": 1 }],
        "abc": [0.546167, 0.811253, 0.331631],
        "properties": { "magmom": 0.0 },
        "label": "Br",
        "xyz": [7.74622648263, 11.505912061170001, 4.70348599359]
      },
      {
        "species": [{ "element": "Br", "occu": 1 }],
        "abc": [0.546167, 0.188747, 0.668369],
        "properties": { "magmom": -0.0 },
        "label": "Br",
        "xyz": [7.74622648263, 2.67697793883, 9.47940400641]
      }
    ]
  },
  "task_ids": null,
  "uncorrected_energy_per_atom": null,
  "energy_per_atom": -5.856205281125,
  "formation_energy_per_atom": -0.8229036376249991,
  "energy_above_hull": 0.040969492041668006,
  "is_stable": false,
  "equilibrium_reaction_energy_per_atom": null,
  "decomposes_to": null,
  "xas": null,
  "grain_boundaries": null,
  "band_gap": 0.0,
  "cbm": null,
  "vbm": null,
  "efermi": -0.09695251,
  "is_gap_direct": null,
  "is_metal": null,
  "es_source_calc_id": null,
  "bandstructure": null,
  "dos": null,
  "dos_energy_up": null,
  "dos_energy_down": null,
  "is_magnetic": null,
  "ordering": null,
  "total_magnetization": 0.0104502,
  "total_magnetization_normalized_vol": null,
  "total_magnetization_normalized_formula_units": null,
  "num_magnetic_sites": null,
  "num_unique_magnetic_sites": null,
  "types_of_magnetic_species": null,
  "bulk_modulus": null,
  "shear_modulus": null,
  "universal_anisotropy": null,
  "homogeneous_poisson": null,
  "e_total": null,
  "e_ionic": null,
  "e_electronic": null,
  "n": null,
  "e_ij_max": null,
  "weighted_surface_energy_EV_PER_ANG2": null,
  "weighted_surface_energy": null,
  "weighted_work_function": null,
  "surface_anisotropy": null,
  "shape_factor": null,
  "has_reconstructed": null,
  "possible_species": null,
  "has_props": null,
  "theoretical": null,
  "database_IDs": null,
  "fields_not_requested": [
    "builder_meta",
    "nsites",
    "elements",
    "nelements",
    "composition",
    "composition_reduced",
    "chemsys",
    "symmetry",
    "property_name",
    "deprecated",
    "deprecation_reasons",
    "last_updated",
    "origins",
    "warnings",
    "task_ids",
    "uncorrected_energy_per_atom",
    "equilibrium_reaction_energy_per_atom",
    "decomposes_to",
    "xas",
    "grain_boundaries",
    "cbm",
    "vbm",
    "is_gap_direct",
    "is_metal",
    "es_source_calc_id",
    "bandstructure",
    "dos",
    "dos_energy_up",
    "dos_energy_down",
    "is_magnetic",
    "ordering",
    "total_magnetization_normalized_vol",
    "total_magnetization_normalized_formula_units",
    "num_magnetic_sites",
    "num_unique_magnetic_sites",
    "types_of_magnetic_species",
    "bulk_modulus",
    "shear_modulus",
    "universal_anisotropy",
    "homogeneous_poisson",
    "e_total",
    "e_ionic",
    "e_electronic",
    "n",
    "e_ij_max",
    "weighted_surface_energy_EV_PER_ANG2",
    "weighted_surface_energy",
    "weighted_work_function",
    "surface_anisotropy",
    "shape_factor",
    "has_reconstructed",
    "possible_species",
    "has_props",
    "theoretical",
    "database_IDs"
  ]
}
