{
  "builder_meta": null,
  "nsites": null,
  "elements": null,
  "nelements": null,
  "composition": null,
  "composition_reduced": null,
  "formula_pretty": "W3I8",
  "formula_anonymous": "A3B8",
  "chemsys": null,
  "volume": 3715.7895632438763,
  "density": 5.601305677879843,
  "density_atomic": 42.224881400498596,
  "symmetry": null,
  "property_name": null,
  "material_id": "mp-1196387",
  "deprecated": null,
  "deprecation_reasons": null,
  "last_updated": null,
  "origins": null,
  "warnings": null,
  "structure": {
    "@module": "pymatgen.core.structure",
    "@class": "Structure",
    "charge": 0,
    "lattice": {
      "matrix": [
        [14.462604, 0.0, 0.0],
        [0.0, 15.888361, 0.0],
        [0.0, 4.200626, 16.170577]
      ],
      "pbc": [true, true, true],
      "a": 14.462604,
      "b": 15.888361,
      "c": 16.70726845731537,
      "alpha": 75.4381439851349,
      "beta": 90.0,
      "gamma": 90.0,
      "volume": 3715.7895632438763
    },
    "properties": {},
    "sites": [
      {
        "species": [{ "element": "W", "occu": 1 }],
        "abc": [0.776316, 0.633483, 0.095733],
        "properties": { "magmom": 0.0 },
        "label": "W",
        "xyz": [11.227550886864, 10.467145120221, 1.548057847941]
      },
      {
        "species": [{ "element": "W", "occu": 1 }],
        "abc": [0.276316, 0.366517, 0.404267],
        "properties": { "magmom": 0.0 },
        "label": "W",
        "xyz": [3.9962488868640005, 7.521528879779, 6.537230652059001]
      },
      {
        "species": [{ "element": "W", "occu": 1 }],
        "abc": [0.223684, 0.366517, 0.904266999999999],
        "properties": { "magmom": 0.0 },
        "label": "W",
        "xyz": [3.235053113136, 9.621841879778996, 14.622519152058986]
      },
      {
        "species": [{ "element": "W", "occu": 1 }],
        "abc": [0.723684, 0.633483, 0.595733],
        "properties": { "magmom": 0.0 },
        "label": "W",
        "xyz": [10.466355113136, 12.567458120221, 9.633346347941]
      },
      {
        "species": [{ "element": "W", "occu": 1 }],
        "abc": [0.643125, 0.539644999999999, 0.156034],
        "properties": { "magmom": -0.0 },
        "label": "W",
        "xyz": [9.3012621975, 9.229515049128985, 2.5231598116180005]
      },
      {
        "species": [{ "element": "W", "occu": 1 }],
        "abc": [0.143125, 0.460354999999999, 0.343966],
        "properties": { "magmom": -0.0 },
        "label": "W",
        "xyz": [2.0699601975, 8.759158950870985, 5.562128688382001]
      },
      {
        "species": [{ "element": "W", "occu": 1 }],
        "abc": [0.356875, 0.460354999999999, 0.843966],
        "properties": { "magmom": -0.0 },
        "label": "W",
        "xyz": [5.1613418025, 10.859471950870985, 13.647417188382]
      },
      {
        "species": [{ "element": "W", "occu": 1 }],
        "abc": [0.856874999999999, 0.539644999999999, 0.656034],
        "properties": { "magmom": -0.0 },
        "label": "W",
        "xyz": [12.392643802499986, 11.329828049128984, 10.608448311618002]
      },
      {
        "species": [{ "element": "W", "occu": 1 }],
        "abc": [0.624142, 0.698681, 0.118861],
        "properties": { "magmom": -0.0 },
        "label": "W",
        "xyz": [9.026718585768, 11.600186558827, 1.922050952797]
      },
      {
        "species": [{ "element": "W", "occu": 1 }],
        "abc": [0.124141999999999, 0.301319, 0.381139],
        "properties": { "magmom": -0.0 },
        "label": "W",
        "xyz": [1.7954165857679856, 6.388487441173, 6.163237547203001]
      },
      {
        "species": [{ "element": "W", "occu": 1 }],
        "abc": [0.375857999999999, 0.301319, 0.881139],
        "properties": { "magmom": -0.0 },
        "label": "W",
        "xyz": [5.435885414231986, 8.488800441173, 14.248526047203]
      },
      {
        "species": [{ "element": "W", "occu": 1 }],
        "abc": [0.875857999999999, 0.698681, 0.618861],
        "properties": { "magmom": -0.0 },
        "label": "W",
        "xyz": [12.667187414231986, 13.700499558827, 10.007339452797002]
      },
      {
        "species": [{ "element": "W", "occu": 1 }],
        "abc": [0.664964999999999, 0.207444, 0.284651],
        "properties": { "magmom": -0.0 },
        "label": "W",
        "xyz": [9.617125468859987, 4.49165755081, 4.602970913627]
      },
      {
        "species": [{ "element": "W", "occu": 1 }],
        "abc": [0.164965, 0.792555999999999, 0.215348999999999],
        "properties": { "magmom": -0.0 },
        "label": "W",
        "xyz": [2.38582346886, 13.49701644918998, 3.4823175863729845]
      },
      {
        "species": [{ "element": "W", "occu": 1 }],
        "abc": [0.33503499999999903, 0.792555999999999, 0.715349],
        "properties": { "magmom": -0.0 },
        "label": "W",
        "xyz": [4.845478531139986, 15.597329449189985, 11.567606086373]
      },
      {
        "species": [{ "element": "W", "occu": 1 }],
        "abc": [0.835035, 0.207444, 0.784651],
        "properties": { "magmom": -0.0 },
        "label": "W",
        "xyz": [12.07678053114, 6.59197055081, 12.688259413627001]
      },
      {
        "species": [{ "element": "W", "occu": 1 }],
        "abc": [0.670292, 0.04589000000000001, 0.328173999999999],
        "properties": { "magmom": -0.0 },
        "label": "W",
        "xyz": [9.694167760368, 2.107653123213996, 5.306762936397985]
      },
      {
        "species": [{ "element": "W", "occu": 1 }],
        "abc": [0.170292, 0.9541100000000001, 0.171825999999999],
        "properties": { "magmom": -0.0 },
        "label": "W",
        "xyz": [2.462865760368, 15.881020876785998, 2.7785255636019843]
      },
      {
        "species": [{ "element": "W", "occu": 1 }],
        "abc": [0.329708, 0.9541100000000001, 0.671825999999999],
        "properties": { "magmom": -0.0 },
        "label": "W",
        "xyz": [4.768436239632, 17.981333876786, 10.863814063601986]
      },
      {
        "species": [{ "element": "W", "occu": 1 }],
        "abc": [0.829708, 0.04589000000000001, 0.828174],
        "properties": { "magmom": -0.0 },
        "label": "W",
        "xyz": [11.999738239632, 4.207966123214, 13.392051436398]
      },
      {
        "species": [{ "element": "W", "occu": 1 }],
        "abc": [0.808211, 0.135374, 0.34225099999999903],
        "properties": { "magmom": -0.0 },
        "label": "W",
        "xyz": [11.688835641444001, 3.5885394311399956, 5.534396148826985]
      },
      {
        "species": [{ "element": "W", "occu": 1 }],
        "abc": [0.308211, 0.864626, 0.157749],
        "properties": { "magmom": -0.0 },
        "label": "W",
        "xyz": [4.457533641444001, 14.40013456886, 2.550892351173]
      },
      {
        "species": [{ "element": "W", "occu": 1 }],
        "abc": [0.191789, 0.864626, 0.657748999999999],
        "properties": { "magmom": -0.0 },
        "label": "W",
        "xyz": [2.773768358556, 16.500447568859997, 10.636180851172986]
      },
      {
        "species": [{ "element": "W", "occu": 1 }],
        "abc": [0.691789, 0.135374, 0.842251],
        "properties": { "magmom": -0.0 },
        "label": "W",
        "xyz": [10.005070358556, 5.688852431139999, 13.619684648827]
      },
      {
        "species": [{ "element": "I", "occu": 1 }],
        "abc": [0.8068500000000001, 0.509325, 0.245638],
        "properties": { "magmom": -0.0 },
        "label": "I",
        "xyz": [11.669152037400002, 9.124172835713, 3.9721081931260005]
      },
      {
        "species": [{ "element": "I", "occu": 1 }],
        "abc": [0.30685, 0.490675, 0.254362],
        "properties": { "magmom": -0.0 },
        "label": "I",
        "xyz": [4.4378500374000005, 8.864501164286999, 4.113180306874]
      },
      {
        "species": [{ "element": "I", "occu": 1 }],
        "abc": [0.19315000000000002, 0.490675, 0.754362],
        "properties": { "magmom": -0.0 },
        "label": "I",
        "xyz": [2.7934519626000003, 10.964814164286999, 12.198468806874]
      },
      {
        "species": [{ "element": "I", "occu": 1 }],
        "abc": [0.69315, 0.509325, 0.745637999999999],
        "properties": { "magmom": -0.0 },
        "label": "I",
        "xyz": [10.024753962600002, 11.224485835712997, 12.057396693125986]
      },
      {
        "species": [{ "element": "I", "occu": 1 }],
        "abc": [0.573122, 0.6114900000000001, 0.279479],
        "properties": { "magmom": -0.0 },
        "label": "I",
        "xyz": [8.288836529688, 10.889560621744, 4.5193366893830005]
      },
      {
        "species": [{ "element": "I", "occu": 1 }],
        "abc": [0.07312199999999901, 0.38851, 0.220521],
        "properties": { "magmom": -0.0 },
        "label": "I",
        "xyz": [1.0575345296879857, 7.099113378256, 3.5659518106170003]
      },
      {
        "species": [{ "element": "I", "occu": 1 }],
        "abc": [0.426878, 0.38851, 0.720521],
        "properties": { "magmom": -0.0 },
        "label": "I",
        "xyz": [6.173767470312, 9.199426378256, 11.651240310617]
      },
      {
        "species": [{ "element": "I", "occu": 1 }],
        "abc": [0.926878, 0.6114900000000001, 0.779478999999999],
        "properties": { "magmom": -0.0 },
        "label": "I",
        "xyz": [13.405069470312, 12.989873621743996, 12.604625189382986]
      },
      {
        "species": [{ "element": "I", "occu": 1 }],
        "abc": [0.779689, 0.761081, 0.184566999999999],
        "properties": { "magmom": -0.0 },
        "label": "I",
        "xyz": [11.276333250156, 12.867626617182996, 2.9845548851589845]
      },
      {
        "species": [{ "element": "I", "occu": 1 }],
        "abc": [0.279688999999999, 0.238919, 0.315432999999999],
        "properties": { "magmom": -0.0 },
        "label": "I",
        "xyz": [4.045031250155986, 5.121047382816995, 5.100733614840984]
      },
      {
        "species": [{ "element": "I", "occu": 1 }],
        "abc": [0.220310999999999, 0.238919, 0.815433],
        "properties": { "magmom": -0.0 },
        "label": "I",
        "xyz": [3.186270749843986, 7.221360382816999, 13.186022114841]
      },
      {
        "species": [{ "element": "I", "occu": 1 }],
        "abc": [0.720310999999999, 0.761081, 0.684566999999999],
        "properties": { "magmom": -0.0 },
        "label": "I",
        "xyz": [10.417572749843986, 14.967939617182996, 11.069843385158986]
      },
      {
        "species": [{ "element": "I", "occu": 1 }],
        "abc": [0.7293900000000001, 0.501193, 0.019396999999999002],
        "properties": { "magmom": -0.0 },
        "label": "I",
        "xyz": [10.548878731560002, 8.044614857194995, 0.3136606820689839]
      },
      {
        "species": [{ "element": "I", "occu": 1 }],
        "abc": [0.22939, 0.498807, 0.480603],
        "properties": { "magmom": -0.0 },
        "label": "I",
        "xyz": [3.3175767315600004, 9.944059142805, 7.771627817931001]
      },
      {
        "species": [{ "element": "I", "occu": 1 }],
        "abc": [0.27061, 0.498807, 0.980603],
        "properties": { "magmom": -0.0 },
        "label": "I",
        "xyz": [3.9137252684400003, 12.044372142804999, 15.856916317931002]
      },
      {
        "species": [{ "element": "I", "occu": 1 }],
        "abc": [0.77061, 0.501193, 0.519397],
        "properties": { "magmom": -0.0 },
        "label": "I",
        "xyz": [11.145027268440002, 10.144927857195, 8.398949182069]
      },
      {
        "species": [{ "element": "I", "occu": 1 }],
        "abc": [0.493168, 0.605847, 0.054035],
        "properties": { "magmom": -0.0 },
        "label": "I",
        "xyz": [7.132493489472, 9.852896672677, 0.8737771281950001]
      },
      {
        "species": [{ "element": "I", "occu": 1 }],
        "abc": [0.993167999999999, 0.394153, 0.445965],
        "properties": { "magmom": -0.0 },
        "label": "I",
        "xyz": [14.363795489471986, 8.135777327323, 7.211511371805001]
      },
      {
        "species": [{ "element": "I", "occu": 1 }],
        "abc": [0.506832, 0.394153, 0.945965],
        "properties": { "magmom": -0.0 },
        "label": "I",
        "xyz": [7.330110510528, 10.236090327322998, 15.296799871805]
      },
      {
        "species": [{ "element": "I", "occu": 1 }],
        "abc": [0.006831999999999, 0.605847, 0.5540349999999991],
        "properties": { "magmom": -0.0 },
        "label": "I",
        "xyz": [0.09880851052798555, 11.953209672676996, 8.959065628194985]
      },
      {
        "species": [{ "element": "I", "occu": 1 }],
        "abc": [0.700458999999999, 0.753846, 0.961019],
        "properties": { "magmom": -0.0 },
        "label": "I",
        "xyz": [10.130461135235986, 16.014258784299997, 15.540231737963001]
      },
      {
        "species": [{ "element": "I", "occu": 1 }],
        "abc": [0.200459, 0.246153999999999, 0.538980999999999],
        "properties": { "magmom": -0.0 },
        "label": "I",
        "xyz": [2.899159135236, 6.175041215699981, 8.715633762036985]
      },
      {
        "species": [{ "element": "I", "occu": 1 }],
        "abc": [0.299541, 0.246153999999999, 0.038980999999999],
        "properties": { "magmom": -0.0 },
        "label": "I",
        "xyz": [4.332142864764, 4.07472821569998, 0.6303452620369839]
      },
      {
        "species": [{ "element": "I", "occu": 1 }],
        "abc": [0.799541, 0.753846, 0.461018999999999],
        "properties": { "magmom": -0.0 },
        "label": "I",
        "xyz": [11.563444864764, 13.913945784299996, 7.4549432379629845]
      },
      {
        "species": [{ "element": "I", "occu": 1 }],
        "abc": [0.958399, 0.642859, 0.041054],
        "properties": { "magmom": -0.0 },
        "label": "I",
        "xyz": [13.860945210996, 10.386428363903, 0.6638668681580001]
      },
      {
        "species": [{ "element": "I", "occu": 1 }],
        "abc": [0.458399, 0.357141, 0.458945999999999],
        "properties": { "magmom": -0.0 },
        "label": "I",
        "xyz": [6.629643210996, 7.602245636096995, 7.421421631841985]
      },
      {
        "species": [{ "element": "I", "occu": 1 }],
        "abc": [0.041601, 0.357141, 0.958946],
        "properties": { "magmom": -0.0 },
        "label": "I",
        "xyz": [0.601658789004, 9.702558636096999, 15.506710131842]
      },
      {
        "species": [{ "element": "I", "occu": 1 }],
        "abc": [0.541601, 0.642859, 0.541053999999999],
        "properties": { "magmom": -0.0 },
        "label": "I",
        "xyz": [7.832960789004001, 12.486741363902995, 8.749155368157986]
      },
      {
        "species": [{ "element": "I", "occu": 1 }],
        "abc": [0.558848, 0.366683, 0.212858],
        "properties": { "magmom": -0.0 },
        "label": "I",
        "xyz": [8.082397320192001, 6.720128725671, 3.442036679066]
      },
      {
        "species": [{ "element": "I", "occu": 1 }],
        "abc": [0.058848, 0.633317, 0.287142],
        "properties": { "magmom": -0.0 },
        "label": "I",
        "xyz": [0.851095320192, 11.268545274329, 4.643251820934001]
      },
      {
        "species": [{ "element": "I", "occu": 1 }],
        "abc": [0.441152, 0.633317, 0.787142],
        "properties": { "magmom": -0.0 },
        "label": "I",
        "xyz": [6.380206679808, 13.368858274329, 12.728540320934002]
      },
      {
        "species": [{ "element": "I", "occu": 1 }],
        "abc": [0.941152, 0.366683, 0.712858],
        "properties": { "magmom": -0.0 },
        "label": "I",
        "xyz": [13.611508679808, 8.820441725671, 11.527325179066]
      },
      {
        "species": [{ "element": "I", "occu": 1 }],
        "abc": [0.503077, 0.8557400000000001, 0.101491],
        "properties": { "magmom": -0.0 },
        "label": "I",
        "xyz": [7.275803432508, 14.022631775506, 1.6411680303070002]
      },
      {
        "species": [{ "element": "I", "occu": 1 }],
        "abc": [0.003077, 0.14426, 0.398509],
        "properties": { "magmom": -0.0 },
        "label": "I",
        "xyz": [0.044501432508000004, 3.966042224494, 6.444120469693001]
      },
      {
        "species": [{ "element": "I", "occu": 1 }],
        "abc": [0.496923, 0.14426, 0.898509],
        "properties": { "magmom": -0.0 },
        "label": "I",
        "xyz": [7.186800567492001, 6.066355224494, 14.529408969693002]
      },
      {
        "species": [{ "element": "I", "occu": 1 }],
        "abc": [0.996923, 0.8557400000000001, 0.601491],
        "properties": { "magmom": -0.0 },
        "label": "I",
        "xyz": [14.418102567492001, 16.122944775506, 9.726456530307]
      },
      {
        "species": [{ "element": "I", "occu": 1 }],
        "abc": [0.526928, 0.125738, 0.393899],
        "properties": { "magmom": -0.0 },
        "label": "I",
        "xyz": [7.620751000512, 3.652393116192, 6.3695741097230005]
      },
      {
        "species": [{ "element": "I", "occu": 1 }],
        "abc": [0.026927999999999, 0.874262, 0.106101],
        "properties": { "magmom": -0.0 },
        "label": "I",
        "xyz": [0.38944900051198555, 14.336280883808, 1.7157143902770002]
      },
      {
        "species": [{ "element": "I", "occu": 1 }],
        "abc": [0.473072, 0.874262, 0.606101],
        "properties": { "magmom": -0.0 },
        "label": "I",
        "xyz": [6.841852999488, 16.436593883808, 9.801002890277001]
      },
      {
        "species": [{ "element": "I", "occu": 1 }],
        "abc": [0.973071999999999, 0.125738, 0.893899],
        "properties": { "magmom": -0.0 },
        "label": "I",
        "xyz": [14.073154999487986, 5.752706116192, 14.454862609723001]
      },
      {
        "species": [{ "element": "I", "occu": 1 }],
        "abc": [0.754645999999999, 0.009515, 0.483492],
        "properties": { "magmom": -0.0 },
        "label": "I",
        "xyz": [10.914146258183987, 2.1821468209069996, 7.818344614884]
      },
      {
        "species": [{ "element": "I", "occu": 1 }],
        "abc": [0.254646, 0.990485, 0.016508],
        "properties": { "magmom": -0.0 },
        "label": "I",
        "xyz": [3.6828442581839997, 15.806527179092999, 0.266943885116]
      },
      {
        "species": [{ "element": "I", "occu": 1 }],
        "abc": [0.245354, 0.990485, 0.516508],
        "properties": { "magmom": -0.0 },
        "label": "I",
        "xyz": [3.548457741816, 17.906840179093, 8.352232385116]
      },
      {
        "species": [{ "element": "I", "occu": 1 }],
        "abc": [0.745354, 0.009515, 0.983491999999999],
        "properties": { "magmom": -0.0 },
        "label": "I",
        "xyz": [10.779759741816, 4.282459820906996, 15.903633114883986]
      },
      {
        "species": [{ "element": "I", "occu": 1 }],
        "abc": [0.740857, 0.261969, 0.416541],
        "properties": { "magmom": -0.0 },
        "label": "I",
        "xyz": [10.714721411628, 5.911990997475, 6.735708314157001]
      },
      {
        "species": [{ "element": "I", "occu": 1 }],
        "abc": [0.240857, 0.738031, 0.083458999999999],
        "properties": { "magmom": -0.0 },
        "label": "I",
        "xyz": [3.483419411628, 12.076683002524994, 1.3495801858429841]
      },
      {
        "species": [{ "element": "I", "occu": 1 }],
        "abc": [0.259143, 0.738031, 0.583459],
        "properties": { "magmom": -0.0 },
        "label": "I",
        "xyz": [3.747882588372, 14.176996002524998, 9.434868685843]
      },
      {
        "species": [{ "element": "I", "occu": 1 }],
        "abc": [0.759143, 0.261969, 0.916540999999999],
        "properties": { "magmom": -0.0 },
        "label": "I",
        "xyz": [10.979184588372, 8.012303997474996, 14.820996814156986]
      },
      {
        "species": [{ "element": "I", "occu": 1 }],
        "abc": [0.604789, 0.121916, 0.167583999999999],
        "properties": { "magmom": -0.0 },
        "label": "I",
        "xyz": [8.746823810556, 2.641003127259996, 2.7099299759679845]
      },
      {
        "species": [{ "element": "I", "occu": 1 }],
        "abc": [0.104789, 0.878084, 0.332416],
        "properties": { "magmom": -0.0 },
        "label": "I",
        "xyz": [1.515521810556, 15.34767087274, 5.375358524032]
      },
      {
        "species": [{ "element": "I", "occu": 1 }],
        "abc": [0.395211, 0.878084, 0.832415999999999],
        "properties": { "magmom": -0.0 },
        "label": "I",
        "xyz": [5.715780189444, 17.447983872739997, 13.460647024031985]
      },
      {
        "species": [{ "element": "I", "occu": 1 }],
        "abc": [0.895211, 0.121916, 0.667584],
        "properties": { "magmom": -0.0 },
        "label": "I",
        "xyz": [12.947082189444, 4.741316127259999, 10.795218475968]
      },
      {
        "species": [{ "element": "I", "occu": 1 }],
        "abc": [0.8371500000000001, 0.005458999999999, 0.260305],
        "properties": { "magmom": -0.0 },
        "label": "I",
        "xyz": [12.107368938600002, 1.1801785136289842, 4.209282045985001]
      },
      {
        "species": [{ "element": "I", "occu": 1 }],
        "abc": [0.33715, 0.994541, 0.239695],
        "properties": { "magmom": -0.0 },
        "label": "I",
        "xyz": [4.8760669386, 16.808495486371, 3.876006454015]
      },
      {
        "species": [{ "element": "I", "occu": 1 }],
        "abc": [0.16285000000000002, 0.994541, 0.739695],
        "properties": { "magmom": -0.0 },
        "label": "I",
        "xyz": [2.3552350614000006, 18.908808486371, 11.961294954015]
      },
      {
        "species": [{ "element": "I", "occu": 1 }],
        "abc": [0.66285, 0.005458999999999, 0.760305],
        "properties": { "magmom": -0.0 },
        "label": "I",
        "xyz": [9.586537061400001, 3.280491513628984, 12.294570545985001]
      },
      {
        "species": [{ "element": "I", "occu": 1 }],
        "abc": [0.825001, 0.256194, 0.190239],
        "properties": { "magmom": -0.0 },
        "label": "I",
        "xyz": [11.931662762604, 4.869625647647999, 3.076274397903]
      },
      {
        "species": [{ "element": "I", "occu": 1 }],
        "abc": [0.325001, 0.743806, 0.309761],
        "properties": { "magmom": -0.0 },
        "label": "I",
        "xyz": [4.700360762604, 13.119048352352, 5.009014102097001]
      },
      {
        "species": [{ "element": "I", "occu": 1 }],
        "abc": [0.174999, 0.743806, 0.809761],
        "properties": { "magmom": -0.0 },
        "label": "I",
        "xyz": [2.530941237396, 15.219361352351997, 13.094302602097]
      },
      {
        "species": [{ "element": "I", "occu": 1 }],
        "abc": [0.674999, 0.256194, 0.690238999999999],
        "properties": { "magmom": -0.0 },
        "label": "I",
        "xyz": [9.762243237396001, 6.969938647647995, 11.161562897902986]
      },
      {
        "species": [{ "element": "I", "occu": 1 }],
        "abc": [0.583813, 0.885362, 0.345487],
        "properties": { "magmom": -0.0 },
        "label": "I",
        "xyz": [8.443456229052002, 15.518212746544, 5.586724135999001]
      },
      {
        "species": [{ "element": "I", "occu": 1 }],
        "abc": [0.083813, 0.114637999999999, 0.154512999999999],
        "properties": { "magmom": -0.0 },
        "label": "I",
        "xyz": [1.212154229052, 2.47046125345598, 2.4985643640009845]
      },
      {
        "species": [{ "element": "I", "occu": 1 }],
        "abc": [0.416187, 0.114637999999999, 0.654513],
        "properties": { "magmom": -0.0 },
        "label": "I",
        "xyz": [6.019147770948, 4.570774253455984, 10.583852864001]
      },
      {
        "species": [{ "element": "I", "occu": 1 }],
        "abc": [0.916187, 0.885362, 0.845487],
        "properties": { "magmom": -0.0 },
        "label": "I",
        "xyz": [13.250449770948, 17.618525746544, 13.672012635999002]
      }
    ]
  },
  "task_ids": null,
  "uncorrected_energy_per_atom": null,
  "energy_per_atom": -5.035520324204546,
  "formation_energy_per_atom": -0.393111996022726,
  "energy_above_hull": 0.052963840946969,
  "is_stable": false,
  "equilibrium_reaction_energy_per_atom": null,
  "decomposes_to": null,
  "xas": null,
  "grain_boundaries": null,
  "band_gap": 1.064,
  "cbm": null,
  "vbm": null,
  "efermi": 2.40422448,
  "is_gap_direct": null,
  "is_metal": null,
  "es_source_calc_id": null,
  "bandstructure": null,
  "dos": null,
  "dos_energy_up": null,
  "dos_energy_down": null,
  "is_magnetic": null,
  "ordering": null,
  "total_magnetization": 0.022604299999999,
  "total_magnetization_normalized_vol": null,
  "total_magnetization_normalized_formula_units": null,
  "num_magnetic_sites": null,
  "num_unique_magnetic_sites": null,
  "types_of_magnetic_species": null,
  "bulk_modulus": null,
  "shear_modulus": null,
  "universal_anisotropy": null,
  "homogeneous_poisson": null,
  "e_total": null,
  "e_ionic": null,
  "e_electronic": null,
  "n": null,
  "e_ij_max": null,
  "weighted_surface_energy_EV_PER_ANG2": null,
  "weighted_surface_energy": null,
  "weighted_work_function": null,
  "surface_anisotropy": null,
  "shape_factor": null,
  "has_reconstructed": null,
  "possible_species": null,
  "has_props": null,
  "theoretical": null,
  "database_IDs": null,
  "fields_not_requested": [
    "builder_meta",
    "nsites",
    "elements",
    "nelements",
    "composition",
    "composition_reduced",
    "chemsys",
    "symmetry",
    "property_name",
    "deprecated",
    "deprecation_reasons",
    "last_updated",
    "origins",
    "warnings",
    "task_ids",
    "uncorrected_energy_per_atom",
    "equilibrium_reaction_energy_per_atom",
    "decomposes_to",
    "xas",
    "grain_boundaries",
    "cbm",
    "vbm",
    "is_gap_direct",
    "is_metal",
    "es_source_calc_id",
    "bandstructure",
    "dos",
    "dos_energy_up",
    "dos_energy_down",
    "is_magnetic",
    "ordering",
    "total_magnetization_normalized_vol",
    "total_magnetization_normalized_formula_units",
    "num_magnetic_sites",
    "num_unique_magnetic_sites",
    "types_of_magnetic_species",
    "bulk_modulus",
    "shear_modulus",
    "universal_anisotropy",
    "homogeneous_poisson",
    "e_total",
    "e_ionic",
    "e_electronic",
    "n",
    "e_ij_max",
    "weighted_surface_energy_EV_PER_ANG2",
    "weighted_surface_energy",
    "weighted_work_function",
    "surface_anisotropy",
    "shape_factor",
    "has_reconstructed",
    "possible_species",
    "has_props",
    "theoretical",
    "database_IDs"
  ]
}
