{"builder_meta": null, "nsites": null, "elements": null, "nelements": null, "composition": null, "composition_reduced": null, "formula_pretty": "W3O7", "formula_anonymous": "A3B7", "chemsys": null, "volume": 285.68852959887465, "density": 7.713252672435556, "density_atomic": 14.284426479943733, "symmetry": null, "property_name": null, "material_id": "mp-1044534", "deprecated": null, "deprecation_reasons": null, "last_updated": null, "origins": null, "warnings": null, "structure": {"@module": "pymatgen.core.structure", "@class": "Structure", "charge": 0, "lattice": {"matrix": [[3.85797, 0.0, 0.0], [0.0, 6.360577, 0.0], [0.0, 0.0, 11.642264]], "pbc": [true, true, true], "a": 3.85797, "b": 6.360577, "c": 11.642264, "alpha": 90.0, "beta": 90.0, "gamma": 90.0, "volume": 285.68852959887465}, "properties": {}, "sites": [{"species": [{"element": "W", "occu": 1}], "abc": [0.50954, 0.0, 0.772758], "properties": {"magmom": 1.451}, "label": "W", "xyz": [1.9657900337999998, 0.0, 8.996652644112]}, {"species": [{"element": "W", "occu": 1}], "abc": [0.49046000000000006, 0.5, 0.7272419999999991], "properties": {"magmom": 1.451}, "label": "W", "xyz": [1.8921799662000003, 3.1802885, 8.46674335588799]}, {"species": [{"element": "W", "occu": 1}], "abc": [0.49046000000000006, 0.5, 0.272758], "properties": {"magmom": 1.451}, "label": "W", "xyz": [1.8921799662000003, 3.1802885, 3.1755206441120003]}, {"species": [{"element": "W", "occu": 1}], "abc": [0.50954, 0.0, 0.227242], "properties": {"magmom": 1.451}, "label": "W", "xyz": [1.9657900337999998, 0.0, 2.645611355888]}, {"species": [{"element": "W", "occu": 1}], "abc": [0.486554999999999, 0.0, 0.5], "properties": {"magmom": 1.268}, "label": "W", "xyz": [1.8771145933499962, 0.0, 5.821132]}, {"species": [{"element": "W", "occu": 1}], "abc": [0.513444999999999, 0.5, 0.0], "properties": {"magmom": 1.268}, "label": "W", "xyz": [1.9808554066499962, 3.1802885, 0.0]}, {"species": [{"element": "O", "occu": 1}], "abc": [0.505973, 0.7080500000000001, 0.863622], "properties": {"magmom": 0.0}, "label": "O", "xyz": [1.9520286548099999, 4.50360654485, 10.054515320208]}, {"species": [{"element": "O", "occu": 1}], "abc": [0.494027, 0.20805, 0.636378], "properties": {"magmom": 0.0}, "label": "O", "xyz": [1.90594134519, 1.3233180448500002, 7.408880679792]}, {"species": [{"element": "O", "occu": 1}], "abc": [0.494027, 0.79195, 0.363622], "properties": {"magmom": 0.0}, "label": "O", "xyz": [1.90594134519, 5.03725895515, 4.2333833202080005]}, {"species": [{"element": "O", "occu": 1}], "abc": [0.505973, 0.29195000000000004, 0.136378], "properties": {"magmom": 0.0}, "label": "O", "xyz": [1.9520286548099999, 1.8569704551500004, 1.5877486797920002]}, {"species": [{"element": "O", "occu": 1}], "abc": [0.494027, 0.79195, 0.636378], "properties": {"magmom": 0.0}, "label": "O", "xyz": [1.90594134519, 5.03725895515, 7.408880679792]}, {"species": [{"element": "O", "occu": 1}], "abc": [0.505973, 0.29195000000000004, 0.863622], "properties": {"magmom": 0.0}, "label": "O", "xyz": [1.9520286548099999, 1.8569704551500004, 10.054515320208]}, {"species": [{"element": "O", "occu": 1}], "abc": [0.505973, 0.7080500000000001, 0.136378], "properties": {"magmom": 0.0}, "label": "O", "xyz": [1.9520286548099999, 4.50360654485, 1.5877486797920002]}, {"species": [{"element": "O", "occu": 1}], "abc": [0.494027, 0.20805, 0.363622], "properties": {"magmom": 0.0}, "label": "O", "xyz": [1.90594134519, 1.3233180448500002, 4.2333833202080005]}, {"species": [{"element": "O", "occu": 1}], "abc": [0.9900009999999991, 0.0, 0.5], "properties": {"magmom": -0.074}, "label": "O", "xyz": [3.8193941579699966, 0.0, 5.821132]}, {"species": [{"element": "O", "occu": 1}], "abc": [0.009999, 0.5, 0.0], "properties": {"magmom": -0.074}, "label": "O", "xyz": [0.038575842029999995, 3.1802885, 0.0]}, {"species": [{"element": "O", "occu": 1}], "abc": [0.006553, 0.0, 0.212369], "properties": {"magmom": -0.096}, "label": "O", "xyz": [0.025281277409999997, 0.0, 2.4724559634160004]}, {"species": [{"element": "O", "occu": 1}], "abc": [0.993447, 0.5, 0.287630999999999], "properties": {"magmom": -0.096}, "label": "O", "xyz": [3.83268872259, 3.1802885, 3.348676036583989]}, {"species": [{"element": "O", "occu": 1}], "abc": [0.993447, 0.5, 0.712368999999999], "properties": {"magmom": -0.096}, "label": "O", "xyz": [3.83268872259, 3.1802885, 8.29358796341599]}, {"species": [{"element": "O", "occu": 1}], "abc": [0.006553, 0.0, 0.787631], "properties": {"magmom": -0.096}, "label": "O", "xyz": [0.025281277409999997, 0.0, 9.169808036584]}]}, "task_ids": null, "uncorrected_energy_per_atom": null, "energy_per_atom": -9.3504905245, "formation_energy_per_atom": -1.9994787519999981, "energy_above_hull": 0.09886540562500001, "is_stable": false, "equilibrium_reaction_energy_per_atom": null, "decomposes_to": null, "xas": null, "grain_boundaries": null, "band_gap": 0.0, "cbm": null, "vbm": null, "efermi": 3.15657232, "is_gap_direct": null, "is_metal": null, "es_source_calc_id": null, "bandstructure": null, "dos": null, "dos_energy_up": null, "dos_energy_down": null, "is_magnetic": null, "ordering": null, "total_magnetization": 8.0000002, "total_magnetization_normalized_vol": null, "total_magnetization_normalized_formula_units": null, "num_magnetic_sites": null, "num_unique_magnetic_sites": null, "types_of_magnetic_species": null, "bulk_modulus": null, "shear_modulus": null, "universal_anisotropy": null, "homogeneous_poisson": null, "e_total": null, "e_ionic": null, "e_electronic": null, "n": null, "e_ij_max": null, "weighted_surface_energy_EV_PER_ANG2": null, "weighted_surface_energy": null, "weighted_work_function": null, "surface_anisotropy": null, "shape_factor": null, "has_reconstructed": null, "possible_species": null, "has_props": null, "theoretical": null, "database_IDs": null, "fields_not_requested": ["builder_meta", "nsites", "elements", "nelements", "composition", "composition_reduced", "chemsys", "symmetry", "property_name", "deprecated", "deprecation_reasons", "last_updated", "origins", "warnings", "task_ids", "uncorrected_energy_per_atom", "equilibrium_reaction_energy_per_atom", "decomposes_to", "xas", "grain_boundaries", "cbm", "vbm", "is_gap_direct", "is_metal", "es_source_calc_id", "bandstructure", "dos", "dos_energy_up", "dos_energy_down", "is_magnetic", "ordering", "total_magnetization_normalized_vol", "total_magnetization_normalized_formula_units", "num_magnetic_sites", "num_unique_magnetic_sites", "types_of_magnetic_species", "bulk_modulus", "shear_modulus", "universal_anisotropy", "homogeneous_poisson", "e_total", "e_ionic", "e_electronic", "n", "e_ij_max", "weighted_surface_energy_EV_PER_ANG2", "weighted_surface_energy", "weighted_work_function", "surface_anisotropy", "shape_factor", "has_reconstructed", "possible_species", "has_props", "theoretical", "database_IDs"]}