{"builder_meta": null, "nsites": null, "elements": null, "nelements": null, "composition": null, "composition_reduced": null, "formula_pretty": "W3O8", "formula_anonymous": "A3B8", "chemsys": null, "volume": 269.14489186205674, "density": 8.384788788983034, "density_atomic": 12.233858721002578, "symmetry": null, "property_name": null, "material_id": "mp-715557", "deprecated": null, "deprecation_reasons": null, "last_updated": null, "origins": null, "warnings": null, "structure": {"@module": "pymatgen.core.structure", "@class": "Structure", "charge": 0, "lattice": {"matrix": [[0.0, 5.565862, -2.864889], [-3.869401, -0.021195, 6.25947], [3.869401, -0.021195, 6.25947]], "pbc": [true, true, true], "a": 6.259904854338044, "b": 7.35891826342201, "c": 7.35891826342201, "alpha": 63.445726044392956, "beta": 113.06917808805457, "gamma": 113.06917808805457, "volume": 269.14489186205674}, "properties": {}, "sites": [{"species": [{"element": "W", "occu": 1}], "abc": [0.6810889999999991, 0.159629, 0.159629], "properties": {"magmom": 0.982}, "label": "W", "xyz": [0.0, 3.7840807104079954, 0.047141489139002735]}, {"species": [{"element": "W", "occu": 1}], "abc": [0.681964, 0.658701, 0.658701], "properties": {"magmom": 0.17400000000000002}, "label": "W", "xyz": [0.0, 3.767795177578, 6.2924871349439995]}, {"species": [{"element": "W", "occu": 1}], "abc": [0.31321000000000004, 0.342744, 0.342744], "properties": {"magmom": 0.9390000000000001}, "label": "W", "xyz": [0.0, 1.7287547188600003, 3.3934796876699997]}, {"species": [{"element": "W", "occu": 1}], "abc": [0.315488, 0.842932, 0.842932], "properties": {"magmom": 0.159}, "label": "W", "xyz": [0.0, 1.720230783176, 9.648777031248002]}, {"species": [{"element": "W", "occu": 1}], "abc": [0.9996900000000001, 0.9996259999999991, 0.9996259999999991], "properties": {"magmom": 1.033}, "label": "W", "xyz": [0.0, 5.52176243664, 9.65025703202999]}, {"species": [{"element": "W", "occu": 1}], "abc": [0.001201, 0.500127, 0.500127], "properties": {"magmom": 1.035}, "label": "W", "xyz": [0.0, -0.014515783267999998, 6.257619173690999]}, {"species": [{"element": "O", "occu": 1}], "abc": [0.965696, 0.831789, 0.831789], "properties": {"magmom": -0.01}, "label": "O", "xyz": [0.0, 5.339671134241999, 7.646504735916001]}, {"species": [{"element": "O", "occu": 1}], "abc": [0.969154, 0.333873, 0.333873], "properties": {"magmom": -0.009000000000000001}, "label": "O", "xyz": [0.0, 5.380024544278, 1.4032174207140007]}, {"species": [{"element": "O", "occu": 1}], "abc": [0.036419, 0.669308, 0.669308], "properties": {"magmom": -0.009000000000000001}, "label": "O", "xyz": [0.0, 0.17433116205800003, 8.274690301029]}, {"species": [{"element": "O", "occu": 1}], "abc": [0.037222, 0.169828999999999, 0.169828999999999], "properties": {"magmom": -0.02}, "label": "O", "xyz": [0.0, 0.19997346405400002, 2.0194421629019876]}, {"species": [{"element": "O", "occu": 1}], "abc": [0.660713, 0.481311, 0.481311], "properties": {"magmom": -0.016}, "label": "O", "xyz": [0.0, 3.657034606316, 4.132634124483]}, {"species": [{"element": "O", "occu": 1}], "abc": [0.660872, 0.981628, 0.981628], "properties": {"magmom": -0.013000000000000001}, "label": "O", "xyz": [0.0, 3.636711140744, 10.395617111112]}, {"species": [{"element": "O", "occu": 1}], "abc": [0.331783999999999, 0.014452999999999001, 0.014452999999999001], "properties": {"magmom": -0.007}, "label": "O", "xyz": [0.0, 1.8460512951379946, -0.7695880921560097]}, {"species": [{"element": "O", "occu": 1}], "abc": [0.336970999999999, 0.5181800000000001, 0.5181800000000001], "properties": {"magmom": -0.01}, "label": "O", "xyz": [0.0, 1.8535684338019947, 5.5216798179810045]}, {"species": [{"element": "O", "occu": 1}], "abc": [0.504715999999999, 0.247603, 0.247603], "properties": {"magmom": -0.042}, "label": "O", "xyz": [0.0, 2.798683714021995, 1.653771784296003]}, {"species": [{"element": "O", "occu": 1}], "abc": [0.501274, 0.7494200000000001, 0.7494200000000001], "properties": {"magmom": -0.011}, "label": "O", "xyz": [0.0, 2.758253994388, 7.945849646214002]}, {"species": [{"element": "O", "occu": 1}], "abc": [0.9992500000000001, 0.750529, 0.25029], "properties": {"magmom": -0.041}, "label": "O", "xyz": [-1.9356252868389998, 5.540475244795, 3.4018561726800005]}, {"species": [{"element": "O", "occu": 1}], "abc": [0.9992500000000001, 0.25029, 0.750529], "properties": {"magmom": -0.041}, "label": "O", "xyz": [1.9356252868389998, 5.540475244795, 3.4018561726800005]}, {"species": [{"element": "O", "occu": 1}], "abc": [0.311092, 0.087791, 0.600994], "properties": {"magmom": -0.019}, "label": "O", "xyz": [1.9857882014030002, 1.7168963432289999, 3.4201849951620003]}, {"species": [{"element": "O", "occu": 1}], "abc": [0.311092, 0.600994, 0.087791], "properties": {"magmom": -0.019}, "label": "O", "xyz": [-1.9857882014030002, 1.7168963432289999, 3.4201849951620007]}, {"species": [{"element": "O", "occu": 1}], "abc": [0.690928, 0.896748999999999, 0.412495], "properties": {"magmom": -0.022}, "label": "O", "xyz": [-1.8737729118539959, 3.8178604733559998, 6.215741513687995]}, {"species": [{"element": "O", "occu": 1}], "abc": [0.690928, 0.412495, 0.896748999999999], "properties": {"magmom": -0.022}, "label": "O", "xyz": [1.8737729118539959, 3.8178604733559998, 6.215741513687995]}]}, "task_ids": null, "uncorrected_energy_per_atom": null, "energy_per_atom": -9.272055306363637, "formation_energy_per_atom": -2.139502694545453, "energy_above_hull": 0.009304980681818, "is_stable": false, "equilibrium_reaction_energy_per_atom": null, "decomposes_to": null, "xas": null, "grain_boundaries": null, "band_gap": 0.0, "cbm": null, "vbm": null, "efermi": 4.08531173, "is_gap_direct": null, "is_metal": null, "es_source_calc_id": null, "bandstructure": null, "dos": null, "dos_energy_up": null, "dos_energy_down": null, "is_magnetic": null, "ordering": null, "total_magnetization": 4.0000094, "total_magnetization_normalized_vol": null, "total_magnetization_normalized_formula_units": null, "num_magnetic_sites": null, "num_unique_magnetic_sites": null, "types_of_magnetic_species": null, "bulk_modulus": null, "shear_modulus": null, "universal_anisotropy": null, "homogeneous_poisson": null, "e_total": null, "e_ionic": null, "e_electronic": null, "n": null, "e_ij_max": null, "weighted_surface_energy_EV_PER_ANG2": null, "weighted_surface_energy": null, "weighted_work_function": null, "surface_anisotropy": null, "shape_factor": null, "has_reconstructed": null, "possible_species": null, "has_props": null, "theoretical": null, "database_IDs": null, "fields_not_requested": ["builder_meta", "nsites", "elements", "nelements", "composition", "composition_reduced", "chemsys", "symmetry", "property_name", "deprecated", "deprecation_reasons", "last_updated", "origins", "warnings", "task_ids", "uncorrected_energy_per_atom", "equilibrium_reaction_energy_per_atom", "decomposes_to", "xas", "grain_boundaries", "cbm", "vbm", "is_gap_direct", "is_metal", "es_source_calc_id", "bandstructure", "dos", "dos_energy_up", "dos_energy_down", "is_magnetic", "ordering", "total_magnetization_normalized_vol", "total_magnetization_normalized_formula_units", "num_magnetic_sites", "num_unique_magnetic_sites", "types_of_magnetic_species", "bulk_modulus", "shear_modulus", "universal_anisotropy", "homogeneous_poisson", "e_total", "e_ionic", "e_electronic", "n", "e_ij_max", "weighted_surface_energy_EV_PER_ANG2", "weighted_surface_energy", "weighted_work_function", "surface_anisotropy", "shape_factor", "has_reconstructed", "possible_species", "has_props", "theoretical", "database_IDs"]}