{
  "builder_meta": null,
  "nsites": null,
  "elements": null,
  "nelements": null,
  "composition": null,
  "composition_reduced": null,
  "formula_pretty": "W5O7",
  "formula_anonymous": "A5B7",
  "chemsys": null,
  "volume": 358.94072015541,
  "density": 9.541079153529589,
  "density_atomic": 14.95586333980875,
  "symmetry": null,
  "property_name": null,
  "material_id": "mp-1345171",
  "deprecated": null,
  "deprecation_reasons": null,
  "last_updated": null,
  "origins": null,
  "warnings": null,
  "structure": {
    "@module": "pymatgen.core.structure",
    "@class": "Structure",
    "charge": 0,
    "lattice": {
      "matrix": [
        [1.6848480000000001, -5.6993469999999995, 0.0],
        [1.6848480000000001, 5.6993469999999995, 0.0],
        [0.0, 0.0, 18.689897]
      ],
      "pbc": [true, true, true],
      "a": 5.943169946208252,
      "b": 5.943169946208252,
      "c": 18.689897,
      "alpha": 90.0,
      "beta": 90.0,
      "gamma": 147.06240347701575,
      "volume": 358.94072015541
    },
    "properties": {},
    "sites": [
      {
        "species": [{ "element": "W", "occu": 1 }],
        "abc": [0.728518, 0.271482, 0.578114],
        "properties": { "magmom": -2.727999999999999 },
        "label": "W",
        "xyz": [1.6848480000000001, -2.6048067554919996, 10.804891114258]
      },
      {
        "species": [{ "element": "W", "occu": 1 }],
        "abc": [0.0, 0.0, 0.5],
        "properties": { "magmom": 2.669 },
        "label": "W",
        "xyz": [0.0, 0.0, 9.3449485]
      },
      {
        "species": [{ "element": "W", "occu": 1 }],
        "abc": [0.0, 0.0, 0.0],
        "properties": { "magmom": 2.67 },
        "label": "W",
        "xyz": [0.0, 0.0, 0.0]
      },
      {
        "species": [{ "element": "W", "occu": 1 }],
        "abc": [0.271482, 0.728518, 0.421886],
        "properties": { "magmom": -2.727999999999999 },
        "label": "W",
        "xyz": [1.6848480000000001, 2.6048067554919996, 7.885005885741999]
      },
      {
        "species": [{ "element": "W", "occu": 1 }],
        "abc": [0.271482, 0.728518, 0.078114],
        "properties": { "magmom": -2.727999999999999 },
        "label": "W",
        "xyz": [1.6848480000000001, 2.6048067554919996, 1.4599426142579999]
      },
      {
        "species": [{ "element": "W", "occu": 1 }],
        "abc": [0.728518, 0.271482, 0.921886],
        "properties": { "magmom": -2.727999999999999 },
        "label": "W",
        "xyz": [1.6848480000000001, -2.6048067554919996, 17.229954385741998]
      },
      {
        "species": [{ "element": "W", "occu": 1 }],
        "abc": [0.538821, 0.461179, 0.158121999999999],
        "properties": { "magmom": -2.64 },
        "label": "W",
        "xyz": [1.6848480000000001, -0.44250869977399976, 2.955283893433981]
      },
      {
        "species": [{ "element": "W", "occu": 1 }],
        "abc": [0.461179, 0.538821, 0.841878],
        "properties": { "magmom": -2.64 },
        "label": "W",
        "xyz": [1.6848480000000001, 0.44250869977399976, 15.734613106565998]
      },
      {
        "species": [{ "element": "W", "occu": 1 }],
        "abc": [0.461179, 0.538821, 0.658122],
        "properties": { "magmom": -2.64 },
        "label": "W",
        "xyz": [1.6848480000000001, 0.44250869977399976, 12.300232393434]
      },
      {
        "species": [{ "element": "W", "occu": 1 }],
        "abc": [0.538821, 0.461179, 0.341877999999999],
        "properties": { "magmom": -2.64 },
        "label": "W",
        "xyz": [1.6848480000000001, -0.44250869977399976, 6.389664606565981]
      },
      {
        "species": [{ "element": "O", "occu": 1 }],
        "abc": [0.341804999999999, 0.658195, 0.961441999999999],
        "properties": { "magmom": 0.003 },
        "label": "O",
        "xyz": [1.6848479999999983, 1.8032163973300055, 17.96925195147398]
      },
      {
        "species": [{ "element": "O", "occu": 1 }],
        "abc": [0.658195, 0.341804999999999, 0.038557999999999],
        "properties": { "magmom": 0.003 },
        "label": "O",
        "xyz": [1.6848479999999983, -1.8032163973300055, 0.7206450485259813]
      },
      {
        "species": [{ "element": "O", "occu": 1 }],
        "abc": [0.658195, 0.341804999999999, 0.461441999999999],
        "properties": { "magmom": 0.003 },
        "label": "O",
        "xyz": [1.6848479999999983, -1.8032163973300055, 8.624303451473981]
      },
      {
        "species": [{ "element": "O", "occu": 1 }],
        "abc": [0.341804999999999, 0.658195, 0.538558],
        "properties": { "magmom": 0.003 },
        "label": "O",
        "xyz": [1.6848479999999983, 1.8032163973300055, 10.065593548526]
      },
      {
        "species": [{ "element": "O", "occu": 1 }],
        "abc": [0.853266, 0.146734, 0.837753],
        "properties": { "magmom": -0.021 },
        "label": "O",
        "xyz": [1.6848480000000001, -4.026771034604, 15.657517281440999]
      },
      {
        "species": [{ "element": "O", "occu": 1 }],
        "abc": [0.146734, 0.853266, 0.162247],
        "properties": { "magmom": -0.021 },
        "label": "O",
        "xyz": [1.6848480000000001, 4.026771034604, 3.0323797185589996]
      },
      {
        "species": [{ "element": "O", "occu": 1 }],
        "abc": [0.146734, 0.853266, 0.337752999999999],
        "properties": { "magmom": -0.021 },
        "label": "O",
        "xyz": [1.6848480000000001, 4.026771034604, 6.312568781440981]
      },
      {
        "species": [{ "element": "O", "occu": 1 }],
        "abc": [0.853266, 0.146734, 0.662246999999999],
        "properties": { "magmom": -0.021 },
        "label": "O",
        "xyz": [1.6848480000000001, -4.026771034604, 12.377328218558981]
      },
      {
        "species": [{ "element": "O", "occu": 1 }],
        "abc": [0.103362, 0.896637999999999, 0.899287],
        "properties": { "magmom": -0.047 },
        "label": "O",
        "xyz": [1.6848479999999986, 4.521155190771994, 16.807581403439]
      },
      {
        "species": [{ "element": "O", "occu": 1 }],
        "abc": [0.896637999999999, 0.103362, 0.100713],
        "properties": { "magmom": -0.047 },
        "label": "O",
        "xyz": [1.6848479999999986, -4.521155190771994, 1.882315596561]
      },
      {
        "species": [{ "element": "O", "occu": 1 }],
        "abc": [0.896637999999999, 0.103362, 0.399287],
        "properties": { "magmom": -0.047 },
        "label": "O",
        "xyz": [1.6848479999999986, -4.521155190771994, 7.462632903438999]
      },
      {
        "species": [{ "element": "O", "occu": 1 }],
        "abc": [0.103362, 0.896637999999999, 0.600712999999999],
        "properties": { "magmom": -0.047 },
        "label": "O",
        "xyz": [1.6848479999999986, 4.521155190771994, 11.227264096560981]
      },
      {
        "species": [{ "element": "O", "occu": 1 }],
        "abc": [0.550963, 0.449036999999999, 0.75],
        "properties": { "magmom": -0.049 },
        "label": "O",
        "xyz": [1.6848479999999983, -0.5809116423220053, 14.017422749999998]
      },
      {
        "species": [{ "element": "O", "occu": 1 }],
        "abc": [0.449036999999999, 0.550963, 0.25],
        "properties": { "magmom": -0.049 },
        "label": "O",
        "xyz": [1.6848479999999983, 0.5809116423220053, 4.67247425]
      }
    ]
  },
  "task_ids": null,
  "uncorrected_energy_per_atom": null,
  "energy_per_atom": -9.21301989,
  "formation_energy_per_atom": -0.9274883745833321,
  "energy_above_hull": 0.8545948347916671,
  "is_stable": false,
  "equilibrium_reaction_energy_per_atom": null,
  "decomposes_to": null,
  "xas": null,
  "grain_boundaries": null,
  "band_gap": 0.0,
  "cbm": null,
  "vbm": null,
  "efermi": 4.85949704,
  "is_gap_direct": null,
  "is_metal": null,
  "es_source_calc_id": null,
  "bandstructure": null,
  "dos": null,
  "dos_energy_up": null,
  "dos_energy_down": null,
  "is_magnetic": null,
  "ordering": null,
  "total_magnetization": 17.4390861,
  "total_magnetization_normalized_vol": null,
  "total_magnetization_normalized_formula_units": null,
  "num_magnetic_sites": null,
  "num_unique_magnetic_sites": null,
  "types_of_magnetic_species": null,
  "bulk_modulus": null,
  "shear_modulus": null,
  "universal_anisotropy": null,
  "homogeneous_poisson": null,
  "e_total": null,
  "e_ionic": null,
  "e_electronic": null,
  "n": null,
  "e_ij_max": null,
  "weighted_surface_energy_EV_PER_ANG2": null,
  "weighted_surface_energy": null,
  "weighted_work_function": null,
  "surface_anisotropy": null,
  "shape_factor": null,
  "has_reconstructed": null,
  "possible_species": null,
  "has_props": null,
  "theoretical": null,
  "database_IDs": null,
  "fields_not_requested": [
    "builder_meta",
    "nsites",
    "elements",
    "nelements",
    "composition",
    "composition_reduced",
    "chemsys",
    "symmetry",
    "property_name",
    "deprecated",
    "deprecation_reasons",
    "last_updated",
    "origins",
    "warnings",
    "task_ids",
    "uncorrected_energy_per_atom",
    "equilibrium_reaction_energy_per_atom",
    "decomposes_to",
    "xas",
    "grain_boundaries",
    "cbm",
    "vbm",
    "is_gap_direct",
    "is_metal",
    "es_source_calc_id",
    "bandstructure",
    "dos",
    "dos_energy_up",
    "dos_energy_down",
    "is_magnetic",
    "ordering",
    "total_magnetization_normalized_vol",
    "total_magnetization_normalized_formula_units",
    "num_magnetic_sites",
    "num_unique_magnetic_sites",
    "types_of_magnetic_species",
    "bulk_modulus",
    "shear_modulus",
    "universal_anisotropy",
    "homogeneous_poisson",
    "e_total",
    "e_ionic",
    "e_electronic",
    "n",
    "e_ij_max",
    "weighted_surface_energy_EV_PER_ANG2",
    "weighted_surface_energy",
    "weighted_work_function",
    "surface_anisotropy",
    "shape_factor",
    "has_reconstructed",
    "possible_species",
    "has_props",
    "theoretical",
    "database_IDs"
  ]
}
