{
  "builder_meta": null,
  "nsites": null,
  "elements": null,
  "nelements": null,
  "composition": null,
  "composition_reduced": null,
  "formula_pretty": "WBr4",
  "formula_anonymous": "AB4",
  "chemsys": null,
  "volume": 290.20033814452086,
  "density": 5.761594639478567,
  "density_atomic": 29.020033814452084,
  "symmetry": null,
  "property_name": null,
  "material_id": "mp-1078239",
  "deprecated": null,
  "deprecation_reasons": null,
  "last_updated": null,
  "origins": null,
  "warnings": null,
  "structure": {
    "@module": "pymatgen.core.structure",
    "@class": "Structure",
    "charge": 0,
    "lattice": {
      "matrix": [
        [3.46331743, 6.31846511, 0.09419318],
        [-3.46331743, 6.31846511, 0.09419318],
        [-0.0, 5.59784487, 6.71422144]
      ],
      "pbc": [true, true, true],
      "a": 7.20600036930249,
      "b": 7.20600036930249,
      "c": 8.741660982555947,
      "alpha": 55.14282743247308,
      "beta": 55.14282743247308,
      "gamma": 57.45125354522485,
      "volume": 290.20033814452086
    },
    "properties": {},
    "sites": [
      {
        "species": [{ "element": "W", "occu": 1 }],
        "abc": [0.70693918, 0.29306082, -0.0],
        "properties": { "magmom": 0.748 },
        "label": "W",
        "xyz": [1.4333921380878147, 6.31846511, 0.09419318000000002]
      },
      {
        "species": [{ "element": "W", "occu": 1 }],
        "abc": [0.29306082, 0.70693918, -0.0],
        "properties": { "magmom": 0.748 },
        "label": "W",
        "xyz": [-1.4333921380878147, 6.31846511, 0.09419318000000002]
      },
      {
        "species": [{ "element": "Br", "occu": 1 }],
        "abc": [0.76591211, 0.28112189, 0.69916282],
        "properties": { "magmom": 0.026000000000000002 },
        "label": "Br",
        "xyz": [1.678982418819535, 10.529452803215474, 4.792957458122981]
      },
      {
        "species": [{ "element": "Br", "occu": 1 }],
        "abc": [0.71887811, 0.23408789, 0.30083718],
        "properties": { "magmom": 0.026000000000000002 },
        "label": "Br",
        "xyz": [1.6789824188195348, 7.7053222867845275, 2.109650341877019]
      },
      {
        "species": [{ "element": "Br", "occu": 1 }],
        "abc": [0.23408789, 0.71887811, 0.30083718],
        "properties": { "magmom": 0.026000000000000002 },
        "label": "Br",
        "xyz": [-1.6789824188195348, 7.7053222867845275, 2.109650341877019]
      },
      {
        "species": [{ "element": "Br", "occu": 1 }],
        "abc": [0.28112189, 0.76591211, 0.69916282],
        "properties": { "magmom": 0.026000000000000002 },
        "label": "Br",
        "xyz": [-1.678982418819535, 10.529452803215474, 4.792957458122981]
      },
      {
        "species": [{ "element": "Br", "occu": 1 }],
        "abc": [0.7129604900000001, 0.7129604900000001, 0.82020108],
        "properties": { "magmom": 0.006 },
        "label": "Br",
        "xyz": [0.0, 13.600990369793468, 5.641323707982072]
      },
      {
        "species": [{ "element": "Br", "occu": 1 }],
        "abc": [0.28703951, 0.28703951, 0.17979892],
        "properties": { "magmom": 0.006 },
        "label": "Br",
        "xyz": [0.0, 4.633784720206533, 1.2612840920179285]
      },
      {
        "species": [{ "element": "Br", "occu": 1 }],
        "abc": [0.81958076, 0.81958076, 0.15252257],
        "properties": { "magmom": -0.004 },
        "label": "Br",
        "xyz": [0.0, 11.210782559808283, 1.1784681456803345]
      },
      {
        "species": [{ "element": "Br", "occu": 1 }],
        "abc": [0.18041924, 0.18041924, 0.84747743],
        "properties": { "magmom": -0.004 },
        "label": "Br",
        "xyz": [0.0, 7.023992530191717, 5.724139654319665]
      }
    ]
  },
  "task_ids": null,
  "uncorrected_energy_per_atom": null,
  "energy_per_atom": -4.7995150140000025,
  "formation_energy_per_atom": -0.898331740000001,
  "energy_above_hull": 0.010492585333331,
  "is_stable": false,
  "equilibrium_reaction_energy_per_atom": null,
  "decomposes_to": null,
  "xas": null,
  "grain_boundaries": null,
  "band_gap": 0.196299999999999,
  "cbm": null,
  "vbm": null,
  "efermi": 1.20435398,
  "is_gap_direct": null,
  "is_metal": null,
  "es_source_calc_id": null,
  "bandstructure": null,
  "dos": null,
  "dos_energy_up": null,
  "dos_energy_down": null,
  "is_magnetic": null,
  "ordering": null,
  "total_magnetization": 2.0,
  "total_magnetization_normalized_vol": null,
  "total_magnetization_normalized_formula_units": null,
  "num_magnetic_sites": null,
  "num_unique_magnetic_sites": null,
  "types_of_magnetic_species": null,
  "bulk_modulus": null,
  "shear_modulus": null,
  "universal_anisotropy": null,
  "homogeneous_poisson": null,
  "e_total": null,
  "e_ionic": null,
  "e_electronic": null,
  "n": null,
  "e_ij_max": null,
  "weighted_surface_energy_EV_PER_ANG2": null,
  "weighted_surface_energy": null,
  "weighted_work_function": null,
  "surface_anisotropy": null,
  "shape_factor": null,
  "has_reconstructed": null,
  "possible_species": null,
  "has_props": null,
  "theoretical": null,
  "database_IDs": null,
  "fields_not_requested": [
    "builder_meta",
    "nsites",
    "elements",
    "nelements",
    "composition",
    "composition_reduced",
    "chemsys",
    "symmetry",
    "property_name",
    "deprecated",
    "deprecation_reasons",
    "last_updated",
    "origins",
    "warnings",
    "task_ids",
    "uncorrected_energy_per_atom",
    "equilibrium_reaction_energy_per_atom",
    "decomposes_to",
    "xas",
    "grain_boundaries",
    "cbm",
    "vbm",
    "is_gap_direct",
    "is_metal",
    "es_source_calc_id",
    "bandstructure",
    "dos",
    "dos_energy_up",
    "dos_energy_down",
    "is_magnetic",
    "ordering",
    "total_magnetization_normalized_vol",
    "total_magnetization_normalized_formula_units",
    "num_magnetic_sites",
    "num_unique_magnetic_sites",
    "types_of_magnetic_species",
    "bulk_modulus",
    "shear_modulus",
    "universal_anisotropy",
    "homogeneous_poisson",
    "e_total",
    "e_ionic",
    "e_electronic",
    "n",
    "e_ij_max",
    "weighted_surface_energy_EV_PER_ANG2",
    "weighted_surface_energy",
    "weighted_work_function",
    "surface_anisotropy",
    "shape_factor",
    "has_reconstructed",
    "possible_species",
    "has_props",
    "theoretical",
    "database_IDs"
  ]
}
