{"builder_meta": null, "nsites": null, "elements": null, "nelements": null, "composition": null, "composition_reduced": null, "formula_pretty": "WBr5", "formula_anonymous": "AB5", "chemsys": null, "volume": 384.6735519548417, "density": 5.036437077459873, "density_atomic": 32.05612932957014, "symmetry": null, "property_name": null, "material_id": "mp-1095321", "deprecated": null, "deprecation_reasons": null, "last_updated": null, "origins": null, "warnings": null, "structure": {"@module": "pymatgen.core.structure", "@class": "Structure", "charge": 0, "lattice": {"matrix": [[6.63675845, 0.01074141, -0.0793179], [-3.20102694, 5.98124414, -2.30429017], [-0.0024925900000000003, -0.05531564, 9.70375621]], "pbc": [true, true, true], "a": 6.637241100848726, "b": 7.164608022805486, "c": 9.703914190477319, "alpha": 109.04193389553095, "beta": 90.69996033308026, "gamma": 116.20321535273769, "volume": 384.6735519548417}, "properties": {}, "sites": [{"species": [{"element": "W", "occu": 1}], "abc": [0.89899986, 0.28928819, 0.78585948], "properties": {"magmom": 0.812}, "label": "W", "xyz": [5.038466802308725, 1.6964894972086422, 6.887878095727785]}, {"species": [{"element": "W", "occu": 1}], "abc": [0.10100014, 0.71071181, 0.21414052], "properties": {"magmom": 0.812}, "label": "W", "xyz": [-1.6052278823087256, 4.240180412791359, 0.4322700442722154]}, {"species": [{"element": "Br", "occu": 1}], "abc": [0.24495961, 0.6889685, 0.95575351], "properties": {"magmom": 0.003}, "label": "Br", "xyz": [-0.5820512693766763, 4.070651897786145, 7.667386034052133]}, {"species": [{"element": "Br", "occu": 1}], "abc": [0.75504039, 0.311031499999999, 0.04424649], "properties": {"magmom": 0.003}, "label": "Br", "xyz": [4.01529018937668, 1.8660180122138503, -0.3472378940521308]}, {"species": [{"element": "Br", "occu": 1}], "abc": [0.5683781800000001, 0.92736092, 0.66049475], "properties": {"magmom": 0.037}, "label": "Br", "xyz": [0.8020350582785342, 5.516341561668553, 4.227288816343319]}, {"species": [{"element": "Br", "occu": 1}], "abc": [0.43162182, 0.07263908, 0.33950525], "properties": {"magmom": 0.037}, "label": "Br", "xyz": [2.6312038617214664, 0.4203283483314474, 3.092859323656681]}, {"species": [{"element": "Br", "occu": 1}], "abc": [0.06248245, 0.30938985, 0.56573834], "properties": {"magmom": 0.037}, "label": "Br", "xyz": [-0.5770944705272573, 1.8199131985515962, 4.771906963236463]}, {"species": [{"element": "Br", "occu": 1}], "abc": [0.93751755, 0.69061015, 0.43426166], "properties": {"magmom": 0.037}, "label": "Br", "xyz": [4.010333390527258, 4.116756711448405, 2.548241176763538]}, {"species": [{"element": "Br", "occu": 1}], "abc": [0.12305134000000001, 0.13184684, 0.85560208], "properties": {"magmom": -0.029}, "label": "Br", "xyz": [0.3924840685463663, 0.7426017073809758, 7.988980445850369]}, {"species": [{"element": "Br", "occu": 1}], "abc": [0.87694866, 0.86815316, 0.14439792], "properties": {"magmom": -0.029}, "label": "Br", "xyz": [3.040754851453634, 5.194068202619024, -0.6688323058503676]}, {"species": [{"element": "Br", "occu": 1}], "abc": [0.70201523, 0.49672401, 0.76100209], "properties": {"magmom": -0.028}, "label": "Br", "xyz": [3.0671817057768513, 2.936472889771788, 6.18430012940288]}, {"species": [{"element": "Br", "occu": 1}], "abc": [0.29798477, 0.50327599, 0.23899791], "properties": {"magmom": -0.028}, "label": "Br", "xyz": [0.36605721422314896, 3.0001970202282124, 1.13584801059712]}]}, "task_ids": null, "uncorrected_energy_per_atom": null, "energy_per_atom": -4.436167222500001, "formation_energy_per_atom": -0.9123567383333341, "energy_above_hull": 0.011451318888888002, "is_stable": false, "equilibrium_reaction_energy_per_atom": null, "decomposes_to": null, "xas": null, "grain_boundaries": null, "band_gap": 0.0, "cbm": null, "vbm": null, "efermi": 0.48765005, "is_gap_direct": null, "is_metal": null, "es_source_calc_id": null, "bandstructure": null, "dos": null, "dos_energy_up": null, "dos_energy_down": null, "is_magnetic": null, "ordering": null, "total_magnetization": 1.999999799999999, "total_magnetization_normalized_vol": null, "total_magnetization_normalized_formula_units": null, "num_magnetic_sites": null, "num_unique_magnetic_sites": null, "types_of_magnetic_species": null, "bulk_modulus": null, "shear_modulus": null, "universal_anisotropy": null, "homogeneous_poisson": null, "e_total": null, "e_ionic": null, "e_electronic": null, "n": null, "e_ij_max": null, "weighted_surface_energy_EV_PER_ANG2": null, "weighted_surface_energy": null, "weighted_work_function": null, "surface_anisotropy": null, "shape_factor": null, "has_reconstructed": null, "possible_species": null, "has_props": null, "theoretical": null, "database_IDs": null, "fields_not_requested": ["builder_meta", "nsites", "elements", "nelements", "composition", "composition_reduced", "chemsys", "symmetry", "property_name", "deprecated", "deprecation_reasons", "last_updated", "origins", "warnings", "task_ids", "uncorrected_energy_per_atom", "equilibrium_reaction_energy_per_atom", "decomposes_to", "xas", "grain_boundaries", "cbm", "vbm", "is_gap_direct", "is_metal", "es_source_calc_id", "bandstructure", "dos", "dos_energy_up", "dos_energy_down", "is_magnetic", "ordering", "total_magnetization_normalized_vol", "total_magnetization_normalized_formula_units", "num_magnetic_sites", "num_unique_magnetic_sites", "types_of_magnetic_species", "bulk_modulus", "shear_modulus", "universal_anisotropy", "homogeneous_poisson", "e_total", "e_ionic", "e_electronic", "n", "e_ij_max", "weighted_surface_energy_EV_PER_ANG2", "weighted_surface_energy", "weighted_work_function", "surface_anisotropy", "shape_factor", "has_reconstructed", "possible_species", "has_props", "theoretical", "database_IDs"]}