{
  "builder_meta": null,
  "nsites": null,
  "elements": null,
  "nelements": null,
  "composition": null,
  "composition_reduced": null,
  "formula_pretty": "WBr6",
  "formula_anonymous": "AB6",
  "chemsys": null,
  "volume": 222.35534422081759,
  "density": 4.953223801878239,
  "density_atomic": 31.765049174402513,
  "symmetry": null,
  "property_name": null,
  "material_id": "mp-28483",
  "deprecated": null,
  "deprecation_reasons": null,
  "last_updated": null,
  "origins": null,
  "warnings": null,
  "structure": {
    "@module": "pymatgen.core.structure",
    "@class": "Structure",
    "charge": 0,
    "lattice": {
      "matrix": [
        [5.80328876, -0.00896871, 4.03182792],
        [2.10340277, 5.40864718, 4.03188783],
        [-0.01317406, -0.00907531, 7.06637284]
      ],
      "pbc": [true, true, true],
      "a": 7.066390680269024,
      "b": 7.0663913707257775,
      "c": 7.0663909480723,
      "alpha": 55.317179541645885,
      "beta": 55.317174722633915,
      "gamma": 55.31718384875721,
      "volume": 222.35534422081759
    },
    "properties": {},
    "sites": [
      {
        "species": [{ "element": "W", "occu": 1 }],
        "abc": [-0.0, 0.0, -0.0],
        "properties": { "magmom": 0.0 },
        "label": "W",
        "xyz": [0.0, 0.0, 0.0]
      },
      {
        "species": [{ "element": "Br", "occu": 1 }],
        "abc": [0.22963767000000002, 0.61673555, 0.91560504],
        "properties": { "magmom": 0.0 },
        "label": "Br",
        "xyz": [2.6178347376778004, 3.325336040070381, 9.882474714586216]
      },
      {
        "species": [{ "element": "Br", "occu": 1 }],
        "abc": [0.91560504, 0.22963767000000002, 0.61673555],
        "properties": { "magmom": 0.0 },
        "label": "Br",
        "xyz": [5.788416037265863, 1.2282202738847017, 8.975518630929734]
      },
      {
        "species": [{ "element": "Br", "occu": 1 }],
        "abc": [0.61673555, 0.91560504, 0.22963767000000002],
        "properties": { "magmom": 0.0 },
        "label": "Br",
        "xyz": [5.501955402126539, 4.9445692622522195, 7.800893821938102]
      },
      {
        "species": [{ "element": "Br", "occu": 1 }],
        "abc": [0.77036233, 0.38326445000000003, 0.08439496],
        "properties": { "magmom": 0.0 },
        "label": "Br",
        "xyz": [5.2756827323222, 2.0652671199296195, 5.247613875413783]
      },
      {
        "species": [{ "element": "Br", "occu": 1 }],
        "abc": [0.08439496, 0.77036233, 0.38326445000000003],
        "properties": { "magmom": 0.0 },
        "label": "Br",
        "xyz": [2.105101432734137, 4.162382886115298, 6.154569959070265]
      },
      {
        "species": [{ "element": "Br", "occu": 1 }],
        "abc": [0.38326445000000003, 0.08439496, 0.77036233],
        "properties": { "magmom": 0.0 },
        "label": "Br",
        "xyz": [2.391562067873462, 0.446033897747781, 7.329194768061898]
      }
    ]
  },
  "task_ids": null,
  "uncorrected_energy_per_atom": null,
  "energy_per_atom": -4.188769214285715,
  "formation_energy_per_atom": -0.9345107228571431,
  "energy_above_hull": 0.0,
  "is_stable": true,
  "equilibrium_reaction_energy_per_atom": null,
  "decomposes_to": null,
  "xas": null,
  "grain_boundaries": null,
  "band_gap": 1.069899999999999,
  "cbm": null,
  "vbm": null,
  "efermi": -1.2411305400000001,
  "is_gap_direct": null,
  "is_metal": null,
  "es_source_calc_id": null,
  "bandstructure": null,
  "dos": null,
  "dos_energy_up": null,
  "dos_energy_down": null,
  "is_magnetic": null,
  "ordering": null,
  "total_magnetization": 0.0,
  "total_magnetization_normalized_vol": null,
  "total_magnetization_normalized_formula_units": null,
  "num_magnetic_sites": null,
  "num_unique_magnetic_sites": null,
  "types_of_magnetic_species": null,
  "bulk_modulus": null,
  "shear_modulus": null,
  "universal_anisotropy": null,
  "homogeneous_poisson": null,
  "e_total": null,
  "e_ionic": null,
  "e_electronic": null,
  "n": null,
  "e_ij_max": null,
  "weighted_surface_energy_EV_PER_ANG2": null,
  "weighted_surface_energy": null,
  "weighted_work_function": null,
  "surface_anisotropy": null,
  "shape_factor": null,
  "has_reconstructed": null,
  "possible_species": null,
  "has_props": null,
  "theoretical": null,
  "database_IDs": null,
  "fields_not_requested": [
    "builder_meta",
    "nsites",
    "elements",
    "nelements",
    "composition",
    "composition_reduced",
    "chemsys",
    "symmetry",
    "property_name",
    "deprecated",
    "deprecation_reasons",
    "last_updated",
    "origins",
    "warnings",
    "task_ids",
    "uncorrected_energy_per_atom",
    "equilibrium_reaction_energy_per_atom",
    "decomposes_to",
    "xas",
    "grain_boundaries",
    "cbm",
    "vbm",
    "is_gap_direct",
    "is_metal",
    "es_source_calc_id",
    "bandstructure",
    "dos",
    "dos_energy_up",
    "dos_energy_down",
    "is_magnetic",
    "ordering",
    "total_magnetization_normalized_vol",
    "total_magnetization_normalized_formula_units",
    "num_magnetic_sites",
    "num_unique_magnetic_sites",
    "types_of_magnetic_species",
    "bulk_modulus",
    "shear_modulus",
    "universal_anisotropy",
    "homogeneous_poisson",
    "e_total",
    "e_ionic",
    "e_electronic",
    "n",
    "e_ij_max",
    "weighted_surface_energy_EV_PER_ANG2",
    "weighted_surface_energy",
    "weighted_work_function",
    "surface_anisotropy",
    "shape_factor",
    "has_reconstructed",
    "possible_species",
    "has_props",
    "theoretical",
    "database_IDs"
  ]
}
