{
  "builder_meta": null,
  "nsites": null,
  "elements": null,
  "nelements": null,
  "composition": null,
  "composition_reduced": null,
  "formula_pretty": "WCl3",
  "formula_anonymous": "AB3",
  "chemsys": null,
  "volume": 588.3155912875201,
  "density": 4.914574256313532,
  "density_atomic": 24.513149636980003,
  "symmetry": null,
  "property_name": null,
  "material_id": "mp-23269",
  "deprecated": null,
  "deprecation_reasons": null,
  "last_updated": null,
  "origins": null,
  "warnings": null,
  "structure": {
    "@module": "pymatgen.core.structure",
    "@class": "Structure",
    "charge": 0,
    "lattice": {
      "matrix": [
        [5.28077902, -7.5776962, 0.03880025],
        [5.28077881, 7.57769634, 0.038800390000000004],
        [-5.64631909, -1.399999999999999e-7, 7.3094929]
      ],
      "pbc": [true, true, true],
      "a": 9.236320274707166,
      "b": 9.236320270089088,
      "c": 9.236319923067242,
      "alpha": 110.25446802058714,
      "beta": 110.25446807251389,
      "gamma": 110.25446525111904,
      "volume": 588.3155912875201
    },
    "properties": {},
    "sites": [
      {
        "species": [{ "element": "W", "occu": 1 }],
        "abc": [0.15098439, 0.026402250000000002, 0.23836713],
        "properties": { "magmom": 0.0 },
        "label": "W",
        "xyz": [-0.40915723515169167, -0.9440456385409511, 1.7492254940033523]
      },
      {
        "species": [{ "element": "W", "occu": 1 }],
        "abc": [0.026402250000000002, 0.23836713, 0.15098439],
        "properties": { "magmom": 0.0 },
        "label": "W",
        "xyz": [0.545682493436305, 1.6062054779430397, 1.1138924782235742]
      },
      {
        "species": [{ "element": "W", "occu": 1 }],
        "abc": [0.23836713, 0.15098439, 0.026402250000000002],
        "properties": { "magmom": 0.0 },
        "label": "W",
        "xyz": [1.907003778320436, -0.6621598394020887, 0.20809401637071964]
      },
      {
        "species": [{ "element": "W", "occu": 1 }],
        "abc": [0.84901561, 0.97359775, 0.76163287],
        "properties": { "magmom": 0.0 },
        "label": "W",
        "xyz": [5.324395975151692, 0.9440456385409518, 5.637868045996648]
      },
      {
        "species": [{ "element": "W", "occu": 1 }],
        "abc": [0.97359775, 0.76163287, 0.84901561],
        "properties": { "magmom": 0.0 },
        "label": "W",
        "xyz": [4.369556246563694, -1.6062054779430404, 6.273201061776427]
      },
      {
        "species": [{ "element": "W", "occu": 1 }],
        "abc": [0.76163287, 0.84901561, 0.97359775],
        "properties": { "magmom": 0.0 },
        "label": "W",
        "xyz": [3.0082349616795643, 0.6621598394020889, 7.178999523629281]
      },
      {
        "species": [{ "element": "Cl", "occu": 1 }],
        "abc": [0.31715261, 0.03965587, 0.51382074],
        "properties": { "magmom": 0.0 },
        "label": "Cl",
        "xyz": [-1.0169691260855698, -2.1027860585934697, 3.7696133146806883]
      },
      {
        "species": [{ "element": "Cl", "occu": 1 }],
        "abc": [0.03965587, 0.51382074, 0.31715261],
        "properties": { "magmom": 0.0 },
        "label": "Cl",
        "xyz": [1.1320427259600419, 3.5930773611060327, 2.339699853783525]
      },
      {
        "species": [{ "element": "Cl", "occu": 1 }],
        "abc": [0.51382074, 0.31715261, 0.03965587],
        "properties": { "magmom": 0.0 },
        "label": "Cl",
        "xyz": [4.16427687044551, -1.4902913025125624, 0.32210631833302594]
      },
      {
        "species": [{ "element": "Cl", "occu": 1 }],
        "abc": [0.68284739, 0.9603441300000001, 0.48617926],
        "properties": { "magmom": 0.0 },
        "label": "Cl",
        "xyz": [5.9322078660855695, 2.10278605859347, 3.617480225319312]
      },
      {
        "species": [{ "element": "Cl", "occu": 1 }],
        "abc": [0.9603441300000001, 0.48617926, 0.68284739],
        "properties": { "magmom": 0.0 },
        "label": "Cl",
        "xyz": [3.783196014039958, -3.593077361106033, 5.047393686216475]
      },
      {
        "species": [{ "element": "Cl", "occu": 1 }],
        "abc": [0.48617926, 0.68284739, 0.9603441300000001],
        "properties": { "magmom": 0.0 },
        "label": "Cl",
        "xyz": [0.7509618695544882, 1.4902913025125628, 7.064987221666975]
      },
      {
        "species": [{ "element": "Cl", "occu": 1 }],
        "abc": [0.54666708, 0.79766614, 0.69388945],
        "properties": { "magmom": 0.0 },
        "label": "Cl",
        "xyz": [3.181205248670554, 1.9019946376943095, 5.12414058485247]
      },
      {
        "species": [{ "element": "Cl", "occu": 1 }],
        "abc": [0.69388945, 0.54666708, 0.79766614],
        "properties": { "magmom": 0.0 },
        "label": "Cl",
        "xyz": [2.0472272282193, -1.1156064288438627, 5.878668966936931]
      },
      {
        "species": [{ "element": "Cl", "occu": 1 }],
        "abc": [0.79766614, 0.69388945, 0.54666708],
        "properties": { "magmom": 0.0 },
        "label": "Cl",
        "xyz": [4.78991855144038, -0.7863882088504459, 4.053731966849153]
      },
      {
        "species": [{ "element": "Cl", "occu": 1 }],
        "abc": [0.45333292000000003, 0.20233386, 0.30611055],
        "properties": { "magmom": 0.0 },
        "label": "Cl",
        "xyz": [1.7340334913294455, -1.9019946376943089, 2.2629529551475303]
      },
      {
        "species": [{ "element": "Cl", "occu": 1 }],
        "abc": [0.30611055, 0.45333292000000003, 0.20233386],
        "properties": { "magmom": 0.0 },
        "label": "Cl",
        "xyz": [2.8680115117806992, 1.1156064288438623, 1.5084245730630703]
      },
      {
        "species": [{ "element": "Cl", "occu": 1 }],
        "abc": [0.20233386, 0.30611055, 0.45333292000000003],
        "properties": { "magmom": 0.0 },
        "label": "Cl",
        "xyz": [0.12532018855961935, 0.7863882088504462, 3.333361573150848]
      },
      {
        "species": [{ "element": "Cl", "occu": 1 }],
        "abc": [0.89779651, 0.85192338, 0.24577033],
        "properties": { "magmom": -0.0 },
        "label": "Cl",
        "xyz": [7.852186201050199, -0.3476125580216792, 1.8643461705969029]
      },
      {
        "species": [{ "element": "Cl", "occu": 1 }],
        "abc": [0.24577033, 0.89779651, 0.85192338],
        "properties": { "magmom": -0.0 },
        "label": "Cl",
        "xyz": [1.2286923443911055, 4.940856312908754, 6.2714987024292235]
      },
      {
        "species": [{ "element": "Cl", "occu": 1 }],
        "abc": [0.85192338, 0.24577033, 0.89779651],
        "properties": { "magmom": -0.0 },
        "label": "Cl",
        "xyz": [0.7274322891938185, -4.593243754887076, 6.605028040269054]
      },
      {
        "species": [{ "element": "Cl", "occu": 1 }],
        "abc": [0.10220349000000001, 0.14807662, 0.75422967],
        "properties": { "magmom": -0.0 },
        "label": "Cl",
        "xyz": [-2.9369474610501984, 0.347612558021679, 5.522747369403097]
      },
      {
        "species": [{ "element": "Cl", "occu": 1 }],
        "abc": [0.75422967, 0.10220349000000001, 0.14807662],
        "properties": { "magmom": -0.0 },
        "label": "Cl",
        "xyz": [3.686546395608895, -4.940856312908753, 1.1155948375707767]
      },
      {
        "species": [{ "element": "Cl", "occu": 1 }],
        "abc": [0.14807662, 0.75422967, 0.10220349000000001],
        "properties": { "magmom": -0.0 },
        "label": "Cl",
        "xyz": [4.187806450806181, 4.593243754887075, 0.7820654997309474]
      }
    ]
  },
  "task_ids": null,
  "uncorrected_energy_per_atom": null,
  "energy_per_atom": -18.323682632916668,
  "formation_energy_per_atom": -0.8674048647916661,
  "energy_above_hull": 0.029099211250002,
  "is_stable": false,
  "equilibrium_reaction_energy_per_atom": null,
  "decomposes_to": null,
  "xas": null,
  "grain_boundaries": null,
  "band_gap": 0.0641,
  "cbm": null,
  "vbm": null,
  "efermi": 1.83256464,
  "is_gap_direct": null,
  "is_metal": null,
  "es_source_calc_id": null,
  "bandstructure": null,
  "dos": null,
  "dos_energy_up": null,
  "dos_energy_down": null,
  "is_magnetic": null,
  "ordering": null,
  "total_magnetization": 0.0,
  "total_magnetization_normalized_vol": null,
  "total_magnetization_normalized_formula_units": null,
  "num_magnetic_sites": null,
  "num_unique_magnetic_sites": null,
  "types_of_magnetic_species": null,
  "bulk_modulus": null,
  "shear_modulus": null,
  "universal_anisotropy": null,
  "homogeneous_poisson": null,
  "e_total": null,
  "e_ionic": null,
  "e_electronic": null,
  "n": null,
  "e_ij_max": null,
  "weighted_surface_energy_EV_PER_ANG2": null,
  "weighted_surface_energy": null,
  "weighted_work_function": null,
  "surface_anisotropy": null,
  "shape_factor": null,
  "has_reconstructed": null,
  "possible_species": null,
  "has_props": null,
  "theoretical": null,
  "database_IDs": null,
  "fields_not_requested": [
    "builder_meta",
    "nsites",
    "elements",
    "nelements",
    "composition",
    "composition_reduced",
    "chemsys",
    "symmetry",
    "property_name",
    "deprecated",
    "deprecation_reasons",
    "last_updated",
    "origins",
    "warnings",
    "task_ids",
    "uncorrected_energy_per_atom",
    "equilibrium_reaction_energy_per_atom",
    "decomposes_to",
    "xas",
    "grain_boundaries",
    "cbm",
    "vbm",
    "is_gap_direct",
    "is_metal",
    "es_source_calc_id",
    "bandstructure",
    "dos",
    "dos_energy_up",
    "dos_energy_down",
    "is_magnetic",
    "ordering",
    "total_magnetization_normalized_vol",
    "total_magnetization_normalized_formula_units",
    "num_magnetic_sites",
    "num_unique_magnetic_sites",
    "types_of_magnetic_species",
    "bulk_modulus",
    "shear_modulus",
    "universal_anisotropy",
    "homogeneous_poisson",
    "e_total",
    "e_ionic",
    "e_electronic",
    "n",
    "e_ij_max",
    "weighted_surface_energy_EV_PER_ANG2",
    "weighted_surface_energy",
    "weighted_work_function",
    "surface_anisotropy",
    "shape_factor",
    "has_reconstructed",
    "possible_species",
    "has_props",
    "theoretical",
    "database_IDs"
  ]
}
