{"builder_meta": null, "nsites": null, "elements": null, "nelements": null, "composition": null, "composition_reduced": null, "formula_pretty": "WCl4", "formula_anonymous": "AB4", "chemsys": null, "volume": 247.15422738576476, "density": 4.375873913517119, "density_atomic": 24.715422738576475, "symmetry": null, "property_name": null, "material_id": "mp-980949", "deprecated": null, "deprecation_reasons": null, "last_updated": null, "origins": null, "warnings": null, "structure": {"@module": "pymatgen.core.structure", "@class": "Structure", "charge": 0, "lattice": {"matrix": [[-1e-08, 6.46697931, -1e-08], [6.09286882, 3.23348914, 0.03415333], [-0.6394464400000001, -3.23348914, -6.27614322]], "pbc": [true, true, true], "a": 6.46697931, "b": 6.897801745931542, "c": 7.089027964825544, "alpha": 107.33021587842411, "beta": 117.13739884990709, "gamma": 62.04545372134234, "volume": 247.15422738576476}, "properties": {}, "sites": [{"species": [{"element": "W", "occu": 1}], "abc": [0.20355092, 0.0, -0.0], "properties": {"magmom": -0.0}, "label": "W", "xyz": [-2.0355092e-09, 1.3163595881714651, -2.0355092e-09]}, {"species": [{"element": "W", "occu": 1}], "abc": [0.79644908, -0.0, 0.0], "properties": {"magmom": -0.0}, "label": "W", "xyz": [-7.9644908e-09, 5.1506197218285354, -7.9644908e-09]}, {"species": [{"element": "Cl", "occu": 1}], "abc": [0.67671801, 0.79940361, 0.15283763], "properties": {"magmom": 0.0}, "label": "Cl", "xyz": [4.772929844795723, 6.466985443997831, -0.9319285667570274]}, {"species": [{"element": "Cl", "occu": 1}], "abc": [0.2120176, 0.75922143, 0.18325563], "properties": {"magmom": -0.0}, "label": "Cl", "xyz": [4.508654415989179, 3.233492591867268, -1.1242086418296426]}, {"species": [{"element": "Cl", "occu": 1}], "abc": [0.25995234, 0.25172956, 0.29500964], "properties": {"magmom": -0.0}, "label": "Cl", "xyz": [1.3451123205331141, 1.5411607357077544, -1.8429253517867294]}, {"species": [{"element": "Cl", "occu": 1}], "abc": [0.78332474, 0.25172956, 0.29500964], "properties": {"magmom": -0.0}, "label": "Cl", "xyz": [1.3451123152993902, 4.925799217932798, -1.8429253570204533]}, {"species": [{"element": "Cl", "occu": 1}], "abc": [0.21667426, 0.7482694400000001, 0.70499036], "properties": {"magmom": -0.0}, "label": "Cl", "xyz": [4.1083039618318, 1.5411703915987522, -4.399064577132867]}, {"species": [{"element": "Cl", "occu": 1}], "abc": [0.74004666, 0.7482694400000001, 0.70499036], "properties": {"magmom": -0.0}, "label": "Cl", "xyz": [4.108303956598076, 4.9258088738237955, -4.399064582366591]}, {"species": [{"element": "Cl", "occu": 1}], "abc": [0.7879824, 0.24078057, 0.81674437], "properties": {"magmom": -0.0}, "label": "Cl", "xyz": [0.9447801397484605, 3.2334931851110116, -5.117781189863697]}, {"species": [{"element": "Cl", "occu": 1}], "abc": [0.32328299, 0.20059539, 0.84716237], "properties": {"magmom": 0.0}, "label": "Cl", "xyz": [0.6804864323354469, -2.9005076602750535e-06, -5.310061367396313]}]}, "task_ids": null, "uncorrected_energy_per_atom": null, "energy_per_atom": -16.134891021, "formation_energy_per_atom": -0.939381027000001, "energy_above_hull": 0.0, "is_stable": true, "equilibrium_reaction_energy_per_atom": null, "decomposes_to": null, "xas": null, "grain_boundaries": null, "band_gap": 0.264999999999999, "cbm": null, "vbm": null, "efermi": 1.8969552200000002, "is_gap_direct": null, "is_metal": null, "es_source_calc_id": null, "bandstructure": null, "dos": null, "dos_energy_up": null, "dos_energy_down": null, "is_magnetic": null, "ordering": null, "total_magnetization": 0.0, "total_magnetization_normalized_vol": null, "total_magnetization_normalized_formula_units": null, "num_magnetic_sites": null, "num_unique_magnetic_sites": null, "types_of_magnetic_species": null, "bulk_modulus": null, "shear_modulus": null, "universal_anisotropy": null, "homogeneous_poisson": null, "e_total": null, "e_ionic": null, "e_electronic": null, "n": null, "e_ij_max": null, "weighted_surface_energy_EV_PER_ANG2": null, "weighted_surface_energy": null, "weighted_work_function": null, "surface_anisotropy": null, "shape_factor": null, "has_reconstructed": null, "possible_species": null, "has_props": null, "theoretical": null, "database_IDs": null, "fields_not_requested": ["builder_meta", "nsites", "elements", "nelements", "composition", "composition_reduced", "chemsys", "symmetry", "property_name", "deprecated", "deprecation_reasons", "last_updated", "origins", "warnings", "task_ids", "uncorrected_energy_per_atom", "equilibrium_reaction_energy_per_atom", "decomposes_to", "xas", "grain_boundaries", "cbm", "vbm", "is_gap_direct", "is_metal", "es_source_calc_id", "bandstructure", "dos", "dos_energy_up", "dos_energy_down", "is_magnetic", "ordering", "total_magnetization_normalized_vol", "total_magnetization_normalized_formula_units", "num_magnetic_sites", "num_unique_magnetic_sites", "types_of_magnetic_species", "bulk_modulus", "shear_modulus", "universal_anisotropy", "homogeneous_poisson", "e_total", "e_ionic", "e_electronic", "n", "e_ij_max", "weighted_surface_energy_EV_PER_ANG2", "weighted_surface_energy", "weighted_work_function", "surface_anisotropy", "shape_factor", "has_reconstructed", "possible_species", "has_props", "theoretical", "database_IDs"]}