{"builder_meta": null, "nsites": null, "elements": null, "nelements": null, "composition": null, "composition_reduced": null, "formula_pretty": "WCl5", "formula_anonymous": "AB5", "chemsys": null, "volume": 990.3911867437896, "density": 3.632679496771701, "density_atomic": 27.5108662984386, "symmetry": null, "property_name": null, "material_id": "mp-27160", "deprecated": null, "deprecation_reasons": null, "last_updated": null, "origins": null, "warnings": null, "structure": {"@module": "pymatgen.core.structure", "@class": "Structure", "charge": 0, "lattice": {"matrix": [[8.99012305, 8.889311, 0.01354789], [-8.99032267, 8.88951685, 0.01362624], [-3.2890000000000005e-05, 0.65012984, 6.19730437]], "pbc": [true, true, true], "a": 12.642877285419871, "b": 12.643164050646751, "c": 6.231312082086828, "alpha": 85.73136312619616, "beta": 85.732149130734, "gamma": 90.64601614846457, "volume": 990.3911867437896}, "properties": {}, "sites": [{"species": [{"element": "W", "occu": 1}], "abc": [0.77307904, 0.56018267, 0.43321489], "properties": {"magmom": 0.769}, "label": "W", "xyz": [1.913838491096011, 12.133539225305746, 2.702871304246556]}, {"species": [{"element": "W", "occu": 1}], "abc": [0.43983396, 0.22686792, 0.56682791], "properties": {"magmom": 0.769}, "label": "W", "xyz": [1.9145269747270715, 6.295078794801846, 3.521855262515532]}, {"species": [{"element": "W", "occu": 1}], "abc": [0.22692096, 0.43981733, 0.56678511], "properties": {"magmom": 0.769}, "label": "W", "xyz": [-1.9140710010960105, 6.295418464694253, 3.521607195753444]}, {"species": [{"element": "W", "occu": 1}], "abc": [0.56016604, 0.77313208, 0.43317209], "properties": {"magmom": 0.769}, "label": "W", "xyz": [-1.914759484727071, 12.133878895198153, 2.7026232374844685]}, {"species": [{"element": "W", "occu": 1}], "abc": [0.10643241, 0.89359253, -1.3200000000000002e-05], "properties": {"magmom": 0.772}, "label": "W", "xyz": [-7.076844717359457, 8.889708063724752, 0.0135364364414181]}, {"species": [{"element": "W", "occu": 1}], "abc": [0.89356759, 0.10640747, 1.3200000000000002e-05], "properties": {"magmom": 0.772}, "label": "W", "xyz": [7.076645097359456, 8.889119786275247, 0.013637693558581899]}, {"species": [{"element": "Cl", "occu": 1}], "abc": [0.68202076, 0.4935714, 0.17247498], "properties": {"magmom": -0.023}, "label": "Cl", "xyz": [1.694078735668788, 10.562437052225851, 1.084845411857395]}, {"species": [{"element": "Cl", "occu": 1}], "abc": [0.50644489, 0.31794033, 0.82753631], "properties": {"magmom": -0.023}, "label": "Cl", "xyz": [1.6945885049681977, 7.866288101214841, 5.1396879811997165]}, {"species": [{"element": "Cl", "occu": 1}], "abc": [0.31797924, 0.5064286, 0.8275250200000001], "properties": {"magmom": -0.023}, "label": "Cl", "xyz": [-1.6943112456687879, 7.866520637774147, 5.139633088142605]}, {"species": [{"element": "Cl", "occu": 1}], "abc": [0.49355511, 0.68205967, 0.17246369], "properties": {"magmom": -0.023}, "label": "Cl", "xyz": [-1.6948210149681975, 10.562669588785159, 1.0847905188002842]}, {"species": [{"element": "Cl", "occu": 1}], "abc": [0.78363771, 0.40105976, 0.62250095], "properties": {"magmom": 0.052000000000000005}, "label": "Cl", "xyz": [3.4393223131112114, 10.935933252918115, 3.8739094318031864]}, {"species": [{"element": "Cl", "occu": 1}], "abc": [0.59895646, 0.21628836, 0.37756978], "properties": {"magmom": 0.052000000000000005}, "label": "Cl", "xyz": [3.440177712557217, 7.492478649738161, 2.350976640911375]}, {"species": [{"element": "Cl", "occu": 1}], "abc": [0.92469936, 0.9246828300000001, 0.86519452], "properties": {"magmom": 0.007}, "label": "Cl", "xyz": [-6.443470027337663e-05, 17.00241256558812, 5.387001455073863]}, {"species": [{"element": "Cl", "occu": 1}], "abc": [0.07530064, 0.07531717, 0.13480548], "properties": {"magmom": 0.007}, "label": "Cl", "xyz": [-0.00016807529972913282, 1.4265451244118776, 0.8374770449261382]}, {"species": [{"element": "Cl", "occu": 1}], "abc": [0.73208351, 0.11416755, 0.8651144900000001], "properties": {"magmom": 0.053}, "label": "Cl", "xyz": [5.555089271216971, 8.085049102775208, 5.372851670728128]}, {"species": [{"element": "Cl", "occu": 1}], "abc": [0.88573543, 0.26788014, 0.13491231], "properties": {"magmom": 0.053}, "label": "Cl", "xyz": [5.554537172694012, 10.342613237813419, 0.8517426935834111]}, {"species": [{"element": "Cl", "occu": 1}], "abc": [0.26791649, 0.88583245, 0.13488551000000001], "properties": {"magmom": 0.053}, "label": "Cl", "xyz": [-5.55532178121697, 10.34390858722479, 0.8516268292718728]}, {"species": [{"element": "Cl", "occu": 1}], "abc": [0.11426457, 0.7321198600000001, 0.86508769], "properties": {"magmom": 0.053}, "label": "Cl", "xyz": [-5.554769682694012, 8.086344452186582, 5.372735806416589]}, {"species": [{"element": "Cl", "occu": 1}], "abc": [0.83053391, 0.01841717, 0.31439481], "properties": {"magmom": -0.024}, "label": "Cl", "xyz": [7.30101540668408, 7.750991412602454, 1.9599032687508107]}, {"species": [{"element": "Cl", "occu": 1}], "abc": [0.98155333, 0.16947738, 0.685650499999999], "properties": {"magmom": -0.024}, "label": "Cl", "xyz": [7.300606334326106, 10.677666688520402, 4.264792155941104]}, {"species": [{"element": "Cl", "occu": 1}], "abc": [0.16946609, 0.98158283, 0.68560519], "properties": {"magmom": -0.024}, "label": "Cl", "xyz": [-7.30124791668408, 10.677966277397546, 4.26457523124919]}, {"species": [{"element": "Cl", "occu": 1}], "abc": [0.018446670000000002, 0.83052262, 0.3143495], "properties": {"magmom": -0.024}, "label": "Cl", "xyz": [-7.300838844326106, 7.751291001479596, 1.95968634405889]}, {"species": [{"element": "Cl", "occu": 1}], "abc": [0.7398071700000001, 0.73982167, 0.24688514], "properties": {"magmom": 0.006}, "label": "Cl", "xyz": [-0.0002861600382448971, 13.313540612186587, 1.550126170803054]}, {"species": [{"element": "Cl", "occu": 1}], "abc": [0.26019283, 0.26017833, 0.75311486], "properties": {"magmom": 0.006}, "label": "Cl", "xyz": [5.3650038244830144e-05, 5.1154170778134125, 4.674352329196947]}, {"species": [{"element": "Cl", "occu": 1}], "abc": [0.5499715, 0.9325463900000001, 0.24462362], "properties": {"magmom": 0.051000000000000004}, "label": "Cl", "xyz": [-3.4395895375214485, 13.33779166687899, 1.5361650835376282]}, {"species": [{"element": "Cl", "occu": 1}], "abc": [0.06749714, 0.45006004, 0.75530089], "properties": {"magmom": 0.051000000000000004}, "label": "Cl", "xyz": [-3.4394022281963017, 5.09186302492977, 4.687876576209374]}, {"species": [{"element": "Cl", "occu": 1}], "abc": [0.4500285, 0.06745361, 0.7553763800000001], "properties": {"magmom": 0.051000000000000004}, "label": "Cl", "xyz": [3.439357027521448, 5.091166023121007, 4.688313416462372]}, {"species": [{"element": "Cl", "occu": 1}], "abc": [0.93250286, 0.54993996, 0.24469911], "properties": {"magmom": 0.051000000000000004}, "label": "Cl", "xyz": [3.4391697181963026, 13.337094665070229, 1.5366019237906265]}, {"species": [{"element": "Cl", "occu": 1}], "abc": [0.6518017700000001, 0.83965511, 0.69339051], "properties": {"magmom": -0.023}, "label": "Cl", "xyz": [-1.6890150595204192, 13.708990753737892, 4.31742391846738]}, {"species": [{"element": "Cl", "occu": 1}], "abc": [0.16035785, 0.34818747, 0.30660611], "properties": {"magmom": -0.023}, "label": "Cl", "xyz": [-1.6886909856924601, 4.720022962702541, 1.90704838191535]}, {"species": [{"element": "Cl", "occu": 1}], "abc": [0.34819823, 0.16034489, 0.30660949], "properties": {"magmom": -0.023}, "label": "Cl", "xyz": [1.6887825495204192, 4.719966936262107, 1.9070545815326194]}, {"species": [{"element": "Cl", "occu": 1}], "abc": [0.83964215, 0.6518125300000001, 0.6933938900000001], "properties": {"magmom": -0.023}, "label": "Cl", "xyz": [1.6884584756924599, 13.708934727297457, 4.31743011808465]}, {"species": [{"element": "Cl", "occu": 1}], "abc": [0.59337811, 0.59341616, 0.6189780500000001], "properties": {"magmom": 0.006}, "label": "Cl", "xyz": [-0.0004808901039761661, 10.952321614374517, 3.8521204265778053]}, {"species": [{"element": "Cl", "occu": 1}], "abc": [0.40662189, 0.40658384000000003, 0.38102195], "properties": {"magmom": 0.006}, "label": "Cl", "xyz": [0.00024838010397609914, 7.476636075625482, 2.372358073422195]}, {"species": [{"element": "Cl", "occu": 1}], "abc": [0.40104354000000003, 0.78371164, 0.62243022], "properties": {"magmom": 0.052000000000000005}, "label": "Cl", "xyz": [-3.440410222557217, 10.936479040261839, 3.873501859088626]}, {"species": [{"element": "Cl", "occu": 1}], "abc": [0.21636229, 0.59894024, 0.37749905], "properties": {"magmom": 0.052000000000000005}, "label": "Cl", "xyz": [-3.43955482311121, 7.493024437081886, 2.3505690681968145]}]}, "task_ids": null, "uncorrected_energy_per_atom": null, "energy_per_atom": -14.632842824166667, "formation_energy_per_atom": -0.9445113462500001, "energy_above_hull": 0.0, "is_stable": true, "equilibrium_reaction_energy_per_atom": null, "decomposes_to": null, "xas": null, "grain_boundaries": null, "band_gap": 0.0, "cbm": null, "vbm": null, "efermi": 0.6045255700000001, "is_gap_direct": null, "is_metal": null, "es_source_calc_id": null, "bandstructure": null, "dos": null, "dos_energy_up": null, "dos_energy_down": null, "is_magnetic": null, "ordering": null, "total_magnetization": 5.9999999, "total_magnetization_normalized_vol": null, "total_magnetization_normalized_formula_units": null, "num_magnetic_sites": null, "num_unique_magnetic_sites": null, "types_of_magnetic_species": null, "bulk_modulus": null, "shear_modulus": null, "universal_anisotropy": null, "homogeneous_poisson": null, "e_total": null, "e_ionic": null, "e_electronic": null, "n": null, "e_ij_max": null, "weighted_surface_energy_EV_PER_ANG2": null, "weighted_surface_energy": null, "weighted_work_function": null, "surface_anisotropy": null, "shape_factor": null, "has_reconstructed": null, "possible_species": null, "has_props": null, "theoretical": null, "database_IDs": null, "fields_not_requested": ["builder_meta", "nsites", "elements", "nelements", "composition", "composition_reduced", "chemsys", "symmetry", "property_name", "deprecated", "deprecation_reasons", "last_updated", "origins", "warnings", "task_ids", "uncorrected_energy_per_atom", "equilibrium_reaction_energy_per_atom", "decomposes_to", "xas", "grain_boundaries", "cbm", "vbm", "is_gap_direct", "is_metal", "es_source_calc_id", "bandstructure", "dos", "dos_energy_up", "dos_energy_down", "is_magnetic", "ordering", "total_magnetization_normalized_vol", "total_magnetization_normalized_formula_units", "num_magnetic_sites", "num_unique_magnetic_sites", "types_of_magnetic_species", "bulk_modulus", "shear_modulus", "universal_anisotropy", "homogeneous_poisson", "e_total", "e_ionic", "e_electronic", "n", "e_ij_max", "weighted_surface_energy_EV_PER_ANG2", "weighted_surface_energy", "weighted_work_function", "surface_anisotropy", "shape_factor", "has_reconstructed", "possible_species", "has_props", "theoretical", "database_IDs"]}