{
  "builder_meta": null,
  "nsites": null,
  "elements": null,
  "nelements": null,
  "composition": null,
  "composition_reduced": null,
  "formula_pretty": "WCl6",
  "formula_anonymous": "AB6",
  "chemsys": null,
  "volume": 190.936327267311,
  "density": 3.448793954493857,
  "density_atomic": 27.276618181044427,
  "symmetry": null,
  "property_name": null,
  "material_id": "mp-571518",
  "deprecated": null,
  "deprecation_reasons": null,
  "last_updated": null,
  "origins": null,
  "warnings": null,
  "structure": {
    "@module": "pymatgen.core.structure",
    "@class": "Structure",
    "charge": 0,
    "lattice": {
      "matrix": [
        [5.51692222, -0.00735655, 3.83103031],
        [1.99988673, 5.1416812, 3.83103719],
        [-0.01077697, -0.007371399999999001, 6.71662859]
      ],
      "pbc": [true, true, true],
      "a": 6.716641879428761,
      "b": 6.716641902500581,
      "c": 6.716641280924993,
      "alpha": 55.31523561361838,
      "beta": 55.31522556089464,
      "gamma": 55.315217082892346,
      "volume": 190.936327267311
    },
    "properties": {},
    "sites": [
      {
        "species": [{ "element": "W", "occu": 1 }],
        "abc": [0.0, -0.0, -0.0],
        "properties": { "magmom": 0.0 },
        "label": "W",
        "xyz": [0.0, 0.0, 0.0]
      },
      {
        "species": [{ "element": "Cl", "occu": 1 }],
        "abc": [0.37630156000000003, 0.0819005, 0.7751936500000001],
        "properties": { "magmom": -0.0 },
        "label": "Cl",
        "xyz": [2.231463922204788, 0.4126237174077728, 6.962074375816332]
      },
      {
        "species": [{ "element": "Cl", "occu": 1 }],
        "abc": [0.62369844, 0.9180995, 0.22480635000000002],
        "properties": { "magmom": -0.0 },
        "label": "Cl",
        "xyz": [5.274568057795212, 4.714329532592228, 7.416621714183668]
      },
      {
        "species": [{ "element": "Cl", "occu": 1 }],
        "abc": [0.0819005, 0.7751936500000001, 0.37630156000000003],
        "properties": { "magmom": -0.0 },
        "label": "Cl",
        "xyz": [1.9980827914713015, 3.982422242121722, 5.8110368168635995]
      },
      {
        "species": [{ "element": "Cl", "occu": 1 }],
        "abc": [0.7751936500000001, 0.37630156000000003, 0.0819005],
        "properties": { "magmom": -0.0 },
        "label": "Cl",
        "xyz": [5.028360929578716, 1.9285161843910645, 4.961510880119844]
      },
      {
        "species": [{ "element": "Cl", "occu": 1 }],
        "abc": [0.9180995, 0.22480635000000002, 0.62369844],
        "properties": { "magmom": -0.0 },
        "label": "Cl",
        "xyz": [5.507949188528698, 1.1445310078782798, 8.5676592731364]
      },
      {
        "species": [{ "element": "Cl", "occu": 1 }],
        "abc": [0.22480635000000002, 0.62369844, 0.9180995],
        "properties": { "magmom": -0.0 },
        "label": "Cl",
        "xyz": [2.477671050421283, 3.1984370656089363, 9.417185209880156]
      }
    ]
  },
  "task_ids": null,
  "uncorrected_energy_per_atom": null,
  "energy_per_atom": -13.558157112857144,
  "formation_energy_per_atom": -0.9463817178571441,
  "energy_above_hull": 0.0,
  "is_stable": true,
  "equilibrium_reaction_energy_per_atom": null,
  "decomposes_to": null,
  "xas": null,
  "grain_boundaries": null,
  "band_gap": 1.9169,
  "cbm": null,
  "vbm": null,
  "efermi": -1.40576058,
  "is_gap_direct": null,
  "is_metal": null,
  "es_source_calc_id": null,
  "bandstructure": null,
  "dos": null,
  "dos_energy_up": null,
  "dos_energy_down": null,
  "is_magnetic": null,
  "ordering": null,
  "total_magnetization": 0.0,
  "total_magnetization_normalized_vol": null,
  "total_magnetization_normalized_formula_units": null,
  "num_magnetic_sites": null,
  "num_unique_magnetic_sites": null,
  "types_of_magnetic_species": null,
  "bulk_modulus": null,
  "shear_modulus": null,
  "universal_anisotropy": null,
  "homogeneous_poisson": null,
  "e_total": null,
  "e_ionic": null,
  "e_electronic": null,
  "n": null,
  "e_ij_max": null,
  "weighted_surface_energy_EV_PER_ANG2": null,
  "weighted_surface_energy": null,
  "weighted_work_function": null,
  "surface_anisotropy": null,
  "shape_factor": null,
  "has_reconstructed": null,
  "possible_species": null,
  "has_props": null,
  "theoretical": null,
  "database_IDs": null,
  "fields_not_requested": [
    "builder_meta",
    "nsites",
    "elements",
    "nelements",
    "composition",
    "composition_reduced",
    "chemsys",
    "symmetry",
    "property_name",
    "deprecated",
    "deprecation_reasons",
    "last_updated",
    "origins",
    "warnings",
    "task_ids",
    "uncorrected_energy_per_atom",
    "equilibrium_reaction_energy_per_atom",
    "decomposes_to",
    "xas",
    "grain_boundaries",
    "cbm",
    "vbm",
    "is_gap_direct",
    "is_metal",
    "es_source_calc_id",
    "bandstructure",
    "dos",
    "dos_energy_up",
    "dos_energy_down",
    "is_magnetic",
    "ordering",
    "total_magnetization_normalized_vol",
    "total_magnetization_normalized_formula_units",
    "num_magnetic_sites",
    "num_unique_magnetic_sites",
    "types_of_magnetic_species",
    "bulk_modulus",
    "shear_modulus",
    "universal_anisotropy",
    "homogeneous_poisson",
    "e_total",
    "e_ionic",
    "e_electronic",
    "n",
    "e_ij_max",
    "weighted_surface_energy_EV_PER_ANG2",
    "weighted_surface_energy",
    "weighted_work_function",
    "surface_anisotropy",
    "shape_factor",
    "has_reconstructed",
    "possible_species",
    "has_props",
    "theoretical",
    "database_IDs"
  ]
}
