{"builder_meta": null, "nsites": null, "elements": null, "nelements": null, "composition": null, "composition_reduced": null, "formula_pretty": "WF4", "formula_anonymous": "AB4", "chemsys": null, "volume": 164.86263710610055, "density": 5.234222531482871, "density_atomic": 16.486263710610054, "symmetry": null, "property_name": null, "material_id": "mp-1402840", "deprecated": null, "deprecation_reasons": null, "last_updated": null, "origins": null, "warnings": null, "structure": {"@module": "pymatgen.core.structure", "@class": "Structure", "charge": 0, "lattice": {"matrix": [[5.201433, 0.0, 0.0], [-0.042630999999999, 5.642362, 0.0], [-2.303343, -1.805838, 5.617438]], "pbc": [true, true, true], "a": 5.201433, "b": 5.642523047467773, "c": 6.334196834780002, "alpha": 106.39978907089196, "beta": 111.32367360567812, "gamma": 90.43289138468822, "volume": 164.86263710610055}, "properties": {}, "sites": [{"species": [{"element": "W", "occu": 1}], "abc": [0.9984019999999991, 0.495903999999999, 0.998964], "properties": {"magmom": 1.948}, "label": "W", "xyz": [2.871023489989996, 0.9941027334159944, 5.611618334231999]}, {"species": [{"element": "W", "occu": 1}], "abc": [0.502046, 0.998513, 0.002855], "properties": {"magmom": 1.947}, "label": "W", "xyz": [2.5622149799500007, 5.628816140216, 0.016037785489999998]}, {"species": [{"element": "F", "occu": 1}], "abc": [0.155307, 0.164621, 0.861070999999999], "properties": {"magmom": 0.015}, "label": "F", "xyz": [-1.1825408632729975, -0.6261034576959982, 4.837012956097994]}, {"species": [{"element": "F", "occu": 1}], "abc": [0.331543, 0.506344999999999, 0.268602], "properties": {"magmom": 0.02}, "label": "F", "xyz": [1.0842301709380004, 2.3719300884139947, 1.508855081676]}, {"species": [{"element": "F", "occu": 1}], "abc": [0.844286, 0.828746, 0.141589], "properties": {"magmom": 0.014}, "label": "F", "xyz": [4.030038759085, 4.42039814147, 0.795367428982]}, {"species": [{"element": "F", "occu": 1}], "abc": [0.779883999999999, 0.33440000000000003, 0.146232], "properties": {"magmom": 0.014}, "label": "F", "xyz": [3.705436113795995, 1.6227345503840003, 0.821449193616]}, {"species": [{"element": "F", "occu": 1}], "abc": [0.677022, 0.5026200000000001, 0.726158], "properties": {"magmom": 0.019}, "label": "F", "xyz": [1.8274664331120005, 1.5246402780360004, 4.079147543204]}, {"species": [{"element": "F", "occu": 1}], "abc": [0.595245999999999, 0.008974, 0.736718], "properties": {"magmom": 0.019}, "label": "F", "xyz": [1.3988353686499948, -1.279758803096, 4.138467688484]}, {"species": [{"element": "F", "occu": 1}], "abc": [0.228, 0.66217, 0.861227], "properties": {"magmom": 0.015}, "label": "F", "xyz": [-0.8260034271309991, 2.1809664023140005, 4.837889276426]}, {"species": [{"element": "F", "occu": 1}], "abc": [0.403617, 0.002877, 0.269113999999999], "properties": {"magmom": 0.02}, "label": "F", "xyz": [1.4794022856720024, -0.46974321205799824, 1.5117312099319944]}]}, "task_ids": null, "uncorrected_energy_per_atom": null, "energy_per_atom": -6.748638250000001, "formation_energy_per_atom": -2.625930304, "energy_above_hull": 0.0, "is_stable": true, "equilibrium_reaction_energy_per_atom": null, "decomposes_to": null, "xas": null, "grain_boundaries": null, "band_gap": 1.165, "cbm": null, "vbm": null, "efermi": -0.11111252, "is_gap_direct": null, "is_metal": null, "es_source_calc_id": null, "bandstructure": null, "dos": null, "dos_energy_up": null, "dos_energy_down": null, "is_magnetic": null, "ordering": null, "total_magnetization": 3.9999941, "total_magnetization_normalized_vol": null, "total_magnetization_normalized_formula_units": null, "num_magnetic_sites": null, "num_unique_magnetic_sites": null, "types_of_magnetic_species": null, "bulk_modulus": null, "shear_modulus": null, "universal_anisotropy": null, "homogeneous_poisson": null, "e_total": null, "e_ionic": null, "e_electronic": null, "n": null, "e_ij_max": null, "weighted_surface_energy_EV_PER_ANG2": null, "weighted_surface_energy": null, "weighted_work_function": null, "surface_anisotropy": null, "shape_factor": null, "has_reconstructed": null, "possible_species": null, "has_props": null, "theoretical": null, "database_IDs": null, "fields_not_requested": ["builder_meta", "nsites", "elements", "nelements", "composition", "composition_reduced", "chemsys", "symmetry", "property_name", "deprecated", "deprecation_reasons", "last_updated", "origins", "warnings", "task_ids", "uncorrected_energy_per_atom", "equilibrium_reaction_energy_per_atom", "decomposes_to", "xas", "grain_boundaries", "cbm", "vbm", "is_gap_direct", "is_metal", "es_source_calc_id", "bandstructure", "dos", "dos_energy_up", "dos_energy_down", "is_magnetic", "ordering", "total_magnetization_normalized_vol", "total_magnetization_normalized_formula_units", "num_magnetic_sites", "num_unique_magnetic_sites", "types_of_magnetic_species", "bulk_modulus", "shear_modulus", "universal_anisotropy", "homogeneous_poisson", "e_total", "e_ionic", "e_electronic", "n", "e_ij_max", "weighted_surface_energy_EV_PER_ANG2", "weighted_surface_energy", "weighted_work_function", "surface_anisotropy", "shape_factor", "has_reconstructed", "possible_species", "has_props", "theoretical", "database_IDs"]}