{
  "builder_meta": null,
  "nsites": null,
  "elements": null,
  "nelements": null,
  "composition": null,
  "composition_reduced": null,
  "formula_pretty": "WF5",
  "formula_anonymous": "AB5",
  "chemsys": null,
  "volume": 356.27745050205067,
  "density": 5.198324563447736,
  "density_atomic": 14.844893770918778,
  "symmetry": null,
  "property_name": null,
  "material_id": "mp-1367785",
  "deprecated": null,
  "deprecation_reasons": null,
  "last_updated": null,
  "origins": null,
  "warnings": null,
  "structure": {
    "@module": "pymatgen.core.structure",
    "@class": "Structure",
    "charge": 0,
    "lattice": {
      "matrix": [
        [9.76532032, 0.0, 0.0],
        [0.0, 5.08568363, 0.18910239],
        [0.0, 2.83120708, 7.27912704]
      ],
      "pbc": [true, true, true],
      "a": 9.76532032,
      "b": 5.089198139034645,
      "c": 7.810340837268325,
      "alpha": 66.61705337997651,
      "beta": 90.0,
      "gamma": 90.0,
      "volume": 356.2774505020506
    },
    "properties": {},
    "sites": [
      {
        "species": [{ "element": "W", "occu": 1 }],
        "abc": [0.752758199999999, 0.12287227, 0.59915025],
        "properties": { "magmom": 0.793 },
        "label": "W",
        "xyz": [7.350924946506615, 2.32120792190371, 4.384526225719485]
      },
      {
        "species": [{ "element": "W", "occu": 1 }],
        "abc": [0.2527582, 0.87712773, 0.90084975],
        "properties": { "magmom": 0.793 },
        "label": "W",
        "xyz": [2.4682647865066243, 7.01128632809629, 6.723266724280514]
      },
      {
        "species": [{ "element": "W", "occu": 1 }],
        "abc": [0.247241799999999, 0.87712773, 0.40084975],
        "properties": { "magmom": 0.793 },
        "label": "W",
        "xyz": [2.4143953734933667, 5.5956827880962905, 3.0837032042805146]
      },
      {
        "species": [{ "element": "W", "occu": 1 }],
        "abc": [0.7472418, 0.12287227, 0.09915025],
        "properties": { "magmom": 0.793 },
        "label": "W",
        "xyz": [7.297055533493376, 0.9056043819037101, 0.7449627057194852]
      },
      {
        "species": [{ "element": "F", "occu": 1 }],
        "abc": [0.84902427, 0.46725653, 0.54923227],
        "properties": { "magmom": 0.059000000000000004 },
        "label": "F",
        "xyz": [8.290993956004167, 3.9313091770200757, 4.086290794363688]
      },
      {
        "species": [{ "element": "F", "occu": 1 }],
        "abc": [0.34902427, 0.53274347, 0.95076773],
        "properties": { "magmom": 0.059000000000000004 },
        "label": "F",
        "xyz": [3.408333796004167, 5.401185072979924, 7.021502155636313]
      },
      {
        "species": [{ "element": "F", "occu": 1 }],
        "abc": [0.15097573, 0.53274347, 0.45076773000000003],
        "properties": { "magmom": 0.059000000000000004 },
        "label": "F",
        "xyz": [1.4743263639958337, 3.985581532979925, 3.3819386356363124]
      },
      {
        "species": [{ "element": "F", "occu": 1 }],
        "abc": [0.65097573, 0.46725653, 0.04923227],
        "properties": { "magmom": 0.059000000000000004 },
        "label": "F",
        "xyz": [6.356986523995833, 2.5157056370200754, 0.44672727436368753]
      },
      {
        "species": [{ "element": "F", "occu": 1 }],
        "abc": [0.60200555, 0.33672335000000003, 0.48203956000000003],
        "properties": { "magmom": 0.002 },
        "label": "F",
        "xyz": [5.878777030167776, 3.0772222440458457, 3.572502385799509]
      },
      {
        "species": [{ "element": "F", "occu": 1 }],
        "abc": [0.10200555, 0.66327665, 0.01796044],
        "properties": { "magmom": 0.002 },
        "label": "F",
        "xyz": [0.9961168701677761, 3.424064925954155, 0.25616352420049116]
      },
      {
        "species": [{ "element": "F", "occu": 1 }],
        "abc": [0.39799445, 0.66327665, 0.51796044],
        "properties": { "magmom": 0.002 },
        "label": "F",
        "xyz": [3.886543289832224, 4.839668465954155, 3.8957270442004908]
      },
      {
        "species": [{ "element": "F", "occu": 1 }],
        "abc": [0.89799445, 0.33672335000000003, 0.98203956],
        "properties": { "magmom": 0.002 },
        "label": "F",
        "xyz": [8.769203449832224, 4.492825784045846, 7.212065905799509]
      },
      {
        "species": [{ "element": "F", "occu": 1 }],
        "abc": [0.41147648000000003, 0.08589729, 0.80775534],
        "properties": { "magmom": 0.004 },
        "label": "F",
        "xyz": [4.018199631346074, 2.72376907913017, 5.895997119931917]
      },
      {
        "species": [{ "element": "F", "occu": 1 }],
        "abc": [0.91147648, 0.91410271, 0.6922446600000001],
        "properties": { "magmom": 0.004 },
        "label": "F",
        "xyz": [8.900859791346075, 6.60872517086983, 5.211795830068084]
      },
      {
        "species": [{ "element": "F", "occu": 1 }],
        "abc": [0.58852352, 0.91410271, 0.19224466],
        "properties": { "magmom": 0.004 },
        "label": "F",
        "xyz": [5.747120688653927, 5.19312163086983, 1.5722323100680833]
      },
      {
        "species": [{ "element": "F", "occu": 1 }],
        "abc": [0.08852352000000001, 0.08589729, 0.30775534],
        "properties": { "magmom": 0.004 },
        "label": "F",
        "xyz": [0.8644605286539265, 1.3081655391301699, 2.2564335999319165]
      },
      {
        "species": [{ "element": "F", "occu": 1 }],
        "abc": [0.15716323000000001, 0.22476638000000002, 0.84182667],
        "properties": { "magmom": 0.054 },
        "label": "F",
        "xyz": [1.5347492834758338, 3.526476327577183, 6.170267136239805]
      },
      {
        "species": [{ "element": "F", "occu": 1 }],
        "abc": [0.65716323, 0.7752336200000001, 0.65817333],
        "properties": { "magmom": 0.054 },
        "label": "F",
        "xyz": [6.417409443475834, 5.806017922422818, 4.937525813760195]
      },
      {
        "species": [{ "element": "F", "occu": 1 }],
        "abc": [0.84283677, 0.7752336200000001, 0.15817333],
        "properties": { "magmom": 0.054 },
        "label": "F",
        "xyz": [8.230571036524168, 4.390414382422818, 1.2979622937601951]
      },
      {
        "species": [{ "element": "F", "occu": 1 }],
        "abc": [0.34283677, 0.22476638000000002, 0.34182667],
        "properties": { "magmom": 0.054 },
        "label": "F",
        "xyz": [3.3479108765241667, 2.110872787577183, 2.530703616239805]
      },
      {
        "species": [{ "element": "F", "occu": 1 }],
        "abc": [0.70285195, 0.11726238, 0.84806874],
        "properties": { "magmom": 0.002 },
        "label": "F",
        "xyz": [6.863574429286625, 2.997417587395519, 6.1953746934278175]
      },
      {
        "species": [{ "element": "F", "occu": 1 }],
        "abc": [0.20285195, 0.88273762, 0.65193126],
        "properties": { "magmom": 0.002 },
        "label": "F",
        "xyz": [1.9809142692866242, 6.335076662604482, 4.912418256572182]
      },
      {
        "species": [{ "element": "F", "occu": 1 }],
        "abc": [0.29714805, 0.88273762, 0.15193126],
        "properties": { "magmom": 0.002 },
        "label": "F",
        "xyz": [2.901745890713376, 4.919473122604482, 1.2728547365721823]
      },
      {
        "species": [{ "element": "F", "occu": 1 }],
        "abc": [0.79714805, 0.11726238, 0.34806874],
        "properties": { "magmom": 0.002 },
        "label": "F",
        "xyz": [7.784406050713376, 1.5818140473955187, 2.5558111734278177]
      }
    ]
  },
  "task_ids": null,
  "uncorrected_energy_per_atom": null,
  "energy_per_atom": -6.471980162499999,
  "formation_energy_per_atom": -2.717414811666666,
  "energy_above_hull": 0.015529094583333002,
  "is_stable": false,
  "equilibrium_reaction_energy_per_atom": null,
  "decomposes_to": null,
  "xas": null,
  "grain_boundaries": null,
  "band_gap": 2.9429,
  "cbm": null,
  "vbm": null,
  "efermi": -2.8477967,
  "is_gap_direct": null,
  "is_metal": null,
  "es_source_calc_id": null,
  "bandstructure": null,
  "dos": null,
  "dos_energy_up": null,
  "dos_energy_down": null,
  "is_magnetic": null,
  "ordering": null,
  "total_magnetization": 4.0,
  "total_magnetization_normalized_vol": null,
  "total_magnetization_normalized_formula_units": null,
  "num_magnetic_sites": null,
  "num_unique_magnetic_sites": null,
  "types_of_magnetic_species": null,
  "bulk_modulus": null,
  "shear_modulus": null,
  "universal_anisotropy": null,
  "homogeneous_poisson": null,
  "e_total": null,
  "e_ionic": null,
  "e_electronic": null,
  "n": null,
  "e_ij_max": null,
  "weighted_surface_energy_EV_PER_ANG2": null,
  "weighted_surface_energy": null,
  "weighted_work_function": null,
  "surface_anisotropy": null,
  "shape_factor": null,
  "has_reconstructed": null,
  "possible_species": null,
  "has_props": null,
  "theoretical": null,
  "database_IDs": null,
  "fields_not_requested": [
    "builder_meta",
    "nsites",
    "elements",
    "nelements",
    "composition",
    "composition_reduced",
    "chemsys",
    "symmetry",
    "property_name",
    "deprecated",
    "deprecation_reasons",
    "last_updated",
    "origins",
    "warnings",
    "task_ids",
    "uncorrected_energy_per_atom",
    "equilibrium_reaction_energy_per_atom",
    "decomposes_to",
    "xas",
    "grain_boundaries",
    "cbm",
    "vbm",
    "is_gap_direct",
    "is_metal",
    "es_source_calc_id",
    "bandstructure",
    "dos",
    "dos_energy_up",
    "dos_energy_down",
    "is_magnetic",
    "ordering",
    "total_magnetization_normalized_vol",
    "total_magnetization_normalized_formula_units",
    "num_magnetic_sites",
    "num_unique_magnetic_sites",
    "types_of_magnetic_species",
    "bulk_modulus",
    "shear_modulus",
    "universal_anisotropy",
    "homogeneous_poisson",
    "e_total",
    "e_ionic",
    "e_electronic",
    "n",
    "e_ij_max",
    "weighted_surface_energy_EV_PER_ANG2",
    "weighted_surface_energy",
    "weighted_work_function",
    "surface_anisotropy",
    "shape_factor",
    "has_reconstructed",
    "possible_species",
    "has_props",
    "theoretical",
    "database_IDs"
  ]
}
