{
  "builder_meta": null,
  "nsites": null,
  "elements": null,
  "nelements": null,
  "composition": null,
  "composition_reduced": null,
  "formula_pretty": "WF6",
  "formula_anonymous": "AB6",
  "chemsys": null,
  "volume": 397.67258657392847,
  "density": 4.974534961680239,
  "density_atomic": 14.202592377640302,
  "symmetry": null,
  "property_name": null,
  "material_id": "mp-555003",
  "deprecated": null,
  "deprecation_reasons": null,
  "last_updated": null,
  "origins": null,
  "warnings": null,
  "structure": {
    "@module": "pymatgen.core.structure",
    "@class": "Structure",
    "charge": 0,
    "lattice": {
      "matrix": [
        [4.96240744, 0.0, 0.0],
        [-0.0, 8.53872035, 0.0],
        [0.0, 0.0, 9.38513328]
      ],
      "pbc": [true, true, true],
      "a": 4.96240744,
      "b": 8.53872035,
      "c": 9.38513328,
      "alpha": 90.0,
      "beta": 90.0,
      "gamma": 90.0,
      "volume": 397.67258657392847
    },
    "properties": {},
    "sites": [
      {
        "species": [{ "element": "W", "occu": 1 }],
        "abc": [0.58300955, 0.75, 0.6278671100000001],
        "properties": { "magmom": -0.0 },
        "label": "W",
        "xyz": [2.893130928511052, 6.404040262500001, 5.8926165094784215]
      },
      {
        "species": [{ "element": "W", "occu": 1 }],
        "abc": [0.08300955, 0.25, 0.87213289],
        "properties": { "magmom": -0.0 },
        "label": "W",
        "xyz": [0.41192720851105197, 2.1346800875, 8.18508341052158]
      },
      {
        "species": [{ "element": "W", "occu": 1 }],
        "abc": [0.41699045, 0.25, 0.37213289],
        "properties": { "magmom": -0.0 },
        "label": "W",
        "xyz": [2.069276511488948, 2.1346800875, 3.492516770521579]
      },
      {
        "species": [{ "element": "W", "occu": 1 }],
        "abc": [0.91699045, 0.75, 0.12786711],
        "properties": { "magmom": -0.0 },
        "label": "W",
        "xyz": [4.550480231488947, 6.404040262500001, 1.2000498694784207]
      },
      {
        "species": [{ "element": "F", "occu": 1 }],
        "abc": [0.57076005, 0.40337516, 0.25913525],
        "properties": { "magmom": 0.0 },
        "label": "F",
        "xyz": [2.8323439185747716, 3.444307687376506, 2.43201885879612]
      },
      {
        "species": [{ "element": "F", "occu": 1 }],
        "abc": [0.07076005, 0.59662484, 0.24086475000000002],
        "properties": { "magmom": 0.0 },
        "label": "F",
        "xyz": [0.351140198574772, 5.094412662623495, 2.26054778120388]
      },
      {
        "species": [{ "element": "F", "occu": 1 }],
        "abc": [0.42923995, 0.9033751600000001, 0.74086475],
        "properties": { "magmom": 0.0 },
        "label": "F",
        "xyz": [2.1300635214252277, 7.713667862376507, 6.953114421203879]
      },
      {
        "species": [{ "element": "F", "occu": 1 }],
        "abc": [0.92923995, 0.09662484, 0.75913525],
        "properties": { "magmom": 0.0 },
        "label": "F",
        "xyz": [4.611267241425228, 0.825052487623494, 7.124585498796121]
      },
      {
        "species": [{ "element": "F", "occu": 1 }],
        "abc": [0.21922521, 0.75, 0.012244930000000001],
        "properties": { "magmom": -0.0 },
        "label": "F",
        "xyz": [1.0878848131395624, 6.404040262500001, 0.11492030005427041]
      },
      {
        "species": [{ "element": "F", "occu": 1 }],
        "abc": [0.7192252100000001, 0.25, 0.48775507],
        "properties": { "magmom": -0.0 },
        "label": "F",
        "xyz": [3.5690885331395625, 2.1346800875, 4.57764633994573]
      },
      {
        "species": [{ "element": "F", "occu": 1 }],
        "abc": [0.78077479, 0.25, 0.9877550700000001],
        "properties": { "magmom": -0.0 },
        "label": "F",
        "xyz": [3.8745226268604376, 2.1346800875, 9.27021297994573]
      },
      {
        "species": [{ "element": "F", "occu": 1 }],
        "abc": [0.28077479, 0.75, 0.51224493],
        "properties": { "magmom": -0.0 },
        "label": "F",
        "xyz": [1.3933189068604375, 6.404040262500001, 4.807486940054271]
      },
      {
        "species": [{ "element": "F", "occu": 1 }],
        "abc": [0.61440494, 0.75, 0.24377173],
        "properties": { "magmom": 0.0 },
        "label": "F",
        "xyz": [3.0489276454287535, 6.404040262500001, 2.287830175946174]
      },
      {
        "species": [{ "element": "F", "occu": 1 }],
        "abc": [0.11440494, 0.25, 0.25622827],
        "properties": { "magmom": 0.0 },
        "label": "F",
        "xyz": [0.5677239254287536, 2.1346800875, 2.4047364640538254]
      },
      {
        "species": [{ "element": "F", "occu": 1 }],
        "abc": [0.38559506, 0.25, 0.75622827],
        "properties": { "magmom": 0.0 },
        "label": "F",
        "xyz": [1.9134797945712463, 2.1346800875, 7.097303104053826]
      },
      {
        "species": [{ "element": "F", "occu": 1 }],
        "abc": [0.88559506, 0.75, 0.74377173],
        "properties": { "magmom": 0.0 },
        "label": "F",
        "xyz": [4.394683514571246, 6.404040262500001, 6.980396815946174]
      },
      {
        "species": [{ "element": "F", "occu": 1 }],
        "abc": [0.76132352, 0.90273007, 0.01443703],
        "properties": { "magmom": -0.0 },
        "label": "F",
        "xyz": [3.777997499894989, 7.708159619265925, 0.1354934507173584]
      },
      {
        "species": [{ "element": "F", "occu": 1 }],
        "abc": [0.26132352000000003, 0.09726993, 0.48556297],
        "properties": { "magmom": -0.0 },
        "label": "F",
        "xyz": [1.296793779894989, 0.8305607307340755, 4.557073189282641]
      },
      {
        "species": [{ "element": "F", "occu": 1 }],
        "abc": [0.23867648, 0.40273007, 0.98556297],
        "properties": { "magmom": -0.0 },
        "label": "F",
        "xyz": [1.1844099401050112, 3.4387994442659244, 9.249639829282641]
      },
      {
        "species": [{ "element": "F", "occu": 1 }],
        "abc": [0.73867648, 0.5972699300000001, 0.51443703],
        "properties": { "magmom": -0.0 },
        "label": "F",
        "xyz": [3.6656136601050107, 5.099920905734076, 4.828060090717358]
      },
      {
        "species": [{ "element": "F", "occu": 1 }],
        "abc": [0.23867648, 0.09726993, 0.98556297],
        "properties": { "magmom": -0.0 },
        "label": "F",
        "xyz": [1.1844099401050112, 0.8305607307340755, 9.249639829282641]
      },
      {
        "species": [{ "element": "F", "occu": 1 }],
        "abc": [0.73867648, 0.90273007, 0.51443703],
        "properties": { "magmom": -0.0 },
        "label": "F",
        "xyz": [3.6656136601050107, 7.708159619265925, 4.828060090717358]
      },
      {
        "species": [{ "element": "F", "occu": 1 }],
        "abc": [0.76132352, 0.5972699300000001, 0.01443703],
        "properties": { "magmom": -0.0 },
        "label": "F",
        "xyz": [3.777997499894989, 5.099920905734076, 0.1354934507173584]
      },
      {
        "species": [{ "element": "F", "occu": 1 }],
        "abc": [0.26132352000000003, 0.40273007, 0.48556297],
        "properties": { "magmom": -0.0 },
        "label": "F",
        "xyz": [1.296793779894989, 3.4387994442659244, 4.557073189282641]
      },
      {
        "species": [{ "element": "F", "occu": 1 }],
        "abc": [0.07076005, 0.9033751600000001, 0.24086475000000002],
        "properties": { "magmom": 0.0 },
        "label": "F",
        "xyz": [0.351140198574772, 7.713667862376507, 2.26054778120388]
      },
      {
        "species": [{ "element": "F", "occu": 1 }],
        "abc": [0.57076005, 0.09662484, 0.25913525],
        "properties": { "magmom": 0.0 },
        "label": "F",
        "xyz": [2.8323439185747716, 0.825052487623494, 2.43201885879612]
      },
      {
        "species": [{ "element": "F", "occu": 1 }],
        "abc": [0.92923995, 0.40337516, 0.75913525],
        "properties": { "magmom": 0.0 },
        "label": "F",
        "xyz": [4.611267241425228, 3.444307687376506, 7.124585498796121]
      },
      {
        "species": [{ "element": "F", "occu": 1 }],
        "abc": [0.42923995, 0.59662484, 0.74086475],
        "properties": { "magmom": 0.0 },
        "label": "F",
        "xyz": [2.1300635214252277, 5.094412662623495, 6.953114421203879]
      }
    ]
  },
  "task_ids": null,
  "uncorrected_energy_per_atom": null,
  "energy_per_atom": -6.300988547857143,
  "formation_energy_per_atom": -2.809382193571428,
  "energy_above_hull": 0.0,
  "is_stable": true,
  "equilibrium_reaction_energy_per_atom": null,
  "decomposes_to": null,
  "xas": null,
  "grain_boundaries": null,
  "band_gap": 5.3735,
  "cbm": null,
  "vbm": null,
  "efermi": -4.98716636,
  "is_gap_direct": null,
  "is_metal": null,
  "es_source_calc_id": null,
  "bandstructure": null,
  "dos": null,
  "dos_energy_up": null,
  "dos_energy_down": null,
  "is_magnetic": null,
  "ordering": null,
  "total_magnetization": 0.0,
  "total_magnetization_normalized_vol": null,
  "total_magnetization_normalized_formula_units": null,
  "num_magnetic_sites": null,
  "num_unique_magnetic_sites": null,
  "types_of_magnetic_species": null,
  "bulk_modulus": null,
  "shear_modulus": null,
  "universal_anisotropy": null,
  "homogeneous_poisson": null,
  "e_total": null,
  "e_ionic": null,
  "e_electronic": null,
  "n": null,
  "e_ij_max": null,
  "weighted_surface_energy_EV_PER_ANG2": null,
  "weighted_surface_energy": null,
  "weighted_work_function": null,
  "surface_anisotropy": null,
  "shape_factor": null,
  "has_reconstructed": null,
  "possible_species": null,
  "has_props": null,
  "theoretical": null,
  "database_IDs": null,
  "fields_not_requested": [
    "builder_meta",
    "nsites",
    "elements",
    "nelements",
    "composition",
    "composition_reduced",
    "chemsys",
    "symmetry",
    "property_name",
    "deprecated",
    "deprecation_reasons",
    "last_updated",
    "origins",
    "warnings",
    "task_ids",
    "uncorrected_energy_per_atom",
    "equilibrium_reaction_energy_per_atom",
    "decomposes_to",
    "xas",
    "grain_boundaries",
    "cbm",
    "vbm",
    "is_gap_direct",
    "is_metal",
    "es_source_calc_id",
    "bandstructure",
    "dos",
    "dos_energy_up",
    "dos_energy_down",
    "is_magnetic",
    "ordering",
    "total_magnetization_normalized_vol",
    "total_magnetization_normalized_formula_units",
    "num_magnetic_sites",
    "num_unique_magnetic_sites",
    "types_of_magnetic_species",
    "bulk_modulus",
    "shear_modulus",
    "universal_anisotropy",
    "homogeneous_poisson",
    "e_total",
    "e_ionic",
    "e_electronic",
    "n",
    "e_ij_max",
    "weighted_surface_energy_EV_PER_ANG2",
    "weighted_surface_energy",
    "weighted_work_function",
    "surface_anisotropy",
    "shape_factor",
    "has_reconstructed",
    "possible_species",
    "has_props",
    "theoretical",
    "database_IDs"
  ]
}
