{"builder_meta": null, "nsites": null, "elements": null, "nelements": null, "composition": null, "composition_reduced": null, "formula_pretty": "WI3", "formula_anonymous": "AB3", "chemsys": null, "volume": 4106.832391676777, "density": 5.478458742385583, "density_atomic": 42.77950407996642, "symmetry": null, "property_name": null, "material_id": "mp-1196036", "deprecated": null, "deprecation_reasons": null, "last_updated": null, "origins": null, "warnings": null, "structure": {"@module": "pymatgen.core.structure", "@class": "Structure", "charge": 0, "lattice": {"matrix": [[12.650461, 0.0, 0.0], [0.0, 12.650461, 0.0], [0.0, 0.0, 25.662223]], "pbc": [true, true, true], "a": 12.650461, "b": 12.650461, "c": 25.662223, "alpha": 90.0, "beta": 90.0, "gamma": 90.0, "volume": 4106.832391676777}, "properties": {}, "sites": [{"species": [{"element": "W", "occu": 1}], "abc": [0.824504, 0.228132, 0.489567], "properties": {"magmom": -0.001}, "label": "W", "xyz": [10.430355696344, 2.885974968852, 12.563377527441]}, {"species": [{"element": "W", "occu": 1}], "abc": [0.17549599999999901, 0.771868, 0.989567], "properties": {"magmom": -0.001}, "label": "W", "xyz": [2.2201053036559877, 9.764486031148, 25.394489027441]}, {"species": [{"element": "W", "occu": 1}], "abc": [0.728132, 0.675496, 0.239567], "properties": {"magmom": -0.001}, "label": "W", "xyz": [9.211205468852, 8.545335803656, 6.147821777441]}, {"species": [{"element": "W", "occu": 1}], "abc": [0.271868, 0.324503999999999, 0.739567], "properties": {"magmom": -0.001}, "label": "W", "xyz": [3.439255531148, 4.105125196343987, 18.978933277441]}, {"species": [{"element": "W", "occu": 1}], "abc": [0.771868, 0.17549599999999901, 0.010433], "properties": {"magmom": -0.001}, "label": "W", "xyz": [9.764486031148, 2.2201053036559877, 0.267733972559]}, {"species": [{"element": "W", "occu": 1}], "abc": [0.228132, 0.824504, 0.510433], "properties": {"magmom": -0.001}, "label": "W", "xyz": [2.885974968852, 10.430355696344, 13.098845472559]}, {"species": [{"element": "W", "occu": 1}], "abc": [0.675496, 0.728132, 0.760432999999999], "properties": {"magmom": -0.001}, "label": "W", "xyz": [8.545335803656, 9.211205468852, 19.514401222558977]}, {"species": [{"element": "W", "occu": 1}], "abc": [0.324503999999999, 0.271868, 0.260432999999999], "properties": {"magmom": -0.001}, "label": "W", "xyz": [4.105125196343987, 3.439255531148, 6.683289722558976]}, {"species": [{"element": "W", "occu": 1}], "abc": [0.8251200000000001, 0.424226, 0.489994], "properties": {"magmom": -0.0}, "label": "W", "xyz": [10.438148380320001, 5.366654468186, 12.574335296662]}, {"species": [{"element": "W", "occu": 1}], "abc": [0.17488, 0.575774, 0.989993999999999], "properties": {"magmom": -0.0}, "label": "W", "xyz": [2.21231261968, 7.283806531814, 25.405446796661977]}, {"species": [{"element": "W", "occu": 1}], "abc": [0.924226, 0.67488, 0.239993999999999], "properties": {"magmom": -0.0}, "label": "W", "xyz": [11.691884968186, 8.53754311968, 6.158779546661975]}, {"species": [{"element": "W", "occu": 1}], "abc": [0.075774, 0.32512, 0.739993999999999], "properties": {"magmom": -0.0}, "label": "W", "xyz": [0.958576031814, 4.11291788032, 18.989891046661977]}, {"species": [{"element": "W", "occu": 1}], "abc": [0.575774, 0.17488, 0.010006], "properties": {"magmom": -0.0}, "label": "W", "xyz": [7.283806531814, 2.21231261968, 0.256776203338]}, {"species": [{"element": "W", "occu": 1}], "abc": [0.424226, 0.8251200000000001, 0.510006], "properties": {"magmom": -0.0}, "label": "W", "xyz": [5.366654468186, 10.438148380320001, 13.087887703338]}, {"species": [{"element": "W", "occu": 1}], "abc": [0.67488, 0.924226, 0.760006], "properties": {"magmom": -0.0}, "label": "W", "xyz": [8.53754311968, 11.691884968186, 19.503443453338]}, {"species": [{"element": "W", "occu": 1}], "abc": [0.32512, 0.075774, 0.260006], "properties": {"magmom": -0.0}, "label": "W", "xyz": [4.11291788032, 0.958576031814, 6.672331953338]}, {"species": [{"element": "W", "occu": 1}], "abc": [0.836885, 0.3269, 0.572585999999999], "properties": {"magmom": -0.0}, "label": "W", "xyz": [10.586981053985, 4.1354357009000005, 14.693829618677976]}, {"species": [{"element": "W", "occu": 1}], "abc": [0.163114999999999, 0.6731, 0.072586], "properties": {"magmom": -0.0}, "label": "W", "xyz": [2.0634799460149873, 8.5150252991, 1.862718118678]}, {"species": [{"element": "W", "occu": 1}], "abc": [0.8269000000000001, 0.663115, 0.322586], "properties": {"magmom": -0.0}, "label": "W", "xyz": [10.4606662009, 8.388710446015, 8.278273868678]}, {"species": [{"element": "W", "occu": 1}], "abc": [0.1731, 0.336885, 0.822585999999999], "properties": {"magmom": -0.0}, "label": "W", "xyz": [2.1897947991, 4.261750553985, 21.109385368677977]}, {"species": [{"element": "W", "occu": 1}], "abc": [0.6731, 0.163114999999999, 0.927414], "properties": {"magmom": -0.0}, "label": "W", "xyz": [8.5150252991, 2.0634799460149873, 23.799504881322]}, {"species": [{"element": "W", "occu": 1}], "abc": [0.3269, 0.836885, 0.427413999999999], "properties": {"magmom": -0.0}, "label": "W", "xyz": [4.1354357009000005, 10.586981053985, 10.968393381321976]}, {"species": [{"element": "W", "occu": 1}], "abc": [0.663115, 0.8269000000000001, 0.677414], "properties": {"magmom": -0.0}, "label": "W", "xyz": [8.388710446015, 10.4606662009, 17.383949131321998]}, {"species": [{"element": "W", "occu": 1}], "abc": [0.336885, 0.1731, 0.177414], "properties": {"magmom": -0.0}, "label": "W", "xyz": [4.261750553985, 2.1897947991, 4.552837631322]}, {"species": [{"element": "I", "occu": 1}], "abc": [0.658270999999999, 0.327023, 0.437125999999999], "properties": {"magmom": -0.0}, "label": "I", "xyz": [8.327431612930988, 4.136991707603, 11.217624891097975]}, {"species": [{"element": "I", "occu": 1}], "abc": [0.341729, 0.672976999999999, 0.9371259999999991], "properties": {"magmom": -0.0}, "label": "I", "xyz": [4.323029387069, 8.513469292396987, 24.04873639109798]}, {"species": [{"element": "I", "occu": 1}], "abc": [0.827023, 0.841729, 0.187126], "properties": {"magmom": -0.0}, "label": "I", "xyz": [10.462222207602998, 10.648259887068999, 4.802069141097999]}, {"species": [{"element": "I", "occu": 1}], "abc": [0.172977, 0.158271, 0.687126], "properties": {"magmom": -0.0}, "label": "I", "xyz": [2.1882387923969997, 2.002201112931, 17.633180641098]}, {"species": [{"element": "I", "occu": 1}], "abc": [0.672976999999999, 0.341729, 0.062874], "properties": {"magmom": -0.0}, "label": "I", "xyz": [8.513469292396987, 4.323029387069, 1.6134866089020001]}, {"species": [{"element": "I", "occu": 1}], "abc": [0.327023, 0.658270999999999, 0.562874], "properties": {"magmom": -0.0}, "label": "I", "xyz": [4.136991707603, 8.327431612930988, 14.444598108902]}, {"species": [{"element": "I", "occu": 1}], "abc": [0.841729, 0.827023, 0.812874], "properties": {"magmom": -0.0}, "label": "I", "xyz": [10.648259887068999, 10.462222207602998, 20.860153858902]}, {"species": [{"element": "I", "occu": 1}], "abc": [0.158271, 0.172977, 0.312874], "properties": {"magmom": -0.0}, "label": "I", "xyz": [2.002201112931, 2.1882387923969997, 8.029042358902]}, {"species": [{"element": "I", "occu": 1}], "abc": [0.679082, 0.480338999999999, 0.566643], "properties": {"magmom": -0.0}, "label": "I", "xyz": [8.590700356802, 6.076509786278987, 14.541319027389001]}, {"species": [{"element": "I", "occu": 1}], "abc": [0.320918, 0.519660999999999, 0.066643], "properties": {"magmom": -0.0}, "label": "I", "xyz": [4.059760643198, 6.573951213720988, 1.7102075273889998]}, {"species": [{"element": "I", "occu": 1}], "abc": [0.980339, 0.820917999999999, 0.316643], "properties": {"magmom": -0.0}, "label": "I", "xyz": [12.401740286278999, 10.384991143197988, 8.125763277389]}, {"species": [{"element": "I", "occu": 1}], "abc": [0.019660999999999002, 0.179082, 0.816643], "properties": {"magmom": -0.0}, "label": "I", "xyz": [0.24872071372098736, 2.265469856802, 20.956874777389]}, {"species": [{"element": "I", "occu": 1}], "abc": [0.519660999999999, 0.320918, 0.933357], "properties": {"magmom": -0.0}, "label": "I", "xyz": [6.573951213720988, 4.059760643198, 23.952015472611002]}, {"species": [{"element": "I", "occu": 1}], "abc": [0.480338999999999, 0.679082, 0.433357], "properties": {"magmom": -0.0}, "label": "I", "xyz": [6.076509786278987, 8.590700356802, 11.120903972611]}, {"species": [{"element": "I", "occu": 1}], "abc": [0.820917999999999, 0.980339, 0.683357], "properties": {"magmom": -0.0}, "label": "I", "xyz": [10.384991143197988, 12.401740286278999, 17.536459722611]}, {"species": [{"element": "I", "occu": 1}], "abc": [0.179082, 0.019660999999999002, 0.183357], "properties": {"magmom": -0.0}, "label": "I", "xyz": [2.265469856802, 0.24872071372098736, 4.705348222611]}, {"species": [{"element": "I", "occu": 1}], "abc": [0.679732, 0.173041, 0.567028], "properties": {"magmom": -0.0}, "label": "I", "xyz": [8.598923156452, 2.189048421901, 14.551198983244]}, {"species": [{"element": "I", "occu": 1}], "abc": [0.320268, 0.826959, 0.067027999999999], "properties": {"magmom": -0.0}, "label": "I", "xyz": [4.051537843548, 10.461412578099, 1.7200874832439745]}, {"species": [{"element": "I", "occu": 1}], "abc": [0.673041, 0.820268, 0.317028], "properties": {"magmom": -0.0}, "label": "I", "xyz": [8.514278921900999, 10.376768343548, 8.135643233244]}, {"species": [{"element": "I", "occu": 1}], "abc": [0.326959, 0.179732, 0.817028], "properties": {"magmom": -0.0}, "label": "I", "xyz": [4.136182078099, 2.273692656452, 20.966754733244]}, {"species": [{"element": "I", "occu": 1}], "abc": [0.826959, 0.320268, 0.932971999999999], "properties": {"magmom": -0.0}, "label": "I", "xyz": [10.461412578099, 4.051537843548, 23.942135516755975]}, {"species": [{"element": "I", "occu": 1}], "abc": [0.173041, 0.679732, 0.432971999999999], "properties": {"magmom": -0.0}, "label": "I", "xyz": [2.189048421901, 8.598923156452, 11.111024016755975]}, {"species": [{"element": "I", "occu": 1}], "abc": [0.820268, 0.673041, 0.682972], "properties": {"magmom": -0.0}, "label": "I", "xyz": [10.376768343548, 8.514278921900999, 17.526579766756]}, {"species": [{"element": "I", "occu": 1}], "abc": [0.179732, 0.326959, 0.182972], "properties": {"magmom": -0.0}, "label": "I", "xyz": [2.273692656452, 4.136182078099, 4.695468266756]}, {"species": [{"element": "I", "occu": 1}], "abc": [0.975974, 0.325607, 0.426987], "properties": {"magmom": -0.0}, "label": "I", "xyz": [12.346521024014, 4.119078654827, 10.957435612101001]}, {"species": [{"element": "I", "occu": 1}], "abc": [0.024026, 0.674393, 0.926987], "properties": {"magmom": -0.0}, "label": "I", "xyz": [0.303939975986, 8.531382345173, 23.788547112101]}, {"species": [{"element": "I", "occu": 1}], "abc": [0.825607, 0.524026, 0.176987], "properties": {"magmom": -0.0}, "label": "I", "xyz": [10.444309154827, 6.629170475986, 4.541879862101]}, {"species": [{"element": "I", "occu": 1}], "abc": [0.174393, 0.47597399999999906, 0.676987], "properties": {"magmom": -0.0}, "label": "I", "xyz": [2.206151845173, 6.021290524013988, 17.372991362101]}, {"species": [{"element": "I", "occu": 1}], "abc": [0.674393, 0.024026, 0.073013], "properties": {"magmom": -0.0}, "label": "I", "xyz": [8.531382345173, 0.303939975986, 1.8736758878989999]}, {"species": [{"element": "I", "occu": 1}], "abc": [0.325607, 0.975974, 0.573013], "properties": {"magmom": -0.0}, "label": "I", "xyz": [4.119078654827, 12.346521024014, 14.704787387899]}, {"species": [{"element": "I", "occu": 1}], "abc": [0.524026, 0.825607, 0.823013], "properties": {"magmom": -0.0}, "label": "I", "xyz": [6.629170475986, 10.444309154827, 21.120343137899]}, {"species": [{"element": "I", "occu": 1}], "abc": [0.47597399999999906, 0.174393, 0.323013], "properties": {"magmom": -0.0}, "label": "I", "xyz": [6.021290524013988, 2.206151845173, 8.289231637899]}, {"species": [{"element": "I", "occu": 1}], "abc": [0.9896959999999991, 0.48196000000000006, 0.555995999999999], "properties": {"magmom": -0.0}, "label": "I", "xyz": [12.520110649855988, 6.097016183560001, 14.268093339107976]}, {"species": [{"element": "I", "occu": 1}], "abc": [0.010303999999999001, 0.5180400000000001, 0.055996], "properties": {"magmom": -0.0}, "label": "I", "xyz": [0.13035035014398738, 6.553444816440001, 1.436981839108]}, {"species": [{"element": "I", "occu": 1}], "abc": [0.98196, 0.510304, 0.305996], "properties": {"magmom": -0.0}, "label": "I", "xyz": [12.422246683560001, 6.455580850144, 7.852537589108]}, {"species": [{"element": "I", "occu": 1}], "abc": [0.01804, 0.489695999999999, 0.805995999999999], "properties": {"magmom": -0.0}, "label": "I", "xyz": [0.22821431644, 6.194880149855988, 20.683649089107977]}, {"species": [{"element": "I", "occu": 1}], "abc": [0.5180400000000001, 0.010303999999999001, 0.944004], "properties": {"magmom": -0.0}, "label": "I", "xyz": [6.553444816440001, 0.13035035014398738, 24.225241160892]}, {"species": [{"element": "I", "occu": 1}], "abc": [0.48196000000000006, 0.9896959999999991, 0.444003999999999], "properties": {"magmom": -0.0}, "label": "I", "xyz": [6.097016183560001, 12.520110649855988, 11.394129660891975]}, {"species": [{"element": "I", "occu": 1}], "abc": [0.510304, 0.98196, 0.694004], "properties": {"magmom": -0.0}, "label": "I", "xyz": [6.455580850144, 12.422246683560001, 17.809685410891998]}, {"species": [{"element": "I", "occu": 1}], "abc": [0.489695999999999, 0.01804, 0.194003999999999], "properties": {"magmom": -0.0}, "label": "I", "xyz": [6.194880149855988, 0.22821431644, 4.978573910891975]}, {"species": [{"element": "I", "occu": 1}], "abc": [0.9891319999999991, 0.170895, 0.556080999999999], "properties": {"magmom": -0.0}, "label": "I", "xyz": [12.512975789851989, 2.161900532595, 14.270274628062976]}, {"species": [{"element": "I", "occu": 1}], "abc": [0.010868, 0.829105, 0.056081], "properties": {"magmom": -0.0}, "label": "I", "xyz": [0.137485210148, 10.488560467405, 1.439163128063]}, {"species": [{"element": "I", "occu": 1}], "abc": [0.670895, 0.510868, 0.306081], "properties": {"magmom": -0.0}, "label": "I", "xyz": [8.487131032595, 6.462715710148, 7.854718878063]}, {"species": [{"element": "I", "occu": 1}], "abc": [0.329105, 0.489131999999999, 0.806080999999999], "properties": {"magmom": -0.0}, "label": "I", "xyz": [4.163329967405, 6.187745289851987, 20.685830378062978]}, {"species": [{"element": "I", "occu": 1}], "abc": [0.829105, 0.010868, 0.943919], "properties": {"magmom": -0.0}, "label": "I", "xyz": [10.488560467405, 0.137485210148, 24.223059871937]}, {"species": [{"element": "I", "occu": 1}], "abc": [0.170895, 0.9891319999999991, 0.443918999999999], "properties": {"magmom": -0.0}, "label": "I", "xyz": [2.161900532595, 12.512975789851989, 11.391948371936975]}, {"species": [{"element": "I", "occu": 1}], "abc": [0.510868, 0.670895, 0.693919], "properties": {"magmom": -0.0}, "label": "I", "xyz": [6.462715710148, 8.487131032595, 17.807504121937]}, {"species": [{"element": "I", "occu": 1}], "abc": [0.489131999999999, 0.329105, 0.193918999999999], "properties": {"magmom": -0.0}, "label": "I", "xyz": [6.187745289851987, 4.163329967405, 4.9763926219369745]}, {"species": [{"element": "I", "occu": 1}], "abc": [0.817724999999999, 0.037545999999999004, 0.433040999999999], "properties": {"magmom": -0.0}, "label": "I", "xyz": [10.344598221224988, 0.4749742087059874, 11.112794710142975]}, {"species": [{"element": "I", "occu": 1}], "abc": [0.182275, 0.962453999999999, 0.933041], "properties": {"magmom": -0.0}, "label": "I", "xyz": [2.305862778775, 12.175486791293988, 23.943906210143002]}, {"species": [{"element": "I", "occu": 1}], "abc": [0.537546, 0.682275, 0.183040999999999], "properties": {"magmom": -0.0}, "label": "I", "xyz": [6.800204708706, 8.631093278775, 4.6972389601429745]}, {"species": [{"element": "I", "occu": 1}], "abc": [0.462454, 0.317725, 0.683041], "properties": {"magmom": -0.0}, "label": "I", "xyz": [5.8502562912939995, 4.019367721225, 17.528350460143002]}, {"species": [{"element": "I", "occu": 1}], "abc": [0.962453999999999, 0.182275, 0.066958999999999], "properties": {"magmom": -0.0}, "label": "I", "xyz": [12.175486791293988, 2.305862778775, 1.7183167898569744]}, {"species": [{"element": "I", "occu": 1}], "abc": [0.037545999999999004, 0.817724999999999, 0.566959], "properties": {"magmom": -0.0}, "label": "I", "xyz": [0.4749742087059874, 10.344598221224988, 14.549428289857]}, {"species": [{"element": "I", "occu": 1}], "abc": [0.682275, 0.537546, 0.816959], "properties": {"magmom": -0.0}, "label": "I", "xyz": [8.631093278775, 6.800204708706, 20.964984039857]}, {"species": [{"element": "I", "occu": 1}], "abc": [0.317725, 0.462454, 0.316959], "properties": {"magmom": -0.0}, "label": "I", "xyz": [4.019367721225, 5.8502562912939995, 8.133872539857]}, {"species": [{"element": "I", "occu": 1}], "abc": [0.823801, 0.631968, 0.436930999999999], "properties": {"magmom": -0.0}, "label": "I", "xyz": [10.421462422261, 7.994686537248, 11.212620757612974]}, {"species": [{"element": "I", "occu": 1}], "abc": [0.176199, 0.368031999999999, 0.936931], "properties": {"magmom": -0.0}, "label": "I", "xyz": [2.228998577739, 4.655774462751988, 24.043732257613]}, {"species": [{"element": "I", "occu": 1}], "abc": [0.131968, 0.676199, 0.18693099999999901], "properties": {"magmom": -0.0}, "label": "I", "xyz": [1.669456037248, 8.554229077739, 4.797065007612975]}, {"species": [{"element": "I", "occu": 1}], "abc": [0.868031999999999, 0.323801, 0.686931], "properties": {"magmom": -0.0}, "label": "I", "xyz": [10.981004962751987, 4.096231922261, 17.628176507613]}, {"species": [{"element": "I", "occu": 1}], "abc": [0.368031999999999, 0.176199, 0.063069], "properties": {"magmom": -0.0}, "label": "I", "xyz": [4.655774462751988, 2.228998577739, 1.618490742387]}, {"species": [{"element": "I", "occu": 1}], "abc": [0.631968, 0.823801, 0.563068999999999], "properties": {"magmom": -0.0}, "label": "I", "xyz": [7.994686537248, 10.421462422261, 14.449602242386977]}, {"species": [{"element": "I", "occu": 1}], "abc": [0.676199, 0.131968, 0.813068999999999], "properties": {"magmom": -0.0}, "label": "I", "xyz": [8.554229077739, 1.669456037248, 20.865157992386976]}, {"species": [{"element": "I", "occu": 1}], "abc": [0.323801, 0.868031999999999, 0.313069], "properties": {"magmom": -0.0}, "label": "I", "xyz": [4.096231922261, 10.981004962751987, 8.034046492387]}, {"species": [{"element": "I", "occu": 1}], "abc": [0.139593, 0.8221200000000001, 0.697222], "properties": {"magmom": -0.0}, "label": "I", "xyz": [1.765915802373, 10.40019699732, 17.892266444506]}, {"species": [{"element": "I", "occu": 1}], "abc": [0.860406999999999, 0.17788, 0.197221999999999], "properties": {"magmom": -0.0}, "label": "I", "xyz": [10.884545197626988, 2.2502640026800003, 5.061154944505975]}, {"species": [{"element": "I", "occu": 1}], "abc": [0.32212, 0.360407, 0.447221999999999], "properties": {"magmom": -0.0}, "label": "I", "xyz": [4.07496649732, 4.559314697626999, 11.476710694505975]}, {"species": [{"element": "I", "occu": 1}], "abc": [0.67788, 0.639593, 0.947222], "properties": {"magmom": -0.0}, "label": "I", "xyz": [8.57549450268, 8.091146302373, 24.307822194506002]}, {"species": [{"element": "I", "occu": 1}], "abc": [0.17788, 0.860406999999999, 0.802778], "properties": {"magmom": -0.0}, "label": "I", "xyz": [2.2502640026800003, 10.884545197626988, 20.601068055494]}, {"species": [{"element": "I", "occu": 1}], "abc": [0.8221200000000001, 0.139593, 0.302778], "properties": {"magmom": -0.0}, "label": "I", "xyz": [10.40019699732, 1.765915802373, 7.769956555494]}, {"species": [{"element": "I", "occu": 1}], "abc": [0.360407, 0.32212, 0.552778], "properties": {"magmom": -0.0}, "label": "I", "xyz": [4.559314697626999, 4.07496649732, 14.185512305494]}, {"species": [{"element": "I", "occu": 1}], "abc": [0.639593, 0.67788, 0.052778], "properties": {"magmom": -0.0}, "label": "I", "xyz": [8.091146302373, 8.57549450268, 1.354400805494]}]}, "task_ids": null, "uncorrected_energy_per_atom": null, "energy_per_atom": -4.775443746875, "formation_energy_per_atom": -0.392901728124999, "energy_above_hull": 0.047229413333332006, "is_stable": false, "equilibrium_reaction_energy_per_atom": null, "decomposes_to": null, "xas": null, "grain_boundaries": null, "band_gap": 1.0734, "cbm": null, "vbm": null, "efermi": 2.25054893, "is_gap_direct": null, "is_metal": null, "es_source_calc_id": null, "bandstructure": null, "dos": null, "dos_energy_up": null, "dos_energy_down": null, "is_magnetic": null, "ordering": null, "total_magnetization": 0.0104554, "total_magnetization_normalized_vol": null, "total_magnetization_normalized_formula_units": null, "num_magnetic_sites": null, "num_unique_magnetic_sites": null, "types_of_magnetic_species": null, "bulk_modulus": null, "shear_modulus": null, "universal_anisotropy": null, "homogeneous_poisson": null, "e_total": null, "e_ionic": null, "e_electronic": null, "n": null, "e_ij_max": null, "weighted_surface_energy_EV_PER_ANG2": null, "weighted_surface_energy": null, "weighted_work_function": null, "surface_anisotropy": null, "shape_factor": null, "has_reconstructed": null, "possible_species": null, "has_props": null, "theoretical": null, "database_IDs": null, "fields_not_requested": ["builder_meta", "nsites", "elements", "nelements", "composition", "composition_reduced", "chemsys", "symmetry", "property_name", "deprecated", "deprecation_reasons", "last_updated", "origins", "warnings", "task_ids", "uncorrected_energy_per_atom", "equilibrium_reaction_energy_per_atom", "decomposes_to", "xas", "grain_boundaries", "cbm", "vbm", "is_gap_direct", "is_metal", "es_source_calc_id", "bandstructure", "dos", "dos_energy_up", "dos_energy_down", "is_magnetic", "ordering", "total_magnetization_normalized_vol", "total_magnetization_normalized_formula_units", "num_magnetic_sites", "num_unique_magnetic_sites", "types_of_magnetic_species", "bulk_modulus", "shear_modulus", "universal_anisotropy", "homogeneous_poisson", "e_total", "e_ionic", "e_electronic", "n", "e_ij_max", "weighted_surface_energy_EV_PER_ANG2", "weighted_surface_energy", "weighted_work_function", "surface_anisotropy", "shape_factor", "has_reconstructed", "possible_species", "has_props", "theoretical", "database_IDs"]}