{
  "builder_meta": null,
  "nsites": null,
  "elements": null,
  "nelements": null,
  "composition": null,
  "composition_reduced": null,
  "formula_pretty": "WI4",
  "formula_anonymous": "AB4",
  "chemsys": null,
  "volume": 5472.289319557744,
  "density": 5.035667183216293,
  "density_atomic": 45.60241099631454,
  "symmetry": null,
  "property_name": null,
  "material_id": "mp-1195045",
  "deprecated": null,
  "deprecation_reasons": null,
  "last_updated": null,
  "origins": null,
  "warnings": null,
  "structure": {
    "@module": "pymatgen.core.structure",
    "@class": "Structure",
    "charge": 0,
    "lattice": {
      "matrix": [
        [-14.834896, 0.0, -0.0],
        [-0.0, 0.0, -16.07731536],
        [0.0, -22.94409931, 0.0]
      ],
      "pbc": [true, true, true],
      "a": 14.834896,
      "b": 16.07731536,
      "c": 22.94409931,
      "alpha": 90.0,
      "beta": 90.0,
      "gamma": 90.0,
      "volume": 5472.289319557744
    },
    "properties": {},
    "sites": [
      {
        "species": [{ "element": "W", "occu": 1 }],
        "abc": [0.83090082, 0.27150255, 0.10581869],
        "properties": { "magmom": 0.0 },
        "label": "W",
        "xyz": [-12.326327251014721, -2.427914532214104, -4.365032117394168]
      },
      {
        "species": [{ "element": "W", "occu": 1 }],
        "abc": [0.66909918, 0.77150255, 0.39418131],
        "properties": { "magmom": 0.0 },
        "label": "W",
        "xyz": [-9.92601674898528, -9.044135122785896, -12.403689797394168]
      },
      {
        "species": [{ "element": "W", "occu": 1 }],
        "abc": [0.33090082, 0.72849745, 0.39418131],
        "properties": { "magmom": 0.0 },
        "label": "W",
        "xyz": [-4.90887925101472, -9.044135122785896, -11.712283242605832]
      },
      {
        "species": [{ "element": "W", "occu": 1 }],
        "abc": [0.16909918000000002, 0.22849745000000002, 0.10581869],
        "properties": { "magmom": 0.0 },
        "label": "W",
        "xyz": [-2.5085687489852804, -2.427914532214104, -3.6736255626058325]
      },
      {
        "species": [{ "element": "W", "occu": 1 }],
        "abc": [0.16909918000000002, 0.72849745, 0.89418131],
        "properties": { "magmom": 0.0 },
        "label": "W",
        "xyz": [-2.5085687489852804, -20.516184777785895, -11.712283242605832]
      },
      {
        "species": [{ "element": "W", "occu": 1 }],
        "abc": [0.33090082, 0.22849745000000002, 0.60581869],
        "properties": { "magmom": 0.0 },
        "label": "W",
        "xyz": [-4.90887925101472, -13.899964187214103, -3.6736255626058325]
      },
      {
        "species": [{ "element": "W", "occu": 1 }],
        "abc": [0.66909918, 0.27150255, 0.60581869],
        "properties": { "magmom": 0.0 },
        "label": "W",
        "xyz": [-9.92601674898528, -13.899964187214103, -4.365032117394168]
      },
      {
        "species": [{ "element": "W", "occu": 1 }],
        "abc": [0.83090082, 0.77150255, 0.89418131],
        "properties": { "magmom": 0.0 },
        "label": "W",
        "xyz": [-12.326327251014721, -20.516184777785895, -12.403689797394168]
      },
      {
        "species": [{ "element": "W", "occu": 1 }],
        "abc": [0.66466481, 0.2706473, 0.10878173000000001],
        "properties": { "magmom": 0.0 },
        "label": "W",
        "xyz": [-9.860233331209761, -2.4958988162336064, -4.3512819934325275]
      },
      {
        "species": [{ "element": "W", "occu": 1 }],
        "abc": [0.83533519, 0.770647299999999, 0.39121827000000003],
        "properties": { "magmom": 0.0 },
        "label": "W",
        "xyz": [-12.39211066879024, -8.976150838766394, -12.389939673432513]
      },
      {
        "species": [{ "element": "W", "occu": 1 }],
        "abc": [0.16466481, 0.7293527, 0.39121827000000003],
        "properties": { "magmom": 0.0 },
        "label": "W",
        "xyz": [-2.44278533120976, -8.976150838766394, -11.72603336656747]
      },
      {
        "species": [{ "element": "W", "occu": 1 }],
        "abc": [0.33533519, 0.2293527, 0.10878173000000001],
        "properties": { "magmom": 0.0 },
        "label": "W",
        "xyz": [-4.97466266879024, -2.4958988162336064, -3.687375686567472]
      },
      {
        "species": [{ "element": "W", "occu": 1 }],
        "abc": [0.33533519, 0.7293527, 0.89121827],
        "properties": { "magmom": 0.0 },
        "label": "W",
        "xyz": [-4.97466266879024, -20.448200493766393, -11.72603336656747]
      },
      {
        "species": [{ "element": "W", "occu": 1 }],
        "abc": [0.16466481, 0.2293527, 0.60878173],
        "properties": { "magmom": 0.0 },
        "label": "W",
        "xyz": [-2.44278533120976, -13.967948471233607, -3.687375686567472]
      },
      {
        "species": [{ "element": "W", "occu": 1 }],
        "abc": [0.83533519, 0.2706473, 0.60878173],
        "properties": { "magmom": 0.0 },
        "label": "W",
        "xyz": [-12.39211066879024, -13.967948471233607, -4.3512819934325275]
      },
      {
        "species": [{ "element": "W", "occu": 1 }],
        "abc": [0.66466481, 0.770647299999999, 0.89121827],
        "properties": { "magmom": 0.0 },
        "label": "W",
        "xyz": [-9.860233331209761, -20.448200493766393, -12.389939673432513]
      },
      {
        "species": [{ "element": "W", "occu": 1 }],
        "abc": [0.7436775600000001, 0.3061235, 0.01734537],
        "properties": { "magmom": -0.0 },
        "label": "W",
        "xyz": [-11.032379260133762, -0.39797389184869464, -4.92164404860696]
      },
      {
        "species": [{ "element": "W", "occu": 1 }],
        "abc": [0.75632244, 0.8061235, 0.48265463000000003],
        "properties": { "magmom": -0.0 },
        "label": "W",
        "xyz": [-11.21996473986624, -11.074075763151304, -12.960301728606959]
      },
      {
        "species": [{ "element": "W", "occu": 1 }],
        "abc": [0.24367756000000002, 0.6938765, 0.48265463000000003],
        "properties": { "magmom": -0.0 },
        "label": "W",
        "xyz": [-3.61493126013376, -11.074075763151304, -11.155671311393041]
      },
      {
        "species": [{ "element": "W", "occu": 1 }],
        "abc": [0.25632244, 0.193876499999999, 0.01734537],
        "properties": { "magmom": -0.0 },
        "label": "W",
        "xyz": [-3.80251673986624, -0.39797389184869464, -3.117013631393024]
      },
      {
        "species": [{ "element": "W", "occu": 1 }],
        "abc": [0.25632244, 0.6938765, 0.98265463],
        "properties": { "magmom": -0.0 },
        "label": "W",
        "xyz": [-3.80251673986624, -22.546125418151302, -11.155671311393041]
      },
      {
        "species": [{ "element": "W", "occu": 1 }],
        "abc": [0.24367756000000002, 0.193876499999999, 0.51734537],
        "properties": { "magmom": -0.0 },
        "label": "W",
        "xyz": [-3.61493126013376, -11.870023546848694, -3.117013631393024]
      },
      {
        "species": [{ "element": "W", "occu": 1 }],
        "abc": [0.75632244, 0.3061235, 0.51734537],
        "properties": { "magmom": -0.0 },
        "label": "W",
        "xyz": [-11.21996473986624, -11.870023546848694, -4.92164404860696]
      },
      {
        "species": [{ "element": "W", "occu": 1 }],
        "abc": [0.7436775600000001, 0.8061235, 0.98265463],
        "properties": { "magmom": -0.0 },
        "label": "W",
        "xyz": [-11.032379260133762, -22.546125418151302, -12.960301728606959]
      },
      {
        "species": [{ "element": "I", "occu": 1 }],
        "abc": [0.87499107, 0.18419478, 0.00480002],
        "properties": { "magmom": -0.0 },
        "label": "I",
        "xyz": [-12.98040152437872, -0.1101321355699862, -2.961357565725821]
      },
      {
        "species": [{ "element": "I", "occu": 1 }],
        "abc": [0.62500893, 0.68419478, 0.49519998],
        "properties": { "magmom": -0.0 },
        "label": "I",
        "xyz": [-9.27194247562128, -11.361917519430012, -11.000015245725821]
      },
      {
        "species": [{ "element": "I", "occu": 1 }],
        "abc": [0.37499107, 0.81580522, 0.49519998],
        "properties": { "magmom": -0.0 },
        "label": "I",
        "xyz": [-5.56295352437872, -11.361917519430012, -13.115957794274179]
      },
      {
        "species": [{ "element": "I", "occu": 1 }],
        "abc": [0.12500893, 0.31580522, 0.00480002],
        "properties": { "magmom": -0.0 },
        "label": "I",
        "xyz": [-1.85449447562128, -0.1101321355699862, -5.07730011427418]
      },
      {
        "species": [{ "element": "I", "occu": 1 }],
        "abc": [0.12500893, 0.81580522, 0.99519998],
        "properties": { "magmom": -0.0 },
        "label": "I",
        "xyz": [-1.85449447562128, -22.83396717443001, -13.115957794274179]
      },
      {
        "species": [{ "element": "I", "occu": 1 }],
        "abc": [0.37499107, 0.31580522, 0.50480002],
        "properties": { "magmom": -0.0 },
        "label": "I",
        "xyz": [-5.56295352437872, -11.582181790569987, -5.07730011427418]
      },
      {
        "species": [{ "element": "I", "occu": 1 }],
        "abc": [0.62500893, 0.18419478, 0.50480002],
        "properties": { "magmom": -0.0 },
        "label": "I",
        "xyz": [-9.27194247562128, -11.582181790569987, -2.961357565725821]
      },
      {
        "species": [{ "element": "I", "occu": 1 }],
        "abc": [0.87499107, 0.68419478, 0.99519998],
        "properties": { "magmom": -0.0 },
        "label": "I",
        "xyz": [-12.98040152437872, -22.83396717443001, -11.000015245725821]
      },
      {
        "species": [{ "element": "I", "occu": 1 }],
        "abc": [0.61425652, 0.18185811000000002, 0.00968071],
        "properties": { "magmom": -0.0 },
        "label": "I",
        "xyz": [-9.11243159152192, -0.2221151716313101, -2.9237901852435697]
      },
      {
        "species": [{ "element": "I", "occu": 1 }],
        "abc": [0.88574348, 0.68185811, 0.49031929],
        "properties": { "magmom": -0.0 },
        "label": "I",
        "xyz": [-13.13991240847808, -11.24993448336869, -10.962447865243568]
      },
      {
        "species": [{ "element": "I", "occu": 1 }],
        "abc": [0.11425652, 0.81814189, 0.49031929],
        "properties": { "magmom": -0.0 },
        "label": "I",
        "xyz": [-1.69498359152192, -11.24993448336869, -13.153525174756432]
      },
      {
        "species": [{ "element": "I", "occu": 1 }],
        "abc": [0.38574348, 0.31814189, 0.00968071],
        "properties": { "magmom": -0.0 },
        "label": "I",
        "xyz": [-5.72246440847808, -0.2221151716313101, -5.11486749475643]
      },
      {
        "species": [{ "element": "I", "occu": 1 }],
        "abc": [0.38574348, 0.81814189, 0.9903192900000001],
        "properties": { "magmom": -0.0 },
        "label": "I",
        "xyz": [-5.72246440847808, -22.72198413836869, -13.153525174756432]
      },
      {
        "species": [{ "element": "I", "occu": 1 }],
        "abc": [0.11425652, 0.31814189, 0.50968071],
        "properties": { "magmom": -0.0 },
        "label": "I",
        "xyz": [-1.69498359152192, -11.69416482663131, -5.11486749475643]
      },
      {
        "species": [{ "element": "I", "occu": 1 }],
        "abc": [0.88574348, 0.18185811000000002, 0.50968071],
        "properties": { "magmom": -0.0 },
        "label": "I",
        "xyz": [-13.13991240847808, -11.69416482663131, -2.9237901852435697]
      },
      {
        "species": [{ "element": "I", "occu": 1 }],
        "abc": [0.61425652, 0.68185811, 0.9903192900000001],
        "properties": { "magmom": -0.0 },
        "label": "I",
        "xyz": [-9.11243159152192, -22.72198413836869, -10.962447865243568]
      },
      {
        "species": [{ "element": "I", "occu": 1 }],
        "abc": [0.7505547100000001, 0.1273194, 0.14881028000000002],
        "properties": { "magmom": -0.0 },
        "label": "I",
        "xyz": [-11.134401065160162, -3.414317842668907, -2.046954145245984]
      },
      {
        "species": [{ "element": "I", "occu": 1 }],
        "abc": [0.74944529, 0.6273194, 0.35118972],
        "properties": { "magmom": -0.0 },
        "label": "I",
        "xyz": [-11.11794293483984, -8.057731812331092, -10.085611825245984]
      },
      {
        "species": [{ "element": "I", "occu": 1 }],
        "abc": [0.25055471, 0.872680599999999, 0.35118972],
        "properties": { "magmom": -0.0 },
        "label": "I",
        "xyz": [-3.7169530651601606, -8.057731812331092, -14.030361214754]
      },
      {
        "species": [{ "element": "I", "occu": 1 }],
        "abc": [0.24944529000000001, 0.3726806, 0.14881028000000002],
        "properties": { "magmom": -0.0 },
        "label": "I",
        "xyz": [-3.70049493483984, -3.414317842668907, -5.9917035347540155]
      },
      {
        "species": [{ "element": "I", "occu": 1 }],
        "abc": [0.24944529000000001, 0.872680599999999, 0.85118972],
        "properties": { "magmom": -0.0 },
        "label": "I",
        "xyz": [-3.70049493483984, -19.529781467331095, -14.030361214754]
      },
      {
        "species": [{ "element": "I", "occu": 1 }],
        "abc": [0.25055471, 0.3726806, 0.64881028],
        "properties": { "magmom": -0.0 },
        "label": "I",
        "xyz": [-3.7169530651601606, -14.886367497668905, -5.9917035347540155]
      },
      {
        "species": [{ "element": "I", "occu": 1 }],
        "abc": [0.74944529, 0.1273194, 0.64881028],
        "properties": { "magmom": -0.0 },
        "label": "I",
        "xyz": [-11.11794293483984, -14.886367497668905, -2.046954145245984]
      },
      {
        "species": [{ "element": "I", "occu": 1 }],
        "abc": [0.7505547100000001, 0.6273194, 0.85118972],
        "properties": { "magmom": -0.0 },
        "label": "I",
        "xyz": [-11.134401065160162, -19.529781467331095, -10.085611825245984]
      },
      {
        "species": [{ "element": "I", "occu": 1 }],
        "abc": [0.87565369, 0.42057649, 0.05124168],
        "properties": { "magmom": -0.0 },
        "label": "I",
        "xyz": [-12.990231423166241, -1.1756941947312407, -6.7617408627318865]
      },
      {
        "species": [{ "element": "I", "occu": 1 }],
        "abc": [0.62434631, 0.92057649, 0.44875832],
        "properties": { "magmom": -0.0 },
        "label": "I",
        "xyz": [-9.26211257683376, -10.296355460268758, -14.800398542731886]
      },
      {
        "species": [{ "element": "I", "occu": 1 }],
        "abc": [0.37565369, 0.57942351, 0.44875832],
        "properties": { "magmom": -0.0 },
        "label": "I",
        "xyz": [-5.57278342316624, -10.296355460268758, -9.315574497268114]
      },
      {
        "species": [{ "element": "I", "occu": 1 }],
        "abc": [0.12434631, 0.07942351, 0.05124168],
        "properties": { "magmom": -0.0 },
        "label": "I",
        "xyz": [-1.8446645768337602, -1.1756941947312407, -1.2769168172681136]
      },
      {
        "species": [{ "element": "I", "occu": 1 }],
        "abc": [0.12434631, 0.57942351, 0.94875832],
        "properties": { "magmom": -0.0 },
        "label": "I",
        "xyz": [-1.8446645768337602, -21.76840511526876, -9.315574497268114]
      },
      {
        "species": [{ "element": "I", "occu": 1 }],
        "abc": [0.37565369, 0.07942351, 0.55124168],
        "properties": { "magmom": -0.0 },
        "label": "I",
        "xyz": [-5.57278342316624, -12.647743849731238, -1.2769168172681136]
      },
      {
        "species": [{ "element": "I", "occu": 1 }],
        "abc": [0.62434631, 0.42057649, 0.55124168],
        "properties": { "magmom": -0.0 },
        "label": "I",
        "xyz": [-9.26211257683376, -12.647743849731238, -6.7617408627318865]
      },
      {
        "species": [{ "element": "I", "occu": 1 }],
        "abc": [0.87565369, 0.92057649, 0.94875832],
        "properties": { "magmom": -0.0 },
        "label": "I",
        "xyz": [-12.990231423166241, -21.76840511526876, -14.800398542731886]
      },
      {
        "species": [{ "element": "I", "occu": 1 }],
        "abc": [0.61625811, 0.42181849, 0.05716658],
        "properties": { "magmom": -0.0 },
        "label": "I",
        "xyz": [-9.14212497100656, -1.3116356887330598, -6.781708888409006]
      },
      {
        "species": [{ "element": "I", "occu": 1 }],
        "abc": [0.88374189, 0.92181849, 0.44283342000000003],
        "properties": { "magmom": -0.0 },
        "label": "I",
        "xyz": [-13.110219028993441, -10.16041396626694, -14.820366568409007]
      },
      {
        "species": [{ "element": "I", "occu": 1 }],
        "abc": [0.11625811, 0.5781815100000001, 0.44283342000000003],
        "properties": { "magmom": -0.0 },
        "label": "I",
        "xyz": [-1.72467697100656, -10.16041396626694, -9.295606471590995]
      },
      {
        "species": [{ "element": "I", "occu": 1 }],
        "abc": [0.38374189000000003, 0.07818151, 0.05716658],
        "properties": { "magmom": -0.0 },
        "label": "I",
        "xyz": [-5.692771028993441, -1.3116356887330598, -1.2569487915909936]
      },
      {
        "species": [{ "element": "I", "occu": 1 }],
        "abc": [0.38374189000000003, 0.5781815100000001, 0.94283342],
        "properties": { "magmom": -0.0 },
        "label": "I",
        "xyz": [-5.692771028993441, -21.63246362126694, -9.295606471590995]
      },
      {
        "species": [{ "element": "I", "occu": 1 }],
        "abc": [0.11625811, 0.07818151, 0.55716658],
        "properties": { "magmom": -0.0 },
        "label": "I",
        "xyz": [-1.72467697100656, -12.783685343733058, -1.2569487915909936]
      },
      {
        "species": [{ "element": "I", "occu": 1 }],
        "abc": [0.88374189, 0.42181849, 0.55716658],
        "properties": { "magmom": -0.0 },
        "label": "I",
        "xyz": [-13.110219028993441, -12.783685343733058, -6.781708888409006]
      },
      {
        "species": [{ "element": "I", "occu": 1 }],
        "abc": [0.61625811, 0.92181849, 0.94283342],
        "properties": { "magmom": -0.0 },
        "label": "I",
        "xyz": [-9.14212497100656, -21.63246362126694, -14.820366568409007]
      },
      {
        "species": [{ "element": "I", "occu": 1 }],
        "abc": [0.75137118, 0.36121749000000003, 0.19623743],
        "properties": { "magmom": -0.0 },
        "label": "I",
        "xyz": [-11.14651331269728, -4.502491082259173, -5.807407500277647]
      },
      {
        "species": [{ "element": "I", "occu": 1 }],
        "abc": [0.74862882, 0.86121749, 0.30376257],
        "properties": { "magmom": -0.0 },
        "label": "I",
        "xyz": [-11.10583068730272, -6.9695585727408265, -13.846065180277646]
      },
      {
        "species": [{ "element": "I", "occu": 1 }],
        "abc": [0.25137118, 0.63878251, 0.30376257],
        "properties": { "magmom": -0.0 },
        "label": "I",
        "xyz": [-3.7290653126972804, -6.9695585727408265, -10.269907859722354]
      },
      {
        "species": [{ "element": "I", "occu": 1 }],
        "abc": [0.24862882, 0.13878251, 0.19623743],
        "properties": { "magmom": -0.0 },
        "label": "I",
        "xyz": [-3.6883826873027203, -4.502491082259173, -2.2312501797223536]
      },
      {
        "species": [{ "element": "I", "occu": 1 }],
        "abc": [0.24862882, 0.63878251, 0.8037625700000001],
        "properties": { "magmom": -0.0 },
        "label": "I",
        "xyz": [-3.6883826873027203, -18.441608227740826, -10.269907859722354]
      },
      {
        "species": [{ "element": "I", "occu": 1 }],
        "abc": [0.25137118, 0.13878251, 0.69623743],
        "properties": { "magmom": -0.0 },
        "label": "I",
        "xyz": [-3.7290653126972804, -15.974540737259174, -2.2312501797223536]
      },
      {
        "species": [{ "element": "I", "occu": 1 }],
        "abc": [0.74862882, 0.36121749000000003, 0.69623743],
        "properties": { "magmom": -0.0 },
        "label": "I",
        "xyz": [-11.10583068730272, -15.974540737259174, -5.807407500277647]
      },
      {
        "species": [{ "element": "I", "occu": 1 }],
        "abc": [0.75137118, 0.86121749, 0.8037625700000001],
        "properties": { "magmom": -0.0 },
        "label": "I",
        "xyz": [-11.14651331269728, -18.441608227740826, -13.846065180277646]
      },
      {
        "species": [{ "element": "I", "occu": 1 }],
        "abc": [0.0, 0.25, 0.16812979],
        "properties": { "magmom": -0.0 },
        "label": "I",
        "xyz": [0.0, -3.8575865987294446, -4.01932884]
      },
      {
        "species": [{ "element": "I", "occu": 1 }],
        "abc": [0.5, 0.75, 0.33187021],
        "properties": { "magmom": -0.0 },
        "label": "I",
        "xyz": [-7.417448, -7.614463056270554, -12.05798652]
      },
      {
        "species": [{ "element": "I", "occu": 1 }],
        "abc": [-0.0, 0.75, 0.83187021],
        "properties": { "magmom": -0.0 },
        "label": "I",
        "xyz": [0.0, -19.086512711270554, -12.05798652]
      },
      {
        "species": [{ "element": "I", "occu": 1 }],
        "abc": [0.5, 0.25, 0.6681297900000001],
        "properties": { "magmom": -0.0 },
        "label": "I",
        "xyz": [-7.417448, -15.329636253729445, -4.01932884]
      },
      {
        "species": [{ "element": "I", "occu": 1 }],
        "abc": [0.73563806, 0.3469001, 0.89474946],
        "properties": { "magmom": -0.0 },
        "label": "I",
        "xyz": [-10.91311411374176, -20.529220467808873, -5.5772223061155355]
      },
      {
        "species": [{ "element": "I", "occu": 1 }],
        "abc": [0.76436194, 0.846900099999999, 0.60525054],
        "properties": { "magmom": -0.0 },
        "label": "I",
        "xyz": [-11.339229886258241, -13.886928497191127, -13.615879986115521]
      },
      {
        "species": [{ "element": "I", "occu": 1 }],
        "abc": [0.23563806, 0.6530999, 0.60525054],
        "properties": { "magmom": -0.0 },
        "label": "I",
        "xyz": [-3.4956661137417604, -13.886928497191127, -10.500093053884463]
      },
      {
        "species": [{ "element": "I", "occu": 1 }],
        "abc": [0.26436194, 0.153099899999999, 0.89474946],
        "properties": { "magmom": -0.0 },
        "label": "I",
        "xyz": [-3.9217818862582403, -20.529220467808873, -2.461435373884448]
      },
      {
        "species": [{ "element": "I", "occu": 1 }],
        "abc": [0.26436194, 0.6530999, 0.10525054],
        "properties": { "magmom": -0.0 },
        "label": "I",
        "xyz": [-3.9217818862582403, -2.4148788421911274, -10.500093053884463]
      },
      {
        "species": [{ "element": "I", "occu": 1 }],
        "abc": [0.23563806, 0.153099899999999, 0.39474946],
        "properties": { "magmom": -0.0 },
        "label": "I",
        "xyz": [-3.4956661137417604, -9.057170812808872, -2.461435373884448]
      },
      {
        "species": [{ "element": "I", "occu": 1 }],
        "abc": [0.76436194, 0.3469001, 0.39474946],
        "properties": { "magmom": -0.0 },
        "label": "I",
        "xyz": [-11.339229886258241, -9.057170812808872, -5.5772223061155355]
      },
      {
        "species": [{ "element": "I", "occu": 1 }],
        "abc": [0.73563806, 0.846900099999999, 0.10525054],
        "properties": { "magmom": -0.0 },
        "label": "I",
        "xyz": [-10.91311411374176, -2.4148788421911274, -13.615879986115521]
      },
      {
        "species": [{ "element": "I", "occu": 1 }],
        "abc": [0.5, 0.25, 0.17610773],
        "properties": { "magmom": -0.0 },
        "label": "I",
        "xyz": [-7.417448, -4.040633246378666, -4.01932884]
      },
      {
        "species": [{ "element": "I", "occu": 1 }],
        "abc": [0.0, 0.75, 0.32389227],
        "properties": { "magmom": -0.0 },
        "label": "I",
        "xyz": [0.0, -7.431416408621333, -12.05798652]
      },
      {
        "species": [{ "element": "I", "occu": 1 }],
        "abc": [0.5, 0.75, 0.82389227],
        "properties": { "magmom": -0.0 },
        "label": "I",
        "xyz": [-7.417448, -18.903466063621334, -12.05798652]
      },
      {
        "species": [{ "element": "I", "occu": 1 }],
        "abc": [0.0, 0.25, 0.67610773],
        "properties": { "magmom": -0.0 },
        "label": "I",
        "xyz": [0.0, -15.512682901378666, -4.01932884]
      },
      {
        "species": [{ "element": "I", "occu": 1 }],
        "abc": [0.93806361, 0.37552283000000003, 0.8565670400000001],
        "properties": { "magmom": -0.0 },
        "label": "I",
        "xyz": [-13.916076095734562, -19.653159231432742, -6.037398962789669]
      },
      {
        "species": [{ "element": "I", "occu": 1 }],
        "abc": [0.5619363900000001, 0.87552283, 0.64343296],
        "properties": { "magmom": -0.0 },
        "label": "I",
        "xyz": [-8.33626790426544, -14.762989733567258, -14.076056642789668]
      },
      {
        "species": [{ "element": "I", "occu": 1 }],
        "abc": [0.43806361, 0.62447717, 0.64343296],
        "properties": { "magmom": -0.0 },
        "label": "I",
        "xyz": [-6.49862809573456, -14.762989733567258, -10.039916397210332]
      },
      {
        "species": [{ "element": "I", "occu": 1 }],
        "abc": [0.06193639, 0.12447717, 0.8565670400000001],
        "properties": { "magmom": -0.0 },
        "label": "I",
        "xyz": [-0.91881990426544, -19.653159231432742, -2.001258717210331]
      },
      {
        "species": [{ "element": "I", "occu": 1 }],
        "abc": [0.06193639, 0.62447717, 0.14343296],
        "properties": { "magmom": -0.0 },
        "label": "I",
        "xyz": [-0.91881990426544, -3.2909400785672576, -10.039916397210332]
      },
      {
        "species": [{ "element": "I", "occu": 1 }],
        "abc": [0.43806361, 0.12447717, 0.35656704],
        "properties": { "magmom": -0.0 },
        "label": "I",
        "xyz": [-6.49862809573456, -8.181109576432743, -2.001258717210331]
      },
      {
        "species": [{ "element": "I", "occu": 1 }],
        "abc": [0.5619363900000001, 0.37552283000000003, 0.35656704],
        "properties": { "magmom": -0.0 },
        "label": "I",
        "xyz": [-8.33626790426544, -8.181109576432743, -6.037398962789669]
      },
      {
        "species": [{ "element": "I", "occu": 1 }],
        "abc": [0.93806361, 0.87552283, 0.14343296],
        "properties": { "magmom": -0.0 },
        "label": "I",
        "xyz": [-13.916076095734562, -3.2909400785672576, -14.076056642789668]
      },
      {
        "species": [{ "element": "I", "occu": 1 }],
        "abc": [0.11816418000000001, 0.39263167, 0.8191631300000001],
        "properties": { "magmom": -0.0 },
        "label": "I",
        "xyz": [-1.7529533212252801, -18.79496020581044, -6.312463178913451]
      },
      {
        "species": [{ "element": "I", "occu": 1 }],
        "abc": [0.38183582, 0.89263167, 0.68083687],
        "properties": { "magmom": -0.0 },
        "label": "I",
        "xyz": [-5.66449467877472, -15.62118875918956, -14.35112085891345]
      },
      {
        "species": [{ "element": "I", "occu": 1 }],
        "abc": [0.6181641800000001, 0.60736833, 0.68083687],
        "properties": { "magmom": -0.0 },
        "label": "I",
        "xyz": [-9.170401321225281, -15.62118875918956, -9.76485218108655]
      },
      {
        "species": [{ "element": "I", "occu": 1 }],
        "abc": [0.88183582, 0.10736833, 0.8191631300000001],
        "properties": { "magmom": -0.0 },
        "label": "I",
        "xyz": [-13.081942678774722, -18.79496020581044, -1.7261945010865487]
      },
      {
        "species": [{ "element": "I", "occu": 1 }],
        "abc": [0.88183582, 0.60736833, 0.18083687],
        "properties": { "magmom": -0.0 },
        "label": "I",
        "xyz": [-13.081942678774722, -4.14913910418956, -9.76485218108655]
      },
      {
        "species": [{ "element": "I", "occu": 1 }],
        "abc": [0.6181641800000001, 0.10736833, 0.31916313],
        "properties": { "magmom": -0.0 },
        "label": "I",
        "xyz": [-9.170401321225281, -7.32291055081044, -1.7261945010865487]
      },
      {
        "species": [{ "element": "I", "occu": 1 }],
        "abc": [0.38183582, 0.39263167, 0.31916313],
        "properties": { "magmom": -0.0 },
        "label": "I",
        "xyz": [-5.66449467877472, -7.32291055081044, -6.312463178913451]
      },
      {
        "species": [{ "element": "I", "occu": 1 }],
        "abc": [0.11816418000000001, 0.89263167, 0.18083687],
        "properties": { "magmom": -0.0 },
        "label": "I",
        "xyz": [-1.7529533212252801, -4.14913910418956, -14.35112085891345]
      },
      {
        "species": [{ "element": "I", "occu": 1 }],
        "abc": [0.38185177000000003, 0.33581142, 0.8321704400000001],
        "properties": { "magmom": -0.0 },
        "label": "I",
        "xyz": [-5.664731295365921, -19.093401218206395, -5.398946100829412]
      },
      {
        "species": [{ "element": "I", "occu": 1 }],
        "abc": [0.11814823, 0.83581142, 0.66782956],
        "properties": { "magmom": -0.0 },
        "label": "I",
        "xyz": [-1.7527167046340801, -15.322747746793604, -13.437603780829411]
      },
      {
        "species": [{ "element": "I", "occu": 1 }],
        "abc": [0.88185177, 0.66418858, 0.66782956],
        "properties": { "magmom": -0.0 },
        "label": "I",
        "xyz": [-13.08217929536592, -15.322747746793604, -10.678369259170589]
      },
      {
        "species": [{ "element": "I", "occu": 1 }],
        "abc": [0.61814823, 0.16418858, 0.8321704400000001],
        "properties": { "magmom": -0.0 },
        "label": "I",
        "xyz": [-9.17016470463408, -19.093401218206395, -2.639711579170589]
      },
      {
        "species": [{ "element": "I", "occu": 1 }],
        "abc": [0.61814823, 0.66418858, 0.16782956000000002],
        "properties": { "magmom": -0.0 },
        "label": "I",
        "xyz": [-9.17016470463408, -3.850698091793604, -10.678369259170589]
      },
      {
        "species": [{ "element": "I", "occu": 1 }],
        "abc": [0.88185177, 0.16418858, 0.33217044],
        "properties": { "magmom": -0.0 },
        "label": "I",
        "xyz": [-13.08217929536592, -7.621351563206396, -2.639711579170589]
      },
      {
        "species": [{ "element": "I", "occu": 1 }],
        "abc": [0.11814823, 0.33581142, 0.33217044],
        "properties": { "magmom": -0.0 },
        "label": "I",
        "xyz": [-1.7527167046340801, -7.621351563206396, -5.398946100829412]
      },
      {
        "species": [{ "element": "I", "occu": 1 }],
        "abc": [0.38185177000000003, 0.83581142, 0.16782956000000002],
        "properties": { "magmom": -0.0 },
        "label": "I",
        "xyz": [-5.664731295365921, -3.850698091793604, -13.437603780829411]
      },
      {
        "species": [{ "element": "I", "occu": 1 }],
        "abc": [0.49209143, 0.45916926, 0.78919733],
        "properties": { "magmom": -0.0 },
        "label": "I",
        "xyz": [-7.300125186541281, -18.10742191470684, -7.382208996637834]
      },
      {
        "species": [{ "element": "I", "occu": 1 }],
        "abc": [0.00790857, 0.95916926, 0.71080267],
        "properties": { "magmom": -0.0 },
        "label": "I",
        "xyz": [-0.11732281345872, -16.308727050293157, -15.420866676637834]
      },
      {
        "species": [{ "element": "I", "occu": 1 }],
        "abc": [0.99209143, 0.54083074, 0.71080267],
        "properties": { "magmom": -0.0 },
        "label": "I",
        "xyz": [-14.71757318654128, -16.308727050293157, -8.695106363362166]
      },
      {
        "species": [{ "element": "I", "occu": 1 }],
        "abc": [0.50790857, 0.040830740000000004, 0.78919733],
        "properties": { "magmom": -0.0 },
        "label": "I",
        "xyz": [-7.53477081345872, -18.10742191470684, -0.6564486833621664]
      },
      {
        "species": [{ "element": "I", "occu": 1 }],
        "abc": [0.50790857, 0.54083074, 0.21080267],
        "properties": { "magmom": -0.0 },
        "label": "I",
        "xyz": [-7.53477081345872, -4.836677395293157, -8.695106363362166]
      },
      {
        "species": [{ "element": "I", "occu": 1 }],
        "abc": [0.99209143, 0.040830740000000004, 0.28919733000000003],
        "properties": { "magmom": -0.0 },
        "label": "I",
        "xyz": [-14.71757318654128, -6.635372259706843, -0.6564486833621664]
      },
      {
        "species": [{ "element": "I", "occu": 1 }],
        "abc": [0.00790857, 0.45916926, 0.28919733000000003],
        "properties": { "magmom": -0.0 },
        "label": "I",
        "xyz": [-0.11732281345872, -6.635372259706843, -7.382208996637834]
      },
      {
        "species": [{ "element": "I", "occu": 1 }],
        "abc": [0.49209143, 0.95916926, 0.21080267],
        "properties": { "magmom": -0.0 },
        "label": "I",
        "xyz": [-7.300125186541281, -4.836677395293157, -15.420866676637834]
      }
    ]
  },
  "task_ids": null,
  "uncorrected_energy_per_atom": null,
  "energy_per_atom": -4.19922013475,
  "formation_energy_per_atom": -0.388383996749999,
  "energy_above_hull": 0.0,
  "is_stable": true,
  "equilibrium_reaction_energy_per_atom": null,
  "decomposes_to": null,
  "xas": null,
  "grain_boundaries": null,
  "band_gap": 1.0913,
  "cbm": null,
  "vbm": null,
  "efermi": 1.94920707,
  "is_gap_direct": null,
  "is_metal": null,
  "es_source_calc_id": null,
  "bandstructure": null,
  "dos": null,
  "dos_energy_up": null,
  "dos_energy_down": null,
  "is_magnetic": null,
  "ordering": null,
  "total_magnetization": 1.1e-6,
  "total_magnetization_normalized_vol": null,
  "total_magnetization_normalized_formula_units": null,
  "num_magnetic_sites": null,
  "num_unique_magnetic_sites": null,
  "types_of_magnetic_species": null,
  "bulk_modulus": null,
  "shear_modulus": null,
  "universal_anisotropy": null,
  "homogeneous_poisson": null,
  "e_total": null,
  "e_ionic": null,
  "e_electronic": null,
  "n": null,
  "e_ij_max": null,
  "weighted_surface_energy_EV_PER_ANG2": null,
  "weighted_surface_energy": null,
  "weighted_work_function": null,
  "surface_anisotropy": null,
  "shape_factor": null,
  "has_reconstructed": null,
  "possible_species": null,
  "has_props": null,
  "theoretical": null,
  "database_IDs": null,
  "fields_not_requested": [
    "builder_meta",
    "nsites",
    "elements",
    "nelements",
    "composition",
    "composition_reduced",
    "chemsys",
    "symmetry",
    "property_name",
    "deprecated",
    "deprecation_reasons",
    "last_updated",
    "origins",
    "warnings",
    "task_ids",
    "uncorrected_energy_per_atom",
    "equilibrium_reaction_energy_per_atom",
    "decomposes_to",
    "xas",
    "grain_boundaries",
    "cbm",
    "vbm",
    "is_gap_direct",
    "is_metal",
    "es_source_calc_id",
    "bandstructure",
    "dos",
    "dos_energy_up",
    "dos_energy_down",
    "is_magnetic",
    "ordering",
    "total_magnetization_normalized_vol",
    "total_magnetization_normalized_formula_units",
    "num_magnetic_sites",
    "num_unique_magnetic_sites",
    "types_of_magnetic_species",
    "bulk_modulus",
    "shear_modulus",
    "universal_anisotropy",
    "homogeneous_poisson",
    "e_total",
    "e_ionic",
    "e_electronic",
    "n",
    "e_ij_max",
    "weighted_surface_energy_EV_PER_ANG2",
    "weighted_surface_energy",
    "weighted_work_function",
    "surface_anisotropy",
    "shape_factor",
    "has_reconstructed",
    "possible_species",
    "has_props",
    "theoretical",
    "database_IDs"
  ]
}
