{"builder_meta": null, "nsites": null, "elements": null, "nelements": null, "composition": null, "composition_reduced": null, "formula_pretty": "WN2", "formula_anonymous": "AB2", "chemsys": null, "volume": 316.35601760570364, "density": 4.448037369474004, "density_atomic": 26.36300146714197, "symmetry": null, "property_name": null, "material_id": "mp-2679804", "deprecated": null, "deprecation_reasons": null, "last_updated": null, "origins": null, "warnings": null, "structure": {"@module": "pymatgen.core.structure", "@class": "Structure", "charge": 0.0, "lattice": {"matrix": [[6.07032239, 0.0, 0.0], [0.0, 6.07081975, 0.0], [0.0, 0.0, 8.58453953]], "pbc": [true, true, true], "a": 6.07032239, "b": 6.07081975, "c": 8.58453953, "alpha": 90.0, "beta": 90.0, "gamma": 90.0, "volume": 316.35601760570364}, "properties": {}, "sites": [{"species": [{"element": "W", "occu": 1}], "abc": [0.00217943, 0.37500015000000003, 0.12500031], "properties": {"magmom": -0.0}, "label": "W", "xyz": [0.0132298427264377, 2.2765583168729626, 1.0730701024572544]}, {"species": [{"element": "W", "occu": 1}], "abc": [0.49782057, 0.87500015, 0.62500031], "properties": {"magmom": -0.0}, "label": "W", "xyz": [3.0219313522735627, 5.311968191872962, 5.365339867457255]}, {"species": [{"element": "W", "occu": 1}], "abc": [0.50217943, 0.37500015000000003, 0.37499969], "properties": {"magmom": -0.0}, "label": "W", "xyz": [3.0483910377264376, 2.2765583168729626, 3.219199662542746]}, {"species": [{"element": "W", "occu": 1}], "abc": [0.99782057, 0.87500015, 0.87499969], "properties": {"magmom": -0.0}, "label": "W", "xyz": [6.057092547273562, 5.311968191872962, 7.511469427542746]}, {"species": [{"element": "N", "occu": 1}], "abc": [0.9998826900000001, 0.12431194, 0.00068975], "properties": {"magmom": 0.0}, "label": "N", "xyz": [6.06961028048043, 0.754675380512815, 0.005921186140817501]}, {"species": [{"element": "N", "occu": 1}], "abc": [0.245791099999999, 0.87568791, 0.74802563], "properties": {"magmom": 0.0}, "label": "N", "xyz": [1.492031217592723, 5.3161434588642225, 6.421455590188154]}, {"species": [{"element": "N", "occu": 1}], "abc": [0.2542089, 0.37568791, 0.24802563], "properties": {"magmom": 0.0}, "label": "N", "xyz": [1.543129977407271, 2.2807335838642224, 2.129185825188154]}, {"species": [{"element": "N", "occu": 1}], "abc": [0.50011731, 0.62431194, 0.50068975], "properties": {"magmom": 0.0}, "label": "N", "xyz": [3.0358733045195714, 3.7900852555128153, 4.2981909511408185]}, {"species": [{"element": "N", "occu": 1}], "abc": [0.745791099999999, 0.87568791, 0.75197437], "properties": {"magmom": 0.0}, "label": "N", "xyz": [4.527192412592723, 5.3161434588642225, 6.455353704811847]}, {"species": [{"element": "N", "occu": 1}], "abc": [0.49988269, 0.12431194, 0.49931025], "properties": {"magmom": -0.0}, "label": "N", "xyz": [3.0344490854804294, 0.754675380512815, 4.286348578859183]}, {"species": [{"element": "N", "occu": 1}], "abc": [0.00011731, 0.62431194, 0.9993102500000001], "properties": {"magmom": 0.0}, "label": "N", "xyz": [0.0007121095195709, 3.7900852555128153, 8.578618343859183]}, {"species": [{"element": "N", "occu": 1}], "abc": [0.7542089, 0.37568791, 0.25197437], "properties": {"magmom": -0.0}, "label": "N", "xyz": [4.578291172407271, 2.2807335838642224, 2.1630839398118464]}]}, "task_ids": null, "uncorrected_energy_per_atom": null, "energy_per_atom": -23.609708924375003, "formation_energy_per_atom": -0.40127701687500406, "energy_above_hull": 0.063143745833333, "is_stable": false, "equilibrium_reaction_energy_per_atom": null, "decomposes_to": null, "xas": null, "grain_boundaries": null, "band_gap": 0.6628000000000001, "cbm": null, "vbm": null, "efermi": -1.40648356, "is_gap_direct": null, "is_metal": null, "es_source_calc_id": null, "bandstructure": null, "dos": null, "dos_energy_up": null, "dos_energy_down": null, "is_magnetic": null, "ordering": null, "total_magnetization": 0.0, "total_magnetization_normalized_vol": null, "total_magnetization_normalized_formula_units": null, "num_magnetic_sites": null, "num_unique_magnetic_sites": null, "types_of_magnetic_species": null, "bulk_modulus": null, "shear_modulus": null, "universal_anisotropy": null, "homogeneous_poisson": null, "e_total": null, "e_ionic": null, "e_electronic": null, "n": null, "e_ij_max": null, "weighted_surface_energy_EV_PER_ANG2": null, "weighted_surface_energy": null, "weighted_work_function": null, "surface_anisotropy": null, "shape_factor": null, "has_reconstructed": null, "possible_species": null, "has_props": null, "theoretical": null, "database_IDs": null, "fields_not_requested": ["builder_meta", "nsites", "elements", "nelements", "composition", "composition_reduced", "chemsys", "symmetry", "property_name", "deprecated", "deprecation_reasons", "last_updated", "origins", "warnings", "task_ids", "uncorrected_energy_per_atom", "equilibrium_reaction_energy_per_atom", "decomposes_to", "xas", "grain_boundaries", "cbm", "vbm", "is_gap_direct", "is_metal", "es_source_calc_id", "bandstructure", "dos", "dos_energy_up", "dos_energy_down", "is_magnetic", "ordering", "total_magnetization_normalized_vol", "total_magnetization_normalized_formula_units", "num_magnetic_sites", "num_unique_magnetic_sites", "types_of_magnetic_species", "bulk_modulus", "shear_modulus", "universal_anisotropy", "homogeneous_poisson", "e_total", "e_ionic", "e_electronic", "n", "e_ij_max", "weighted_surface_energy_EV_PER_ANG2", "weighted_surface_energy", "weighted_work_function", "surface_anisotropy", "shape_factor", "has_reconstructed", "possible_species", "has_props", "theoretical", "database_IDs"]}