{"builder_meta": null, "nsites": null, "elements": null, "nelements": null, "composition": null, "composition_reduced": null, "formula_pretty": "WN6", "formula_anonymous": "AB6", "chemsys": null, "volume": 6572.743023208579, "density": 0.067677305456477, "density_atomic": 938.963289029797, "symmetry": null, "property_name": null, "material_id": "mp-1208477", "deprecated": null, "deprecation_reasons": null, "last_updated": null, "origins": null, "warnings": null, "structure": {"@module": "pymatgen.core.structure", "@class": "Structure", "charge": 0, "lattice": {"matrix": [[-4.69774075, -8.13672603, 0.0], [-7.20398334, 9.58370582, 0.0], [0.0, 0.0, -63.41983355]], "pbc": [true, true, true], "a": 9.395481820614105, "b": 11.989361668049698, "c": 63.41983355, "alpha": 90.0, "beta": 90.0, "gamma": 113.0681539256667, "volume": 6572.743023208579}, "properties": {}, "sites": [{"species": [{"element": "W", "occu": 1}], "abc": [0.0, 0.0, 0.0], "properties": {"magmom": 2.74}, "label": "W", "xyz": [0.0, 0.0, 0.0]}, {"species": [{"element": "N", "occu": 1}], "abc": [0.0, 0.0, 0.82300059], "properties": {"magmom": 1.944}, "label": "N", "xyz": [0.0, 0.0, -52.194560429351796]}, {"species": [{"element": "N", "occu": 1}], "abc": [0.0, 0.0, 0.17699941], "properties": {"magmom": 1.944}, "label": "N", "xyz": [0.0, 0.0, -11.225273120648206]}, {"species": [{"element": "N", "occu": 1}], "abc": [0.84234509, 0.80906458, 0.0], "properties": {"magmom": 0.014}, "label": "N", "xyz": [-9.785606610159515, 0.8999057040561631, 0.0]}, {"species": [{"element": "N", "occu": 1}], "abc": [0.15765491, 0.19093542, 0.0], "properties": {"magmom": 0.014}, "label": "N", "xyz": [-2.1161174798404856, 0.547074085943837, 0.0]}, {"species": [{"element": "N", "occu": 1}], "abc": [0.03328051, 0.19093542, 0.0], "properties": {"magmom": 0.014}, "label": "N", "xyz": [-1.5318387927036852, 1.559074503889469, 0.0]}, {"species": [{"element": "N", "occu": 1}], "abc": [0.96671949, 0.80906458, 0.0], "properties": {"magmom": 0.014}, "label": "N", "xyz": [-10.369885297296316, -0.11209471388946923, 0.0]}]}, "task_ids": null, "uncorrected_energy_per_atom": null, "energy_per_atom": -12.951499365089287, "formation_energy_per_atom": 2.211400407410713, "energy_above_hull": 2.410437877142858, "is_stable": false, "equilibrium_reaction_energy_per_atom": null, "decomposes_to": null, "xas": null, "grain_boundaries": null, "band_gap": 0.358699999999999, "cbm": null, "vbm": null, "efermi": -4.21825978, "is_gap_direct": null, "is_metal": null, "es_source_calc_id": null, "bandstructure": null, "dos": null, "dos_energy_up": null, "dos_energy_down": null, "is_magnetic": null, "ordering": null, "total_magnetization": 7.9825769, "total_magnetization_normalized_vol": null, "total_magnetization_normalized_formula_units": null, "num_magnetic_sites": null, "num_unique_magnetic_sites": null, "types_of_magnetic_species": null, "bulk_modulus": null, "shear_modulus": null, "universal_anisotropy": null, "homogeneous_poisson": null, "e_total": null, "e_ionic": null, "e_electronic": null, "n": null, "e_ij_max": null, "weighted_surface_energy_EV_PER_ANG2": null, "weighted_surface_energy": null, "weighted_work_function": null, "surface_anisotropy": null, "shape_factor": null, "has_reconstructed": null, "possible_species": null, "has_props": null, "theoretical": null, "database_IDs": null, "fields_not_requested": ["builder_meta", "nsites", "elements", "nelements", "composition", "composition_reduced", "chemsys", "symmetry", "property_name", "deprecated", "deprecation_reasons", "last_updated", "origins", "warnings", "task_ids", "uncorrected_energy_per_atom", "equilibrium_reaction_energy_per_atom", "decomposes_to", "xas", "grain_boundaries", "cbm", "vbm", "is_gap_direct", "is_metal", "es_source_calc_id", "bandstructure", "dos", "dos_energy_up", "dos_energy_down", "is_magnetic", "ordering", "total_magnetization_normalized_vol", "total_magnetization_normalized_formula_units", "num_magnetic_sites", "num_unique_magnetic_sites", "types_of_magnetic_species", "bulk_modulus", "shear_modulus", "universal_anisotropy", "homogeneous_poisson", "e_total", "e_ionic", "e_electronic", "n", "e_ij_max", "weighted_surface_energy_EV_PER_ANG2", "weighted_surface_energy", "weighted_work_function", "surface_anisotropy", "shape_factor", "has_reconstructed", "possible_species", "has_props", "theoretical", "database_IDs"]}