{
  "builder_meta": null,
  "nsites": null,
  "elements": null,
  "nelements": null,
  "composition": null,
  "composition_reduced": null,
  "formula_pretty": "WO2",
  "formula_anonymous": "AB2",
  "chemsys": null,
  "volume": 134.17829845535866,
  "density": 10.684552229802115,
  "density_atomic": 11.181524871279889,
  "symmetry": null,
  "property_name": null,
  "material_id": "mp-1524394",
  "deprecated": null,
  "deprecation_reasons": null,
  "last_updated": null,
  "origins": null,
  "warnings": null,
  "structure": {
    "@module": "pymatgen.core.structure",
    "@class": "Structure",
    "charge": 0,
    "lattice": {
      "matrix": [
        [4.91792375, 0.0, 0.0],
        [0.0, 4.89766853, -2.67668469],
        [0.0, 0.00714959, 5.56680964]
      ],
      "pbc": [true, true, true],
      "a": 4.91792375,
      "b": 5.581379574928833,
      "c": 5.566814231194902,
      "alpha": 118.58399853996869,
      "beta": 90.0,
      "gamma": 90.0,
      "volume": 134.17829845535866
    },
    "properties": {},
    "sites": [
      {
        "species": [{ "element": "W", "occu": 1 }],
        "abc": [0.50716149, 0.485305, 0.7142236],
        "properties": { "magmom": 0.0 },
        "label": "W",
        "xyz": [2.4941815367563875, 2.381969431859974, 2.676938358115054]
      },
      {
        "species": [{ "element": "W", "occu": 1 }],
        "abc": [0.00716149, 0.014695, 0.785776399999999],
        "properties": { "magmom": 0.0 },
        "label": "W",
        "xyz": [0.0352196617563875, 0.07758921814002599, 4.334933756884941]
      },
      {
        "species": [{ "element": "W", "occu": 1 }],
        "abc": [0.49283545, 0.51468853, 0.28577358],
        "properties": { "magmom": 0.0 },
        "label": "W",
        "xyz": [2.4237271643969374, 2.5228169800627933, 0.21318821163170543]
      },
      {
        "species": [{ "element": "W", "occu": 1 }],
        "abc": [0.9928354500000001, 0.98531147, 0.21422642],
        "properties": { "magmom": 0.0 },
        "label": "W",
        "xyz": [4.882689039396937, 4.827260609937206, -1.4448104266317054]
      },
      {
        "species": [{ "element": "O", "occu": 1 }],
        "abc": [0.30000037, 0.29923611, 0.9083491100000001],
        "properties": { "magmom": -0.0 },
        "label": "O",
        "xyz": [1.4753789446317875, 1.4720536026999833, 4.255645867701265]
      },
      {
        "species": [{ "element": "O", "occu": 1 }],
        "abc": [0.80000037, 0.20076389, 0.59165089],
        "properties": { "magmom": -0.0 },
        "label": "O",
        "xyz": [3.9343408196317875, 0.9875050473000168, 2.7562262472987356]
      },
      {
        "species": [{ "element": "O", "occu": 1 }],
        "abc": [0.70000024, 0.70076404, 0.09165152],
        "properties": { "magmom": -0.0 },
        "label": "O",
        "xyz": [3.4425478053017002, 3.4327652564545383, -1.3655178121138951]
      },
      {
        "species": [{ "element": "O", "occu": 1 }],
        "abc": [0.20000024, 0.79923596, 0.40834848],
        "properties": { "magmom": -0.0 },
        "label": "O",
        "xyz": [0.9835859303016999, 3.9173123335454614, 0.13389559711389465]
      },
      {
        "species": [{ "element": "O", "occu": 1 }],
        "abc": [0.27729218, 0.26605732, 0.37903677],
        "properties": { "magmom": -0.0 },
        "label": "O",
        "xyz": [1.3637017977112749, 1.3057705208405639, 1.397873990044032]
      },
      {
        "species": [{ "element": "O", "occu": 1 }],
        "abc": [0.22271127000000002, 0.76605439, 0.87903478],
        "properties": { "magmom": 0.0 },
        "label": "O",
        "xyz": [1.0952770441256625, 3.7581652164440866, 2.84293322977899]
      },
      {
        "species": [{ "element": "O", "occu": 1 }],
        "abc": [0.77729218, 0.23394268000000001, 0.12096323],
        "properties": { "magmom": -0.0 },
        "label": "O",
        "xyz": [3.822663672711275, 1.146638539159436, 0.047188484955967946]
      },
      {
        "species": [{ "element": "O", "occu": 1 }],
        "abc": [0.72271127, 0.73394561, 0.62096522],
        "properties": { "magmom": 0.0 },
        "label": "O",
        "xyz": [3.5542389191256625, 3.599061963555913, 1.4922541952210093]
      }
    ]
  },
  "task_ids": null,
  "uncorrected_energy_per_atom": null,
  "energy_per_atom": -23.171804783333332,
  "formation_energy_per_atom": -2.069859743333334,
  "energy_above_hull": 0.0,
  "is_stable": true,
  "equilibrium_reaction_energy_per_atom": null,
  "decomposes_to": null,
  "xas": null,
  "grain_boundaries": null,
  "band_gap": 0.0,
  "cbm": null,
  "vbm": null,
  "efermi": 7.43315191,
  "is_gap_direct": null,
  "is_metal": null,
  "es_source_calc_id": null,
  "bandstructure": null,
  "dos": null,
  "dos_energy_up": null,
  "dos_energy_down": null,
  "is_magnetic": null,
  "ordering": null,
  "total_magnetization": 0.0,
  "total_magnetization_normalized_vol": null,
  "total_magnetization_normalized_formula_units": null,
  "num_magnetic_sites": null,
  "num_unique_magnetic_sites": null,
  "types_of_magnetic_species": null,
  "bulk_modulus": null,
  "shear_modulus": null,
  "universal_anisotropy": null,
  "homogeneous_poisson": null,
  "e_total": null,
  "e_ionic": null,
  "e_electronic": null,
  "n": null,
  "e_ij_max": null,
  "weighted_surface_energy_EV_PER_ANG2": null,
  "weighted_surface_energy": null,
  "weighted_work_function": null,
  "surface_anisotropy": null,
  "shape_factor": null,
  "has_reconstructed": null,
  "possible_species": null,
  "has_props": null,
  "theoretical": null,
  "database_IDs": null,
  "fields_not_requested": [
    "builder_meta",
    "nsites",
    "elements",
    "nelements",
    "composition",
    "composition_reduced",
    "chemsys",
    "symmetry",
    "property_name",
    "deprecated",
    "deprecation_reasons",
    "last_updated",
    "origins",
    "warnings",
    "task_ids",
    "uncorrected_energy_per_atom",
    "equilibrium_reaction_energy_per_atom",
    "decomposes_to",
    "xas",
    "grain_boundaries",
    "cbm",
    "vbm",
    "is_gap_direct",
    "is_metal",
    "es_source_calc_id",
    "bandstructure",
    "dos",
    "dos_energy_up",
    "dos_energy_down",
    "is_magnetic",
    "ordering",
    "total_magnetization_normalized_vol",
    "total_magnetization_normalized_formula_units",
    "num_magnetic_sites",
    "num_unique_magnetic_sites",
    "types_of_magnetic_species",
    "bulk_modulus",
    "shear_modulus",
    "universal_anisotropy",
    "homogeneous_poisson",
    "e_total",
    "e_ionic",
    "e_electronic",
    "n",
    "e_ij_max",
    "weighted_surface_energy_EV_PER_ANG2",
    "weighted_surface_energy",
    "weighted_work_function",
    "surface_anisotropy",
    "shape_factor",
    "has_reconstructed",
    "possible_species",
    "has_props",
    "theoretical",
    "database_IDs"
  ]
}
