{"builder_meta": null, "nsites": null, "elements": null, "nelements": null, "composition": null, "composition_reduced": null, "formula_pretty": "WO3", "formula_anonymous": "AB3", "chemsys": null, "volume": 458.80328245471986, "density": 6.712705038560279, "density_atomic": 14.337602576709996, "symmetry": null, "property_name": null, "material_id": "mp-2383161", "deprecated": null, "deprecation_reasons": null, "last_updated": null, "origins": null, "warnings": null, "structure": {"@module": "pymatgen.core.structure", "@class": "Structure", "charge": 0.0, "lattice": {"matrix": [[7.69379305, 0.0, 0.0], [-0.0, 7.68587757, 0.0], [0.0, 0.0, 7.75876421]], "pbc": [true, true, true], "a": 7.69379305, "b": 7.68587757, "c": 7.75876421, "alpha": 90.0, "beta": 90.0, "gamma": 90.0, "volume": 458.80328245471986}, "properties": {}, "sites": [{"species": [{"element": "W", "occu": 1}], "abc": [0.25935618, 0.50663682, 0.73554017], "properties": {"magmom": 0.0}, "label": "W", "xyz": [1.995432775158549, 3.893948570974127, 5.706882746013316]}, {"species": [{"element": "W", "occu": 1}], "abc": [0.24064382, 0.00663682, 0.7644598300000001], "properties": {"magmom": 0.0}, "label": "W", "xyz": [1.851463749841451, 0.0510097859741274, 5.931263568986685]}, {"species": [{"element": "W", "occu": 1}], "abc": [0.7406438200000001, 0.49336318, 0.26445983], "properties": {"magmom": 0.0}, "label": "W", "xyz": [5.698360274841452, 3.7919289990258727, 2.0518814639866845]}, {"species": [{"element": "W", "occu": 1}], "abc": [0.75935618, 0.99336318, 0.23554017], "properties": {"magmom": 0.0}, "label": "W", "xyz": [5.842329300158549, 7.6348677840258725, 1.8275006410133157]}, {"species": [{"element": "W", "occu": 1}], "abc": [0.24064382, 0.50663682, 0.23554017], "properties": {"magmom": 0.0}, "label": "W", "xyz": [1.851463749841451, 3.893948570974127, 1.8275006410133157]}, {"species": [{"element": "W", "occu": 1}], "abc": [0.25935618, 0.00663682, 0.26445983], "properties": {"magmom": 0.0}, "label": "W", "xyz": [1.995432775158549, 0.0510097859741274, 2.0518814639866845]}, {"species": [{"element": "W", "occu": 1}], "abc": [0.75935618, 0.49336318, 0.7644598300000001], "properties": {"magmom": 0.0}, "label": "W", "xyz": [5.842329300158549, 3.7919289990258727, 5.931263568986685]}, {"species": [{"element": "W", "occu": 1}], "abc": [0.7406438200000001, 0.99336318, 0.73554017], "properties": {"magmom": 0.0}, "label": "W", "xyz": [5.698360274841452, 7.6348677840258725, 5.706882746013316]}, {"species": [{"element": "O", "occu": 1}], "abc": [0.00200321, 0.52160225, 0.75801062], "properties": {"magmom": 0.0}, "label": "O", "xyz": [0.015412283175690501, 4.0089710337365325, 5.88122566925591]}, {"species": [{"element": "O", "occu": 1}], "abc": [0.49799679, 0.02160225, 0.74198938], "properties": {"magmom": -0.0}, "label": "O", "xyz": [3.8314842418243096, 0.1660322487365325, 5.75692064574409]}, {"species": [{"element": "O", "occu": 1}], "abc": [0.99799679, 0.47839775, 0.24198938], "properties": {"magmom": 0.0}, "label": "O", "xyz": [7.67838076682431, 3.6769065362634676, 1.8775385407440899]}, {"species": [{"element": "O", "occu": 1}], "abc": [0.50200321, 0.9783977500000001, 0.25801062], "properties": {"magmom": 0.0}, "label": "O", "xyz": [3.862308808175691, 7.5198453212634675, 2.0018435642559105]}, {"species": [{"element": "O", "occu": 1}], "abc": [0.99799679, 0.9783977500000001, 0.75801062], "properties": {"magmom": 0.0}, "label": "O", "xyz": [7.67838076682431, 7.5198453212634675, 5.88122566925591]}, {"species": [{"element": "O", "occu": 1}], "abc": [0.50200321, 0.47839775, 0.74198938], "properties": {"magmom": 0.0}, "label": "O", "xyz": [3.862308808175691, 3.6769065362634676, 5.75692064574409]}, {"species": [{"element": "O", "occu": 1}], "abc": [0.00200321, 0.02160225, 0.24198938], "properties": {"magmom": 0.0}, "label": "O", "xyz": [0.015412283175690501, 0.1660322487365325, 1.8775385407440899]}, {"species": [{"element": "O", "occu": 1}], "abc": [0.49799679, 0.52160225, 0.25801062], "properties": {"magmom": 0.0}, "label": "O", "xyz": [3.8314842418243096, 4.0089710337365325, 2.0018435642559105]}, {"species": [{"element": "O", "occu": 1}], "abc": [0.27190055, 0.7518771200000001, 0.74892915], "properties": {"magmom": 0.0}, "label": "O", "xyz": [2.0919465618811777, 5.778835492004199, 5.810764684845721]}, {"species": [{"element": "O", "occu": 1}], "abc": [0.22809945, 0.25187712, 0.7510708500000001], "properties": {"magmom": 0.0}, "label": "O", "xyz": [1.7549499631188226, 1.9358967070041984, 5.827381630154279]}, {"species": [{"element": "O", "occu": 1}], "abc": [0.72809945, 0.24812288000000002, 0.25107085], "properties": {"magmom": 0.0}, "label": "O", "xyz": [5.601846488118823, 1.9070420779958017, 1.9479995251542785]}, {"species": [{"element": "O", "occu": 1}], "abc": [0.77190055, 0.74812288, 0.24892915000000002], "properties": {"magmom": 0.0}, "label": "O", "xyz": [5.938843086881177, 5.749980862995802, 1.9313825798457216]}, {"species": [{"element": "O", "occu": 1}], "abc": [0.22809945, 0.7518771200000001, 0.24892915000000002], "properties": {"magmom": 0.0}, "label": "O", "xyz": [1.7549499631188226, 5.778835492004199, 1.9313825798457216]}, {"species": [{"element": "O", "occu": 1}], "abc": [0.27190055, 0.25187712, 0.25107085], "properties": {"magmom": 0.0}, "label": "O", "xyz": [2.0919465618811777, 1.9358967070041984, 1.9479995251542785]}, {"species": [{"element": "O", "occu": 1}], "abc": [0.77190055, 0.24812288000000002, 0.7510708500000001], "properties": {"magmom": 0.0}, "label": "O", "xyz": [5.938843086881177, 1.9070420779958017, 5.827381630154279]}, {"species": [{"element": "O", "occu": 1}], "abc": [0.72809945, 0.74812288, 0.74892915], "properties": {"magmom": 0.0}, "label": "O", "xyz": [5.601846488118823, 5.749980862995802, 5.810764684845721]}, {"species": [{"element": "O", "occu": 1}], "abc": [0.75734833, 0.49899958, 0.50309511], "properties": {"magmom": -0.0}, "label": "O", "xyz": [5.826881317783107, 3.8352496793614206, 3.9033963336940127]}, {"species": [{"element": "O", "occu": 1}], "abc": [0.24265167, 0.0010004200000000001, 0.50309511], "properties": {"magmom": -0.0}, "label": "O", "xyz": [1.8669117322168935, 0.007689105638579401, 3.9033963336940127]}, {"species": [{"element": "O", "occu": 1}], "abc": [0.74265167, 0.49899958, 0.00309511], "properties": {"magmom": -0.0}, "label": "O", "xyz": [5.713808257216893, 3.8352496793614206, 0.0240142286940131]}, {"species": [{"element": "O", "occu": 1}], "abc": [0.75734833, 0.99899958, 0.49690489], "properties": {"magmom": -0.0}, "label": "O", "xyz": [5.826881317783107, 7.67818846436142, 3.8553678763059867]}, {"species": [{"element": "O", "occu": 1}], "abc": [0.25734833, 0.0010004200000000001, 0.00309511], "properties": {"magmom": -0.0}, "label": "O", "xyz": [1.9799847927831067, 0.007689105638579401, 0.0240142286940131]}, {"species": [{"element": "O", "occu": 1}], "abc": [0.24265167, 0.50100042, 0.49690489], "properties": {"magmom": -0.0}, "label": "O", "xyz": [1.8669117322168935, 3.850627890638579, 3.8553678763059867]}, {"species": [{"element": "O", "occu": 1}], "abc": [0.74265167, 0.99899958, 0.99690489], "properties": {"magmom": -0.0}, "label": "O", "xyz": [5.713808257216893, 7.67818846436142, 7.7347499813059875]}, {"species": [{"element": "O", "occu": 1}], "abc": [0.25734833, 0.50100042, 0.99690489], "properties": {"magmom": -0.0}, "label": "O", "xyz": [1.9799847927831067, 3.850627890638579, 7.7347499813059875]}]}, "task_ids": null, "uncorrected_energy_per_atom": null, "energy_per_atom": -9.1413639178125, "formation_energy_per_atom": -2.190860606562499, "energy_above_hull": 0.0, "is_stable": true, "equilibrium_reaction_energy_per_atom": null, "decomposes_to": null, "xas": null, "grain_boundaries": null, "band_gap": 1.358499999999999, "cbm": null, "vbm": null, "efermi": 0.453507, "is_gap_direct": null, "is_metal": null, "es_source_calc_id": null, "bandstructure": null, "dos": null, "dos_energy_up": null, "dos_energy_down": null, "is_magnetic": null, "ordering": null, "total_magnetization": 0.0, "total_magnetization_normalized_vol": null, "total_magnetization_normalized_formula_units": null, "num_magnetic_sites": null, "num_unique_magnetic_sites": null, "types_of_magnetic_species": null, "bulk_modulus": null, "shear_modulus": null, "universal_anisotropy": null, "homogeneous_poisson": null, "e_total": null, "e_ionic": null, "e_electronic": null, "n": null, "e_ij_max": null, "weighted_surface_energy_EV_PER_ANG2": null, "weighted_surface_energy": null, "weighted_work_function": null, "surface_anisotropy": null, "shape_factor": null, "has_reconstructed": null, "possible_species": null, "has_props": null, "theoretical": null, "database_IDs": null, "fields_not_requested": ["builder_meta", "nsites", "elements", "nelements", "composition", "composition_reduced", "chemsys", "symmetry", "property_name", "deprecated", "deprecation_reasons", "last_updated", "origins", "warnings", "task_ids", "uncorrected_energy_per_atom", "equilibrium_reaction_energy_per_atom", "decomposes_to", "xas", "grain_boundaries", "cbm", "vbm", "is_gap_direct", "is_metal", "es_source_calc_id", "bandstructure", "dos", "dos_energy_up", "dos_energy_down", "is_magnetic", "ordering", "total_magnetization_normalized_vol", "total_magnetization_normalized_formula_units", "num_magnetic_sites", "num_unique_magnetic_sites", "types_of_magnetic_species", "bulk_modulus", "shear_modulus", "universal_anisotropy", "homogeneous_poisson", "e_total", "e_ionic", "e_electronic", "n", "e_ij_max", "weighted_surface_energy_EV_PER_ANG2", "weighted_surface_energy", "weighted_work_function", "surface_anisotropy", "shape_factor", "has_reconstructed", "possible_species", "has_props", "theoretical", "database_IDs"]}