{"builder_meta": null, "nsites": null, "elements": null, "nelements": null, "composition": null, "composition_reduced": null, "formula_pretty": "WO5", "formula_anonymous": "AB5", "chemsys": null, "volume": 489.1129169989403, "density": 3.582907999262619, "density_atomic": 20.379704874955845, "symmetry": null, "property_name": null, "material_id": "mp-1178865", "deprecated": null, "deprecation_reasons": null, "last_updated": null, "origins": null, "warnings": null, "structure": {"@module": "pymatgen.core.structure", "@class": "Structure", "charge": 0, "lattice": {"matrix": [[3.86098, 0.0, 0.0], [0.0, 10.507271, 0.0], [0.0, 2.169728, 12.056511]], "pbc": [true, true, true], "a": 3.86098, "b": 10.507271, "c": 12.250190900027027, "alpha": 79.79806998786788, "beta": 90.0, "gamma": 90.0, "volume": 489.1129169989403}, "properties": {}, "sites": [{"species": [{"element": "W", "occu": 1}], "abc": [0.456995, 0.135811, 0.464547999999999], "properties": {"magmom": 0.002}, "label": "W", "xyz": [1.7644485551, 2.434945784724998, 5.600828072027988]}, {"species": [{"element": "W", "occu": 1}], "abc": [0.956994999999999, 0.864189, 0.535451999999999], "properties": {"magmom": 0.002}, "label": "W", "xyz": [3.6949385550999962, 10.242053215274998, 6.4556829279719885]}, {"species": [{"element": "W", "occu": 1}], "abc": [0.509483, 0.8647100000000001, 0.036872999999999004], "properties": {"magmom": 0.002}, "label": "W", "xyz": [1.96710367334, 9.165746686954, 0.444559730102988]}, {"species": [{"element": "W", "occu": 1}], "abc": [0.009483, 0.13529000000000002, 0.963127], "properties": {"magmom": 0.002}, "label": "W", "xyz": [0.03661367334, 3.5112523130460005, 11.611951269897]}, {"species": [{"element": "O", "occu": 1}], "abc": [0.458416999999999, 0.215202999999999, 0.327619], "properties": {"magmom": 0.001}, "label": "O", "xyz": [1.7699388686599962, 2.9720403586449895, 3.949942077309]}, {"species": [{"element": "O", "occu": 1}], "abc": [0.958417, 0.784797, 0.672381], "properties": {"magmom": 0.001}, "label": "O", "xyz": [3.70042886866, 9.704958641354999, 8.106568922691]}, {"species": [{"element": "O", "occu": 1}], "abc": [0.506081, 0.785084, 0.173753], "properties": {"magmom": 0.001}, "label": "O", "xyz": [1.95396861938, 8.626087094948, 2.094854955783]}, {"species": [{"element": "O", "occu": 1}], "abc": [0.006081, 0.214916, 0.826247], "properties": {"magmom": 0.001}, "label": "O", "xyz": [0.02347861938, 4.050911905052, 9.961656044217]}, {"species": [{"element": "O", "occu": 1}], "abc": [0.956876, 0.073693, 0.480668], "properties": {"magmom": -0.0}, "label": "O", "xyz": [3.69447909848, 1.8172311401069998, 5.795179029348]}, {"species": [{"element": "O", "occu": 1}], "abc": [0.456876, 0.926307, 0.519332], "properties": {"magmom": -0.0}, "label": "O", "xyz": [1.76398909848, 10.859767859893, 6.261331970652001]}, {"species": [{"element": "O", "occu": 1}], "abc": [0.009588, 0.927087999999999, 0.020867999999999002], "properties": {"magmom": 0.0}, "label": "O", "xyz": [0.03701907624, 9.786442740751987, 0.251595271547988]}, {"species": [{"element": "O", "occu": 1}], "abc": [0.509587999999999, 0.072911999999999, 0.979132], "properties": {"magmom": 0.0}, "label": "O", "xyz": [1.9675090762399963, 2.89055625924799, 11.804915728452]}, {"species": [{"element": "O", "occu": 1}], "abc": [0.458875, 0.250843, 0.549897], "properties": {"magmom": 0.001}, "label": "O", "xyz": [1.7717071975, 3.8288022974689997, 6.629839229367]}, {"species": [{"element": "O", "occu": 1}], "abc": [0.958874999999999, 0.749157, 0.450103], "properties": {"magmom": 0.001}, "label": "O", "xyz": [3.7021971974999963, 8.848196702530998, 5.426671770633]}, {"species": [{"element": "O", "occu": 1}], "abc": [0.507806, 0.749953, 0.951322999999999], "properties": {"magmom": 0.0}, "label": "O", "xyz": [1.96062880988, 9.944071558406996, 11.469636214052988]}, {"species": [{"element": "O", "occu": 1}], "abc": [0.007806, 0.250046999999999, 0.048677], "properties": {"magmom": 0.0}, "label": "O", "xyz": [0.03013880988, 2.7329274415929894, 0.586874785947]}, {"species": [{"element": "O", "occu": 1}], "abc": [0.549196, 0.510610999999999, 0.376855999999999], "properties": {"magmom": 0.81}, "label": "O", "xyz": [2.1204347720800003, 6.182803167748988, 4.543568509415988]}, {"species": [{"element": "O", "occu": 1}], "abc": [0.049196, 0.489388999999999, 0.623143999999999], "properties": {"magmom": 0.81}, "label": "O", "xyz": [0.18994477208, 6.494195832250987, 7.512942490583988]}, {"species": [{"element": "O", "occu": 1}], "abc": [0.535067, 0.455767, 0.132026], "properties": {"magmom": 0.8140000000000001}, "label": "O", "xyz": [2.06588298566, 5.075327890784999, 1.5917729212860001]}, {"species": [{"element": "O", "occu": 1}], "abc": [0.035067, 0.544233, 0.867973999999999], "properties": {"magmom": 0.8140000000000001}, "label": "O", "xyz": [0.13539298566, 7.601671109214998, 10.464738078713989]}, {"species": [{"element": "O", "occu": 1}], "abc": [0.23727499999999901, 0.48801799999999906, 0.371258], "properties": {"magmom": 0.809}, "label": "O", "xyz": [0.9161140294999962, 5.93326625670199, 4.476076160838]}, {"species": [{"element": "O", "occu": 1}], "abc": [0.737275, 0.511981999999999, 0.628742], "properties": {"magmom": 0.809}, "label": "O", "xyz": [2.8466040295, 6.74373274329799, 7.580434839162001]}, {"species": [{"element": "O", "occu": 1}], "abc": [0.814341, 0.513066, 0.129717], "properties": {"magmom": 0.807}, "label": "O", "xyz": [3.14415431418, 5.672374109862, 1.563934437387]}, {"species": [{"element": "O", "occu": 1}], "abc": [0.314341, 0.486934, 0.870282999999999], "properties": {"magmom": 0.807}, "label": "O", "xyz": [1.2136643141799999, 7.004624890137997, 10.492576562612989]}]}, "task_ids": null, "uncorrected_energy_per_atom": null, "energy_per_atom": -7.309211220833333, "formation_energy_per_atom": -1.026222011666665, "energy_above_hull": 0.43435172604166505, "is_stable": false, "equilibrium_reaction_energy_per_atom": null, "decomposes_to": null, "xas": null, "grain_boundaries": null, "band_gap": 1.4506000000000001, "cbm": null, "vbm": null, "efermi": 0.41664366, "is_gap_direct": null, "is_metal": null, "es_source_calc_id": null, "bandstructure": null, "dos": null, "dos_energy_up": null, "dos_energy_down": null, "is_magnetic": null, "ordering": null, "total_magnetization": 7.9995913, "total_magnetization_normalized_vol": null, "total_magnetization_normalized_formula_units": null, "num_magnetic_sites": null, "num_unique_magnetic_sites": null, "types_of_magnetic_species": null, "bulk_modulus": null, "shear_modulus": null, "universal_anisotropy": null, "homogeneous_poisson": null, "e_total": null, "e_ionic": null, "e_electronic": null, "n": null, "e_ij_max": null, "weighted_surface_energy_EV_PER_ANG2": null, "weighted_surface_energy": null, "weighted_work_function": null, "surface_anisotropy": null, "shape_factor": null, "has_reconstructed": null, "possible_species": null, "has_props": null, "theoretical": null, "database_IDs": null, "fields_not_requested": ["builder_meta", "nsites", "elements", "nelements", "composition", "composition_reduced", "chemsys", "symmetry", "property_name", "deprecated", "deprecation_reasons", "last_updated", "origins", "warnings", "task_ids", "uncorrected_energy_per_atom", "equilibrium_reaction_energy_per_atom", "decomposes_to", "xas", "grain_boundaries", "cbm", "vbm", "is_gap_direct", "is_metal", "es_source_calc_id", "bandstructure", "dos", "dos_energy_up", "dos_energy_down", "is_magnetic", "ordering", "total_magnetization_normalized_vol", "total_magnetization_normalized_formula_units", "num_magnetic_sites", "num_unique_magnetic_sites", "types_of_magnetic_species", "bulk_modulus", "shear_modulus", "universal_anisotropy", "homogeneous_poisson", "e_total", "e_ionic", "e_electronic", "n", "e_ij_max", "weighted_surface_energy_EV_PER_ANG2", "weighted_surface_energy", "weighted_work_function", "surface_anisotropy", "shape_factor", "has_reconstructed", "possible_species", "has_props", "theoretical", "database_IDs"]}