{"builder_meta": null, "nsites": null, "elements": null, "nelements": null, "composition": null, "composition_reduced": null, "formula_pretty": "WS2", "formula_anonymous": "AB2", "chemsys": null, "volume": 113.96060830514946, "density": 7.226424612305195, "density_atomic": 18.99343471752491, "symmetry": null, "property_name": null, "material_id": "mp-224", "deprecated": null, "deprecation_reasons": null, "last_updated": null, "origins": null, "warnings": null, "structure": {"@module": "pymatgen.core.structure", "@class": "Structure", "charge": 0, "lattice": {"matrix": [[3.18422303, -0.0, 0.0], [1.59211152, 2.75761772, 0.0], [-0.0, -0.0, 12.97828236]], "pbc": [true, true, true], "a": 3.18422303, "b": 3.184222759446127, "c": 12.97828236, "alpha": 90.0, "beta": 90.0, "gamma": 59.99999708542767, "volume": 113.96060830514946}, "properties": {}, "sites": [{"species": [{"element": "W", "occu": 1}], "abc": [0.666666, 0.666667, 0.75], "properties": {"magmom": 0.0}, "label": "W", "xyz": [3.18422144122182, 1.8384127325392399, 9.73371177]}, {"species": [{"element": "W", "occu": 1}], "abc": [0.333333999999999, 0.333333, 0.25], "properties": {"magmom": 0.0}, "label": "W", "xyz": [1.5921131087781768, 0.91920498746076, 3.24457059]}, {"species": [{"element": "S", "occu": 1}], "abc": [0.666666, 0.666667, 0.12980494], "properties": {"magmom": -0.0}, "label": "S", "xyz": [3.18422144122182, 1.8384127325392399, 1.6846451630428585]}, {"species": [{"element": "S", "occu": 1}], "abc": [0.333333999999999, 0.333333, 0.6298039400000001], "properties": {"magmom": -0.0}, "label": "S", "xyz": [1.5921131087781768, 0.91920498746076, 8.1737733647605]}, {"species": [{"element": "S", "occu": 1}], "abc": [0.666666, 0.666667, 0.37019506], "properties": {"magmom": -0.0}, "label": "S", "xyz": [3.18422144122182, 1.8384127325392399, 4.804496016957142]}, {"species": [{"element": "S", "occu": 1}], "abc": [0.333333999999999, 0.333333, 0.87019606], "properties": {"magmom": -0.0}, "label": "S", "xyz": [1.5921131087781768, 0.91920498746076, 11.293650175239502]}]}, "task_ids": null, "uncorrected_energy_per_atom": null, "energy_per_atom": -23.362202953333334, "formation_energy_per_atom": -0.882938771874999, "energy_above_hull": 0.0, "is_stable": true, "equilibrium_reaction_energy_per_atom": null, "decomposes_to": null, "xas": null, "grain_boundaries": null, "band_gap": 1.2557, "cbm": null, "vbm": null, "efermi": 5.29251211, "is_gap_direct": null, "is_metal": null, "es_source_calc_id": null, "bandstructure": null, "dos": null, "dos_energy_up": null, "dos_energy_down": null, "is_magnetic": null, "ordering": null, "total_magnetization": 0.0, "total_magnetization_normalized_vol": null, "total_magnetization_normalized_formula_units": null, "num_magnetic_sites": null, "num_unique_magnetic_sites": null, "types_of_magnetic_species": null, "bulk_modulus": null, "shear_modulus": null, "universal_anisotropy": null, "homogeneous_poisson": null, "e_total": null, "e_ionic": null, "e_electronic": null, "n": null, "e_ij_max": null, "weighted_surface_energy_EV_PER_ANG2": null, "weighted_surface_energy": null, "weighted_work_function": null, "surface_anisotropy": null, "shape_factor": null, "has_reconstructed": null, "possible_species": null, "has_props": null, "theoretical": null, "database_IDs": null, "fields_not_requested": ["builder_meta", "nsites", "elements", "nelements", "composition", "composition_reduced", "chemsys", "symmetry", "property_name", "deprecated", "deprecation_reasons", "last_updated", "origins", "warnings", "task_ids", "uncorrected_energy_per_atom", "equilibrium_reaction_energy_per_atom", "decomposes_to", "xas", "grain_boundaries", "cbm", "vbm", "is_gap_direct", "is_metal", "es_source_calc_id", "bandstructure", "dos", "dos_energy_up", "dos_energy_down", "is_magnetic", "ordering", "total_magnetization_normalized_vol", "total_magnetization_normalized_formula_units", "num_magnetic_sites", "num_unique_magnetic_sites", "types_of_magnetic_species", "bulk_modulus", "shear_modulus", "universal_anisotropy", "homogeneous_poisson", "e_total", "e_ionic", "e_electronic", "n", "e_ij_max", "weighted_surface_energy_EV_PER_ANG2", "weighted_surface_energy", "weighted_work_function", "surface_anisotropy", "shape_factor", "has_reconstructed", "possible_species", "has_props", "theoretical", "database_IDs"]}