{"builder_meta": null, "nsites": null, "elements": null, "nelements": null, "composition": null, "composition_reduced": null, "formula_pretty": "WSe2", "formula_anonymous": "AB2", "chemsys": null, "volume": 131.12545319316163, "density": 8.65592175403535, "density_atomic": 21.854242198860273, "symmetry": null, "property_name": null, "material_id": "mp-1821", "deprecated": null, "deprecation_reasons": null, "last_updated": null, "origins": null, "warnings": null, "structure": {"@module": "pymatgen.core.structure", "@class": "Structure", "charge": 0, "lattice": {"matrix": [[3.319932129999999, -2e-08, 0.0], [-1.65996761, 2.8751465, -0.0], [0.0, -0.0, 13.7371873]], "pbc": [true, true, true], "a": 3.319932129999999, "b": 3.3199337136020297, "c": 13.7371873, "alpha": 90.0, "beta": 90.0, "gamma": 120.00001535487395, "volume": 131.1254531931616}, "properties": {}, "sites": [{"species": [{"element": "W", "occu": 1}], "abc": [0.666667, 0.333333, 0.75], "properties": {"magmom": 0.0}, "label": "W", "xyz": [1.6599672099665792, 0.95838119495116, 10.302890475]}, {"species": [{"element": "W", "occu": 1}], "abc": [0.333333, 0.666667, 0.25], "properties": {"magmom": 0.0}, "label": "W", "xyz": [-2.689966580371461e-06, 1.9167652850488401, 3.434296825]}, {"species": [{"element": "Se", "occu": 1}], "abc": [0.333333, 0.666667, 0.87100079], "properties": {"magmom": -0.0}, "label": "Se", "xyz": [-2.689966580371461e-06, 1.9167652850488401, 11.965100990677968]}, {"species": [{"element": "Se", "occu": 1}], "abc": [0.666667, 0.333333, 0.37100079], "properties": {"magmom": -0.0}, "label": "Se", "xyz": [1.6599672099665792, 0.95838119495116, 5.0965073406779675]}, {"species": [{"element": "Se", "occu": 1}], "abc": [0.333333, 0.666667, 0.62899921], "properties": {"magmom": -0.0}, "label": "Se", "xyz": [-2.689966580371461e-06, 1.9167652850488401, 8.640679959322034]}, {"species": [{"element": "Se", "occu": 1}], "abc": [0.666667, 0.333333, 0.12899921], "properties": {"magmom": -0.0}, "label": "Se", "xyz": [1.6599672099665792, 0.95838119495116, 1.7720863093220331]}]}, "task_ids": null, "uncorrected_energy_per_atom": null, "energy_per_atom": -27.267257786666665, "formation_energy_per_atom": -0.603619506041667, "energy_above_hull": 0.0, "is_stable": true, "equilibrium_reaction_energy_per_atom": null, "decomposes_to": null, "xas": null, "grain_boundaries": null, "band_gap": 1.4465, "cbm": null, "vbm": null, "efermi": 3.4107938, "is_gap_direct": null, "is_metal": null, "es_source_calc_id": null, "bandstructure": null, "dos": null, "dos_energy_up": null, "dos_energy_down": null, "is_magnetic": null, "ordering": null, "total_magnetization": 0.0, "total_magnetization_normalized_vol": null, "total_magnetization_normalized_formula_units": null, "num_magnetic_sites": null, "num_unique_magnetic_sites": null, "types_of_magnetic_species": null, "bulk_modulus": null, "shear_modulus": null, "universal_anisotropy": null, "homogeneous_poisson": null, "e_total": null, "e_ionic": null, "e_electronic": null, "n": null, "e_ij_max": null, "weighted_surface_energy_EV_PER_ANG2": null, "weighted_surface_energy": null, "weighted_work_function": null, "surface_anisotropy": null, "shape_factor": null, "has_reconstructed": null, "possible_species": null, "has_props": null, "theoretical": null, "database_IDs": null, "fields_not_requested": ["builder_meta", "nsites", "elements", "nelements", "composition", "composition_reduced", "chemsys", "symmetry", "property_name", "deprecated", "deprecation_reasons", "last_updated", "origins", "warnings", "task_ids", "uncorrected_energy_per_atom", "equilibrium_reaction_energy_per_atom", "decomposes_to", "xas", "grain_boundaries", "cbm", "vbm", "is_gap_direct", "is_metal", "es_source_calc_id", "bandstructure", "dos", "dos_energy_up", "dos_energy_down", "is_magnetic", "ordering", "total_magnetization_normalized_vol", "total_magnetization_normalized_formula_units", "num_magnetic_sites", "num_unique_magnetic_sites", "types_of_magnetic_species", "bulk_modulus", "shear_modulus", "universal_anisotropy", "homogeneous_poisson", "e_total", "e_ionic", "e_electronic", "n", "e_ij_max", "weighted_surface_energy_EV_PER_ANG2", "weighted_surface_energy", "weighted_work_function", "surface_anisotropy", "shape_factor", "has_reconstructed", "possible_species", "has_props", "theoretical", "database_IDs"]}