{"builder_meta": null, "nsites": null, "elements": null, "nelements": null, "composition": null, "composition_reduced": null, "formula_pretty": "XeF3", "formula_anonymous": "AB3", "chemsys": null, "volume": 296.87070429752225, "density": 4.212742090005931, "density_atomic": 18.55441901859514, "symmetry": null, "property_name": null, "material_id": "mp-561153", "deprecated": null, "deprecation_reasons": null, "last_updated": null, "origins": null, "warnings": null, "structure": {"@module": "pymatgen.core.structure", "@class": "Structure", "charge": 0, "lattice": {"matrix": [[6.29773452, 0.00120204, 0.0], [-0.30454108, 6.42809409, 0.0], [0.0, 0.0, 7.33325592]], "pbc": [true, true, true], "a": 6.297734634715867, "b": 6.435304103094157, "c": 7.33325592, "alpha": 90.0, "beta": 90.0, "gamma": 92.7015136252825, "volume": 296.87070429752225}, "properties": {}, "sites": [{"species": [{"element": "Xe", "occu": 1}], "abc": [0.5, 0.0, 0.5], "properties": {"magmom": -0.0}, "label": "Xe", "xyz": [3.14886726, 0.00060102, 3.66662796]}, {"species": [{"element": "Xe", "occu": 1}], "abc": [-0.0, 0.0, -0.0], "properties": {"magmom": -0.0}, "label": "Xe", "xyz": [0.0, 0.0, 0.0]}, {"species": [{"element": "Xe", "occu": 1}], "abc": [-0.0, 0.5, 0.5], "properties": {"magmom": -0.0}, "label": "Xe", "xyz": [-0.15227054, 3.214047045, 3.66662796]}, {"species": [{"element": "Xe", "occu": 1}], "abc": [0.5, 0.5, -0.0], "properties": {"magmom": -0.0}, "label": "Xe", "xyz": [2.99659672, 3.214648065, 0.0]}, {"species": [{"element": "F", "occu": 1}], "abc": [0.83500377, 0.82025054, 0.18998259], "properties": {"magmom": 0.0}, "label": "F", "xyz": [5.008832081336957, 5.273651356425, 1.3931909528144328]}, {"species": [{"element": "F", "occu": 1}], "abc": [0.16499623, 0.17974946, 0.81001741], "properties": {"magmom": 0.0}, "label": "F", "xyz": [0.9843613586630426, 1.1556447735750006, 5.940064967185568]}, {"species": [{"element": "F", "occu": 1}], "abc": [0.52448002, 0.21116226000000002, 0.10247376], "properties": {"magmom": 0.0}, "label": "F", "xyz": [3.2387283442886496, 1.3580013215002844, 0.7514663071646592]}, {"species": [{"element": "F", "occu": 1}], "abc": [0.69572196, 0.49769216, 0.41183628], "properties": {"magmom": 0.0}, "label": "F", "xyz": [4.229904495900126, 3.200048317960133, 3.0201008383807775]}, {"species": [{"element": "F", "occu": 1}], "abc": [0.80427804, 0.5023078400000001, 0.91183628], "properties": {"magmom": 0.0}, "label": "F", "xyz": [4.912156204099873, 3.2298488320398677, 6.686728798380778]}, {"species": [{"element": "F", "occu": 1}], "abc": [0.19572196, 0.49769216, 0.08816372], "properties": {"magmom": 0.0}, "label": "F", "xyz": [1.0810372359001263, 3.199447297960133, 0.6465271216192224]}, {"species": [{"element": "F", "occu": 1}], "abc": [0.30427804, 0.5023078400000001, 0.5881637200000001], "properties": {"magmom": 0.0}, "label": "F", "xyz": [1.7632889440998736, 3.2292478120398678, 4.313155081619223]}, {"species": [{"element": "F", "occu": 1}], "abc": [0.02448002, 0.21116226000000002, 0.39752624000000003], "properties": {"magmom": 0.0}, "label": "F", "xyz": [0.0898610842886496, 1.3574003015002842, 2.9151616528353412]}, {"species": [{"element": "F", "occu": 1}], "abc": [0.66499623, 0.17974946, 0.6899825900000001], "properties": {"magmom": 0.0}, "label": "F", "xyz": [4.1332286186630425, 1.1562457935750006, 5.059818912814433]}, {"species": [{"element": "F", "occu": 1}], "abc": [0.47551998, 0.7888377400000001, 0.89752624], "properties": {"magmom": 0.0}, "label": "F", "xyz": [2.75446509571135, 5.071294808499716, 6.581789612835341]}, {"species": [{"element": "F", "occu": 1}], "abc": [0.33500377000000003, 0.82025054, 0.31001741], "properties": {"magmom": 0.0}, "label": "F", "xyz": [1.8599648213369573, 5.273050336424999, 2.273437007185567]}, {"species": [{"element": "F", "occu": 1}], "abc": [0.9755199800000001, 0.7888377400000001, 0.60247376], "properties": {"magmom": 0.0}, "label": "F", "xyz": [5.90333235571135, 5.071895828499716, 4.418094267164659]}]}, "task_ids": null, "uncorrected_energy_per_atom": null, "energy_per_atom": -2.279555219375, "formation_energy_per_atom": -0.835122395625, "energy_above_hull": 0.0, "is_stable": true, "equilibrium_reaction_energy_per_atom": null, "decomposes_to": null, "xas": null, "grain_boundaries": null, "band_gap": 2.6269, "cbm": null, "vbm": null, "efermi": -4.34235979, "is_gap_direct": null, "is_metal": null, "es_source_calc_id": null, "bandstructure": null, "dos": null, "dos_energy_up": null, "dos_energy_down": null, "is_magnetic": null, "ordering": null, "total_magnetization": 0.0, "total_magnetization_normalized_vol": null, "total_magnetization_normalized_formula_units": null, "num_magnetic_sites": null, "num_unique_magnetic_sites": null, "types_of_magnetic_species": null, "bulk_modulus": null, "shear_modulus": null, "universal_anisotropy": null, "homogeneous_poisson": null, "e_total": null, "e_ionic": null, "e_electronic": null, "n": null, "e_ij_max": null, "weighted_surface_energy_EV_PER_ANG2": null, "weighted_surface_energy": null, "weighted_work_function": null, "surface_anisotropy": null, "shape_factor": null, "has_reconstructed": null, "possible_species": null, "has_props": null, "theoretical": null, "database_IDs": null, "fields_not_requested": ["builder_meta", "nsites", "elements", "nelements", "composition", "composition_reduced", "chemsys", "symmetry", "property_name", "deprecated", "deprecation_reasons", "last_updated", "origins", "warnings", "task_ids", "uncorrected_energy_per_atom", "equilibrium_reaction_energy_per_atom", "decomposes_to", "xas", "grain_boundaries", "cbm", "vbm", "is_gap_direct", "is_metal", "es_source_calc_id", "bandstructure", "dos", "dos_energy_up", "dos_energy_down", "is_magnetic", "ordering", "total_magnetization_normalized_vol", "total_magnetization_normalized_formula_units", "num_magnetic_sites", "num_unique_magnetic_sites", "types_of_magnetic_species", "bulk_modulus", "shear_modulus", "universal_anisotropy", "homogeneous_poisson", "e_total", "e_ionic", "e_electronic", "n", "e_ij_max", "weighted_surface_energy_EV_PER_ANG2", "weighted_surface_energy", "weighted_work_function", "surface_anisotropy", "shape_factor", "has_reconstructed", "possible_species", "has_props", "theoretical", "database_IDs"]}