{"builder_meta": null, "nsites": null, "elements": null, "nelements": null, "composition": null, "composition_reduced": null, "formula_pretty": "XeF4", "formula_anonymous": "AB4", "chemsys": null, "volume": 163.65901264311847, "density": 4.206398571989196, "density_atomic": 16.365901264311848, "symmetry": null, "property_name": null, "material_id": "mp-23185", "deprecated": null, "deprecation_reasons": null, "last_updated": null, "origins": null, "warnings": null, "structure": {"@module": "pymatgen.core.structure", "@class": "Structure", "charge": 0, "lattice": {"matrix": [[4.97037029, -0.05047312, 0.0], [-1.04988376, 5.79891983, 0.0], [0.0, 0.0, 5.68857209]], "pbc": [true, true, true], "a": 4.97062655563232, "b": 5.89319328584079, "c": 5.68857209, "alpha": 90.0, "beta": 90.0, "gamma": 100.84394067317614, "volume": 163.65901264311847}, "properties": {}, "sites": [{"species": [{"element": "Xe", "occu": 1}], "abc": [0.5, 0.5, 0.5], "properties": {"magmom": -0.0}, "label": "Xe", "xyz": [1.960243265, 2.874223355, 2.844286045]}, {"species": [{"element": "Xe", "occu": 1}], "abc": [-0.0, 0.0, 0.0], "properties": {"magmom": -0.0}, "label": "Xe", "xyz": [0.0, 0.0, 0.0]}, {"species": [{"element": "F", "occu": 1}], "abc": [0.21458474, 0.65114185, 0.6555495], "properties": {"magmom": -0.0}, "label": "F", "xyz": [0.3829423626120185, 3.765088624775697, 3.729140589313455]}, {"species": [{"element": "F", "occu": 1}], "abc": [0.28541526, 0.84885815, 0.155549499999999], "properties": {"magmom": -0.0}, "label": "F", "xyz": [0.5274171423879815, 4.908054560224303, 0.8848545443134493]}, {"species": [{"element": "F", "occu": 1}], "abc": [0.25046389, 0.31227405, 0.02036454], "properties": {"magmom": -0.0}, "label": "F", "xyz": [0.9170468238094002, 1.7982104869637747, 0.1158451538696886]}, {"species": [{"element": "F", "occu": 1}], "abc": [0.24953611, 0.18772595, 0.52036454], "properties": {"magmom": -0.0}, "label": "F", "xyz": [1.0431964411906, 1.0760128680362253, 2.960131198869689]}, {"species": [{"element": "F", "occu": 1}], "abc": [0.74953611, 0.68772595, 0.97963546], "properties": {"magmom": -0.0}, "label": "F", "xyz": [3.0034397061906, 3.950236223036226, 5.572726936130311]}, {"species": [{"element": "F", "occu": 1}], "abc": [0.75046389, 0.81227405, 0.47963546], "properties": {"magmom": -0.0}, "label": "F", "xyz": [2.8772900888094, 4.672433841963774, 2.7284408911303113]}, {"species": [{"element": "F", "occu": 1}], "abc": [0.71458474, 0.15114185, 0.8444505], "properties": {"magmom": -0.0}, "label": "F", "xyz": [3.3930693876120186, 0.8403921497756967, 4.803717545686545]}, {"species": [{"element": "F", "occu": 1}], "abc": [0.7854152600000001, 0.34885815000000003, 0.3444505], "properties": {"magmom": -0.0}, "label": "F", "xyz": [3.5375441673879817, 1.9833580852243036, 1.959431500686545]}]}, "task_ids": null, "uncorrected_energy_per_atom": null, "energy_per_atom": -2.395933059999999, "formation_energy_per_atom": -0.857616325999999, "energy_above_hull": 0.0, "is_stable": true, "equilibrium_reaction_energy_per_atom": null, "decomposes_to": null, "xas": null, "grain_boundaries": null, "band_gap": 2.8624, "cbm": null, "vbm": null, "efermi": -4.22302894, "is_gap_direct": null, "is_metal": null, "es_source_calc_id": null, "bandstructure": null, "dos": null, "dos_energy_up": null, "dos_energy_down": null, "is_magnetic": null, "ordering": null, "total_magnetization": 0.0, "total_magnetization_normalized_vol": null, "total_magnetization_normalized_formula_units": null, "num_magnetic_sites": null, "num_unique_magnetic_sites": null, "types_of_magnetic_species": null, "bulk_modulus": null, "shear_modulus": null, "universal_anisotropy": null, "homogeneous_poisson": null, "e_total": null, "e_ionic": null, "e_electronic": null, "n": null, "e_ij_max": null, "weighted_surface_energy_EV_PER_ANG2": null, "weighted_surface_energy": null, "weighted_work_function": null, "surface_anisotropy": null, "shape_factor": null, "has_reconstructed": null, "possible_species": null, "has_props": null, "theoretical": null, "database_IDs": null, "fields_not_requested": ["builder_meta", "nsites", "elements", "nelements", "composition", "composition_reduced", "chemsys", "symmetry", "property_name", "deprecated", "deprecation_reasons", "last_updated", "origins", "warnings", "task_ids", "uncorrected_energy_per_atom", "equilibrium_reaction_energy_per_atom", "decomposes_to", "xas", "grain_boundaries", "cbm", "vbm", "is_gap_direct", "is_metal", "es_source_calc_id", "bandstructure", "dos", "dos_energy_up", "dos_energy_down", "is_magnetic", "ordering", "total_magnetization_normalized_vol", "total_magnetization_normalized_formula_units", "num_magnetic_sites", "num_unique_magnetic_sites", "types_of_magnetic_species", "bulk_modulus", "shear_modulus", "universal_anisotropy", "homogeneous_poisson", "e_total", "e_ionic", "e_electronic", "n", "e_ij_max", "weighted_surface_energy_EV_PER_ANG2", "weighted_surface_energy", "weighted_work_function", "surface_anisotropy", "shape_factor", "has_reconstructed", "possible_species", "has_props", "theoretical", "database_IDs"]}