{
  "builder_meta": null,
  "nsites": null,
  "elements": null,
  "nelements": null,
  "composition": null,
  "composition_reduced": null,
  "formula_pretty": "XeF6",
  "formula_anonymous": "AB6",
  "chemsys": null,
  "volume": 1925.7641174315104,
  "density": 3.384029819926771,
  "density_atomic": 17.194322477067058,
  "symmetry": null,
  "property_name": null,
  "material_id": "mp-560366",
  "deprecated": null,
  "deprecation_reasons": null,
  "last_updated": null,
  "origins": null,
  "warnings": null,
  "structure": {
    "@module": "pymatgen.core.structure",
    "@class": "Structure",
    "charge": 0,
    "lattice": {
      "matrix": [
        [8.886361, 0.0, 0.0],
        [0.0, 15.152776, 0.0],
        [0.0, 5.342218, 14.301676]
      ],
      "pbc": [true, true, true],
      "a": 8.886361,
      "b": 15.152776,
      "c": 15.266867051510602,
      "alpha": 69.51743421440696,
      "beta": 90.0,
      "gamma": 90.0,
      "volume": 1925.7641174315104
    },
    "properties": {},
    "sites": [
      {
        "species": [{ "element": "Xe", "occu": 1 }],
        "abc": [0.131863999999999, 0.906021, 0.705812999999999],
        "properties": { "magmom": -0.0 },
        "label": "Xe",
        "xyz": [1.1717911069039912, 17.499340177529994, 10.094308842587987]
      },
      {
        "species": [{ "element": "Xe", "occu": 1 }],
        "abc": [0.015737, 0.791752, 0.095787],
        "properties": { "magmom": -0.0 },
        "label": "Xe",
        "xyz": [0.13984466305700002, 12.508955739118, 1.369914639012]
      },
      {
        "species": [{ "element": "Xe", "occu": 1 }],
        "abc": [0.910177, 0.391268, 0.199692999999999],
        "properties": { "magmom": 0.0 },
        "label": "Xe",
        "xyz": [8.088161395897, 6.995599899041994, 2.855944585467986]
      },
      {
        "species": [{ "element": "Xe", "occu": 1 }],
        "abc": [0.0018889999999990002, 0.689091, 0.393243],
        "properties": { "magmom": -0.0 },
        "label": "Xe",
        "xyz": [0.016786335928991116, 12.542431399589999, 5.624033975268]
      },
      {
        "species": [{ "element": "Xe", "occu": 1 }],
        "abc": [0.501889, 0.310909, 0.106756999999999],
        "properties": { "magmom": -0.0 },
        "label": "Xe",
        "xyz": [4.459966835929, 5.281453600409994, 1.5268040247319858]
      },
      {
        "species": [{ "element": "Xe", "occu": 1 }],
        "abc": [0.589823, 0.391268, 0.699693],
        "properties": { "magmom": 0.0 },
        "label": "Xe",
        "xyz": [5.241380104103, 9.666708899042, 10.006782585468]
      },
      {
        "species": [{ "element": "Xe", "occu": 1 }],
        "abc": [0.868135999999999, 0.093979, 0.294187],
        "properties": { "magmom": -0.0 },
        "label": "Xe",
        "xyz": [7.714569893095992, 2.9956538224699996, 4.2073671574119995]
      },
      {
        "species": [{ "element": "Xe", "occu": 1 }],
        "abc": [0.410176999999999, 0.608731999999999, 0.300307],
        "properties": { "magmom": 0.0 },
        "label": "Xe",
        "xyz": [3.6449808958969916, 10.828285100957984, 4.294893414532]
      },
      {
        "species": [{ "element": "Xe", "occu": 1 }],
        "abc": [0.984263, 0.208248, 0.904212999999999],
        "properties": { "magmom": -0.0 },
        "label": "Xe",
        "xyz": [8.746516336943001, 7.986038260881995, 12.931761360987986]
      },
      {
        "species": [{ "element": "Xe", "occu": 1 }],
        "abc": [0.498110999999999, 0.689091, 0.893243],
        "properties": { "magmom": -0.0 },
        "label": "Xe",
        "xyz": [4.426394164070992, 15.213540399589998, 12.774871975268]
      },
      {
        "species": [{ "element": "Xe", "occu": 1 }],
        "abc": [0.484263, 0.791752, 0.595787],
        "properties": { "magmom": -0.0 },
        "label": "Xe",
        "xyz": [4.303335836943001, 15.180064739118, 8.520752639012]
      },
      {
        "species": [{ "element": "Xe", "occu": 1 }],
        "abc": [0.089823, 0.608731999999999, 0.800307],
        "properties": { "magmom": 0.0 },
        "label": "Xe",
        "xyz": [0.7981996041030001, 13.499394100957986, 11.445731414532]
      },
      {
        "species": [{ "element": "Xe", "occu": 1 }],
        "abc": [0.515737, 0.208248, 0.404213],
        "properties": { "magmom": -0.0 },
        "label": "Xe",
        "xyz": [4.583025163057, 5.314929260882, 5.780923360988]
      },
      {
        "species": [{ "element": "Xe", "occu": 1 }],
        "abc": [0.631864, 0.093979, 0.794187],
        "properties": { "magmom": -0.0 },
        "label": "Xe",
        "xyz": [5.6149716069040005, 5.66676282247, 11.358205157412]
      },
      {
        "species": [{ "element": "Xe", "occu": 1 }],
        "abc": [0.368135999999999, 0.906021, 0.205813],
        "properties": { "magmom": -0.0 },
        "label": "Xe",
        "xyz": [3.2713893930959914, 14.828231177529998, 2.943470842588]
      },
      {
        "species": [{ "element": "Xe", "occu": 1 }],
        "abc": [0.998111, 0.310909, 0.606757],
        "properties": { "magmom": -0.0 },
        "label": "Xe",
        "xyz": [8.869574664071001, 7.952562600409999, 8.677642024732]
      },
      {
        "species": [{ "element": "F", "occu": 1 }],
        "abc": [0.945921, 0.887802, 0.783597],
        "properties": { "magmom": -0.0 },
        "label": "F",
        "xyz": [8.405795483481, 17.638810836498, 11.206750408572]
      },
      {
        "species": [{ "element": "F", "occu": 1 }],
        "abc": [0.384671999999999, 0.099368, 0.407522999999999],
        "properties": { "magmom": -0.0 },
        "label": "F",
        "xyz": [3.4183342585919916, 3.6827777515819946, 5.8282619085479865]
      },
      {
        "species": [{ "element": "F", "occu": 1 }],
        "abc": [0.19517299999999901, 0.243798, 0.637884999999999],
        "properties": { "magmom": -0.0 },
        "label": "F",
        "xyz": [1.7343777354529915, 7.101937212177995, 9.122824595259987]
      },
      {
        "species": [{ "element": "F", "occu": 1 }],
        "abc": [0.962352, 0.19627000000000003, 0.748574],
        "properties": { "magmom": -0.001 },
        "label": "F",
        "xyz": [8.551807281072001, 6.973080842652, 10.705862810024]
      },
      {
        "species": [{ "element": "F", "occu": 1 }],
        "abc": [0.610279, 0.120778, 0.520556],
        "properties": { "magmom": -0.0 },
        "label": "F",
        "xyz": [5.423159504719001, 4.611045612936, 7.4448232518560005]
      },
      {
        "species": [{ "element": "F", "occu": 1 }],
        "abc": [0.921953999999999, 0.208574999999999, 0.564523],
        "properties": { "magmom": -0.0 },
        "label": "F",
        "xyz": [8.192816069393992, 6.176295186213984, 8.073625040548]
      },
      {
        "species": [{ "element": "F", "occu": 1 }],
        "abc": [0.672885, 0.518235, 0.626667],
        "properties": { "magmom": 0.0 },
        "label": "F",
        "xyz": [5.979499021485, 11.200490597765999, 8.962388393892]
      },
      {
        "species": [{ "element": "F", "occu": 1 }],
        "abc": [0.912848, 0.5300900000000001, 0.797982],
        "properties": { "magmom": 0.0 },
        "label": "F",
        "xyz": [8.111896866128001, 12.295328833915999, 11.412480017832]
      },
      {
        "species": [{ "element": "F", "occu": 1 }],
        "abc": [0.860132, 0.414016, 0.317357],
        "properties": { "magmom": -0.0 },
        "label": "F",
        "xyz": [7.6434434596520004, 7.968881986242, 4.5387369903320005]
      },
      {
        "species": [{ "element": "F", "occu": 1 }],
        "abc": [0.360132, 0.585984, 0.182643],
        "properties": { "magmom": -0.0 },
        "label": "F",
        "xyz": [3.2002629596520005, 9.855003013757997, 2.612101009668]
      },
      {
        "species": [{ "element": "F", "occu": 1 }],
        "abc": [0.578046, 0.208574999999999, 0.064523],
        "properties": { "magmom": -0.0 },
        "label": "F",
        "xyz": [5.136725430606, 3.505186186213985, 0.922787040548]
      },
      {
        "species": [{ "element": "F", "occu": 1 }],
        "abc": [0.553523, 0.708747, 0.221194],
        "properties": { "magmom": -0.0 },
        "label": "F",
        "xyz": [4.918805199803001, 11.921151099964, 3.1634449211440003]
      },
      {
        "species": [{ "element": "F", "occu": 1 }],
        "abc": [0.412848, 0.46991000000000005, 0.702017999999999],
        "properties": { "magmom": 0.0 },
        "label": "F",
        "xyz": [3.6687163661280002, 10.870774166083995, 10.040033982167987]
      },
      {
        "species": [{ "element": "F", "occu": 1 }],
        "abc": [0.830322, 0.391158, 0.529332],
        "properties": { "magmom": -0.0 },
        "label": "F",
        "xyz": [7.378541038242001, 8.754936492984, 7.570334760432001]
      },
      {
        "species": [{ "element": "F", "occu": 1 }],
        "abc": [0.053522999999999, 0.291253, 0.278806],
        "properties": { "magmom": -0.0 },
        "label": "F",
        "xyz": [0.47562469980299116, 5.902733900035999, 3.987393078856]
      },
      {
        "species": [{ "element": "F", "occu": 1 }],
        "abc": [0.421954, 0.791424999999999, 0.935477],
        "properties": { "magmom": -0.0 },
        "label": "F",
        "xyz": [3.7496355693940004, 16.989807813785983, 13.378888959452]
      },
      {
        "species": [{ "element": "F", "occu": 1 }],
        "abc": [0.006267, 0.087056, 0.40035000000000004],
        "properties": { "magmom": -0.0 },
        "label": "F",
        "xyz": [0.05569082438700001, 3.457897043756, 5.725675986600001]
      },
      {
        "species": [{ "element": "F", "occu": 1 }],
        "abc": [0.74507, 0.065441, 0.6946300000000001],
        "properties": { "magmom": -0.0 },
        "label": "F",
        "xyz": [6.62096099027, 4.702477703556, 9.934373199880001]
      },
      {
        "species": [{ "element": "F", "occu": 1 }],
        "abc": [0.930508, 0.960935, 0.326879],
        "properties": { "magmom": -0.0 },
        "label": "F",
        "xyz": [8.268830001388, 16.307091683181998, 4.674917549203999]
      },
      {
        "species": [{ "element": "F", "occu": 1 }],
        "abc": [0.132987, 0.218158, 0.996748],
        "properties": { "magmom": 0.0 },
        "label": "F",
        "xyz": [1.181770490307, 8.630544413672, 14.255166949648]
      },
      {
        "species": [{ "element": "F", "occu": 1 }],
        "abc": [0.407402, 0.354915, 0.981287999999999],
        "properties": { "magmom": -0.0 },
        "label": "F",
        "xyz": [3.620321244122, 10.620201910823994, 14.034063038687988]
      },
      {
        "species": [{ "element": "F", "occu": 1 }],
        "abc": [0.762384, 0.20225, 0.362734],
        "properties": { "magmom": -0.0 },
        "label": "F",
        "xyz": [6.774819444624, 5.002453050012, 5.187704142184]
      },
      {
        "species": [{ "element": "F", "occu": 1 }],
        "abc": [0.107131999999999, 0.682917999999999, 0.070675],
        "properties": { "magmom": 0.0 },
        "label": "F",
        "xyz": [0.9520136266519913, 10.725664737517985, 1.0107709513]
      },
      {
        "species": [{ "element": "F", "occu": 1 }],
        "abc": [0.430508, 0.039064999999999, 0.173121],
        "properties": { "magmom": -0.0 },
        "label": "F",
        "xyz": [3.8256495013880003, 1.516793316817985, 2.475920450796]
      },
      {
        "species": [{ "element": "F", "occu": 1 }],
        "abc": [0.446476999999999, 0.291253, 0.778806],
        "properties": { "magmom": -0.0 },
        "label": "F",
        "xyz": [3.9675558001969917, 8.573842900035999, 11.138231078856]
      },
      {
        "species": [{ "element": "F", "occu": 1 }],
        "abc": [0.343292, 0.631481, 0.791669],
        "properties": { "magmom": -0.001 },
        "label": "F",
        "xyz": [3.050616640412, 13.797958523098, 11.322193537243999]
      },
      {
        "species": [{ "element": "F", "occu": 1 }],
        "abc": [0.392134, 0.422106, 0.117733999999999],
        "properties": { "magmom": 0.0 },
        "label": "F",
        "xyz": [3.484644284374, 7.025038360267994, 1.683793522183986]
      },
      {
        "species": [{ "element": "F", "occu": 1 }],
        "abc": [0.592598, 0.645085, 0.018712],
        "properties": { "magmom": -0.0 },
        "label": "F",
        "xyz": [5.266039755878, 9.874792089176001, 0.267612961312]
      },
      {
        "species": [{ "element": "F", "occu": 1 }],
        "abc": [0.367013, 0.218158, 0.496747999999999],
        "properties": { "magmom": -0.0 },
        "label": "F",
        "xyz": [3.2614100096930003, 5.9594354136719945, 7.104328949647987]
      },
      {
        "species": [{ "element": "F", "occu": 1 }],
        "abc": [0.069492, 0.039064999999999, 0.673121],
        "properties": { "magmom": -0.0 },
        "label": "F",
        "xyz": [0.617530998612, 4.1879023168179845, 9.626758450796]
      },
      {
        "species": [{ "element": "F", "occu": 1 }],
        "abc": [0.7549300000000001, 0.065441, 0.19463000000000003],
        "properties": { "magmom": -0.0 },
        "label": "F",
        "xyz": [6.708580509730002, 2.0313687035559997, 2.7835351998800006]
      },
      {
        "species": [{ "element": "F", "occu": 1 }],
        "abc": [0.445920999999999, 0.112197999999999, 0.716403],
        "properties": { "magmom": -0.0 },
        "label": "F",
        "xyz": [3.9626149834809916, 5.5272921635019845, 10.245763591428]
      },
      {
        "species": [{ "element": "F", "occu": 1 }],
        "abc": [0.156708, 0.631481, 0.291669],
        "properties": { "magmom": -0.001 },
        "label": "F",
        "xyz": [1.392563859588, 11.126849523097999, 4.1713555372440005]
      },
      {
        "species": [{ "element": "F", "occu": 1 }],
        "abc": [0.827114999999999, 0.518235, 0.126667],
        "properties": { "magmom": 0.0 },
        "label": "F",
        "xyz": [7.350042478514992, 8.529381597766, 1.8115503938920001]
      },
      {
        "species": [{ "element": "F", "occu": 1 }],
        "abc": [0.078045999999999, 0.791424999999999, 0.435477],
        "properties": { "magmom": -0.0 },
        "label": "F",
        "xyz": [0.6935449306059912, 14.318698813785984, 6.228050959452]
      },
      {
        "species": [{ "element": "F", "occu": 1 }],
        "abc": [0.632987, 0.781841999999999, 0.503252],
        "properties": { "magmom": 0.0 },
        "label": "F",
        "xyz": [5.624950990307, 14.535558586327985, 7.1973470503520005]
      },
      {
        "species": [{ "element": "F", "occu": 1 }],
        "abc": [0.169678, 0.608842, 0.470668],
        "properties": { "magmom": -0.0 },
        "label": "F",
        "xyz": [1.5078199617580001, 11.740057507016, 6.731341239568]
      },
      {
        "species": [{ "element": "F", "occu": 1 }],
        "abc": [0.115328, 0.099368, 0.907523],
        "properties": { "magmom": -0.0 },
        "label": "F",
        "xyz": [1.0248462414080002, 6.353886751582, 12.979099908548]
      },
      {
        "species": [{ "element": "F", "occu": 1 }],
        "abc": [0.554079, 0.887802, 0.283597],
        "properties": { "magmom": -0.0 },
        "label": "F",
        "xyz": [4.923746016519001, 14.967701836498, 4.0559124085719995]
      },
      {
        "species": [{ "element": "F", "occu": 1 }],
        "abc": [0.198613999999999, 0.972808, 0.119312],
        "properties": { "magmom": -0.0 },
        "label": "F",
        "xyz": [1.7649557036539913, 15.378132429024, 1.706361566912]
      },
      {
        "species": [{ "element": "F", "occu": 1 }],
        "abc": [0.493733, 0.087056, 0.9003500000000001],
        "properties": { "magmom": -0.0 },
        "label": "F",
        "xyz": [4.387489675613001, 6.129006043756, 12.876513986600003]
      },
      {
        "species": [{ "element": "F", "occu": 1 }],
        "abc": [0.110278999999999, 0.879222, 0.979444],
        "properties": { "magmom": -0.0 },
        "label": "F",
        "xyz": [0.9799790047189912, 18.555057387064, 14.007690748144]
      },
      {
        "species": [{ "element": "F", "occu": 1 }],
        "abc": [0.907401999999999, 0.645085, 0.518712],
        "properties": { "magmom": -0.0 },
        "label": "F",
        "xyz": [8.063501744121993, 12.545901089176, 7.418450961312]
      },
      {
        "species": [{ "element": "F", "occu": 1 }],
        "abc": [0.843291999999999, 0.368519, 0.708330999999999],
        "properties": { "magmom": -0.001 },
        "label": "F",
        "xyz": [7.493797140411992, 9.368144476901994, 10.130320462755988]
      },
      {
        "species": [{ "element": "F", "occu": 1 }],
        "abc": [0.615328, 0.900632, 0.592476999999999],
        "properties": { "magmom": -0.0 },
        "label": "F",
        "xyz": [5.468026741408001, 16.812216248417997, 8.473414091451987]
      },
      {
        "species": [{ "element": "F", "occu": 1 }],
        "abc": [0.107865999999999, 0.422106, 0.617734],
        "properties": { "magmom": 0.0 },
        "label": "F",
        "xyz": [0.9585362156259912, 9.696147360268, 8.834631522184]
      },
      {
        "species": [{ "element": "F", "occu": 1 }],
        "abc": [0.995497, 0.605706, 0.920732999999999],
        "properties": { "magmom": 0.0 },
        "label": "F",
        "xyz": [8.846345716417, 14.096883745649993, 13.168025048507987]
      },
      {
        "species": [{ "element": "F", "occu": 1 }],
        "abc": [0.656708, 0.368519, 0.208331],
        "properties": { "magmom": -0.001 },
        "label": "F",
        "xyz": [5.835744359588, 6.697035476901999, 2.979482462756]
      },
      {
        "species": [{ "element": "F", "occu": 1 }],
        "abc": [0.892868, 0.317082, 0.929325],
        "properties": { "magmom": 0.0 },
        "label": "F",
        "xyz": [7.934347373348, 9.769329262482, 13.2909050487]
      },
      {
        "species": [{ "element": "F", "occu": 1 }],
        "abc": [0.872053, 0.697288999999999, 0.181278],
        "properties": { "magmom": -0.0 },
        "label": "F",
        "xyz": [7.749377769133001, 11.534290618867987, 2.592579221928]
      },
      {
        "species": [{ "element": "F", "occu": 1 }],
        "abc": [0.127947, 0.302711, 0.818722],
        "properties": { "magmom": -0.0 },
        "label": "F",
        "xyz": [1.1369832308670003, 8.960703381132, 11.709096778072]
      },
      {
        "species": [{ "element": "F", "occu": 1 }],
        "abc": [0.24507, 0.934558999999999, 0.80537],
        "properties": { "magmom": -0.0 },
        "label": "F",
        "xyz": [2.1777804902700004, 18.463625296443986, 11.518140800120001]
      },
      {
        "species": [{ "element": "F", "occu": 1 }],
        "abc": [0.842187999999999, 0.24136000000000002, 0.183571999999999],
        "properties": { "magmom": -0.0 },
        "label": "F",
        "xyz": [7.483986597867992, 4.637955658055994, 2.625387266671986]
      },
      {
        "species": [{ "element": "F", "occu": 1 }],
        "abc": [0.569492, 0.960935, 0.826878999999999],
        "properties": { "magmom": -0.0 },
        "label": "F",
        "xyz": [5.060711498612, 18.978200683181996, 11.825755549203986]
      },
      {
        "species": [{ "element": "F", "occu": 1 }],
        "abc": [0.301386, 0.972808, 0.619312],
        "properties": { "magmom": -0.0 },
        "label": "F",
        "xyz": [2.678224796346, 18.049241429024, 8.857199566912]
      },
      {
        "species": [{ "element": "F", "occu": 1 }],
        "abc": [0.157811999999999, 0.7586400000000001, 0.816427999999999],
        "properties": { "magmom": -0.0 },
        "label": "F",
        "xyz": [1.4023744021319913, 15.857038341943994, 11.676288733327986]
      },
      {
        "species": [{ "element": "F", "occu": 1 }],
        "abc": [0.139868, 0.585984, 0.682643],
        "properties": { "magmom": -0.0 },
        "label": "F",
        "xyz": [1.242917540348, 12.526112013757999, 9.762939009668]
      },
      {
        "species": [{ "element": "F", "occu": 1 }],
        "abc": [0.004503, 0.394294, 0.079266999999999],
        "properties": { "magmom": 0.0 },
        "label": "F",
        "xyz": [0.040015283583, 6.3981102543499935, 1.133650951491986]
      },
      {
        "species": [{ "element": "F", "occu": 1 }],
        "abc": [0.304826999999999, 0.243798, 0.137885],
        "properties": { "magmom": -0.0 },
        "label": "F",
        "xyz": [2.7088027645469914, 4.430828212178, 1.9719865952600002]
      },
      {
        "species": [{ "element": "F", "occu": 1 }],
        "abc": [0.993733, 0.912944, 0.59965],
        "properties": { "magmom": -0.0 },
        "label": "F",
        "xyz": [8.830670175613001, 17.037096956244, 8.5760000134]
      },
      {
        "species": [{ "element": "F", "occu": 1 }],
        "abc": [0.330322, 0.608842, 0.970668],
        "properties": { "magmom": -0.0 },
        "label": "F",
        "xyz": [2.9353605382420005, 14.411166507015999, 13.882179239568]
      },
      {
        "species": [{ "element": "F", "occu": 1 }],
        "abc": [0.462352, 0.80373, 0.751425999999999],
        "properties": { "magmom": -0.001 },
        "label": "F",
        "xyz": [4.108626781072, 16.193022157347997, 10.746651189975987]
      },
      {
        "species": [{ "element": "F", "occu": 1 }],
        "abc": [0.054078999999999, 0.112197999999999, 0.216402999999999],
        "properties": { "magmom": -0.0 },
        "label": "F",
        "xyz": [0.4805655165189912, 2.8561831635019796, 3.094925591427986]
      },
      {
        "species": [{ "element": "F", "occu": 1 }],
        "abc": [0.392868, 0.682917999999999, 0.570674999999999],
        "properties": { "magmom": 0.0 },
        "label": "F",
        "xyz": [3.4911668733480004, 13.39677373751798, 8.161608951299987]
      },
      {
        "species": [{ "element": "F", "occu": 1 }],
        "abc": [0.092598, 0.354915, 0.481288],
        "properties": { "magmom": -0.0 },
        "label": "F",
        "xyz": [0.8228592558780001, 7.949092910824, 6.883225038688]
      },
      {
        "species": [{ "element": "F", "occu": 1 }],
        "abc": [0.698614, 0.027191999999999, 0.380687999999999],
        "properties": { "magmom": -0.0 },
        "label": "F",
        "xyz": [6.208136203654, 2.4457525709759795, 5.444476433087987]
      },
      {
        "species": [{ "element": "F", "occu": 1 }],
        "abc": [0.537648, 0.19627000000000003, 0.248574],
        "properties": { "magmom": -0.001 },
        "label": "F",
        "xyz": [4.777734218928001, 4.301971842652001, 3.555024810024]
      },
      {
        "species": [{ "element": "F", "occu": 1 }],
        "abc": [0.607132, 0.317082, 0.429324999999999],
        "properties": { "magmom": 0.0 },
        "label": "F",
        "xyz": [5.395194126652001, 7.098220262481995, 6.140067048699986]
      },
      {
        "species": [{ "element": "F", "occu": 1 }],
        "abc": [0.504502999999999, 0.605706, 0.420732999999999],
        "properties": { "magmom": 0.0 },
        "label": "F",
        "xyz": [4.483195783582992, 11.425774745649994, 6.017187048507986]
      },
      {
        "species": [{ "element": "F", "occu": 1 }],
        "abc": [0.801385999999999, 0.027191999999999, 0.880687999999999],
        "properties": { "magmom": -0.0 },
        "label": "F",
        "xyz": [7.121405296345992, 5.1168615709759795, 12.595314433087987]
      },
      {
        "species": [{ "element": "F", "occu": 1 }],
        "abc": [0.669678, 0.391158, 0.029331999999999],
        "properties": { "magmom": -0.0 },
        "label": "F",
        "xyz": [5.951000461758, 6.083827492983994, 0.41949676043198575]
      },
      {
        "species": [{ "element": "F", "occu": 1 }],
        "abc": [0.587152, 0.5300900000000001, 0.297981999999999],
        "properties": { "magmom": 0.0 },
        "label": "F",
        "xyz": [5.217644633872, 9.624219833915996, 4.261642017831986]
      },
      {
        "species": [{ "element": "F", "occu": 1 }],
        "abc": [0.695172999999999, 0.756201999999999, 0.862115],
        "properties": { "magmom": -0.0 },
        "label": "F",
        "xyz": [6.177558235452992, 16.064165787821985, 12.32968940474]
      },
      {
        "species": [{ "element": "F", "occu": 1 }],
        "abc": [0.087152, 0.46991000000000005, 0.202018],
        "properties": { "magmom": 0.0 },
        "label": "F",
        "xyz": [0.774464133872, 8.199665166084001, 2.889195982168]
      },
      {
        "species": [{ "element": "F", "occu": 1 }],
        "abc": [0.372052999999999, 0.302711, 0.318722],
        "properties": { "magmom": -0.0 },
        "label": "F",
        "xyz": [3.3061972691329915, 6.289594381132, 4.558258778072]
      },
      {
        "species": [{ "element": "F", "occu": 1 }],
        "abc": [0.867012999999999, 0.781841999999999, 0.003251999999999],
        "properties": { "magmom": 0.0 },
        "label": "F",
        "xyz": [7.704590509692992, 11.86444958632798, 0.0465090503519857]
      },
      {
        "species": [{ "element": "F", "occu": 1 }],
        "abc": [0.389721, 0.879222, 0.479444],
        "properties": { "magmom": -0.0 },
        "label": "F",
        "xyz": [3.4632014952810004, 15.883948387063999, 6.856852748144]
      },
      {
        "species": [{ "element": "F", "occu": 1 }],
        "abc": [0.607866, 0.577894, 0.882266],
        "properties": { "magmom": 0.0 },
        "label": "F",
        "xyz": [5.401716715626001, 13.469955639732, 12.617882477816]
      },
      {
        "species": [{ "element": "F", "occu": 1 }],
        "abc": [0.037648, 0.80373, 0.251426],
        "properties": { "magmom": -0.001 },
        "label": "F",
        "xyz": [0.33455371892800007, 13.521913157348001, 3.595813189976]
      },
      {
        "species": [{ "element": "F", "occu": 1 }],
        "abc": [0.237616, 0.7977500000000001, 0.637266],
        "properties": { "magmom": -0.0 },
        "label": "F",
        "xyz": [2.111541555376, 15.492540949988001, 9.113971857816]
      },
      {
        "species": [{ "element": "F", "occu": 1 }],
        "abc": [0.737615999999999, 0.20225, 0.862734],
        "properties": { "magmom": -0.0 },
        "label": "F",
        "xyz": [6.554722055375993, 7.673562050012, 12.338542142184]
      },
      {
        "species": [{ "element": "F", "occu": 1 }],
        "abc": [0.627946999999999, 0.697288999999999, 0.681277999999999],
        "properties": { "magmom": -0.0 },
        "label": "F",
        "xyz": [5.580163730866992, 14.20539961886798, 9.743417221927986]
      },
      {
        "species": [{ "element": "F", "occu": 1 }],
        "abc": [0.342188, 0.7586400000000001, 0.316428],
        "properties": { "magmom": -0.0 },
        "label": "F",
        "xyz": [3.0408060978680003, 13.185929341944, 4.525450733328]
      },
      {
        "species": [{ "element": "F", "occu": 1 }],
        "abc": [0.884672, 0.900632, 0.092476999999999],
        "properties": { "magmom": -0.0 },
        "label": "F",
        "xyz": [7.861514758592, 14.141107248417995, 1.3225760914519857]
      },
      {
        "species": [{ "element": "F", "occu": 1 }],
        "abc": [0.9464769999999991, 0.708747, 0.721194],
        "properties": { "magmom": -0.0 },
        "label": "F",
        "xyz": [8.410736300196993, 14.592260099964, 10.314282921144]
      },
      {
        "species": [{ "element": "F", "occu": 1 }],
        "abc": [0.495496999999999, 0.394294, 0.579267],
        "properties": { "magmom": 0.0 },
        "label": "F",
        "xyz": [4.403165216416991, 9.06921925435, 8.284488951492]
      },
      {
        "species": [{ "element": "F", "occu": 1 }],
        "abc": [0.889721, 0.120778, 0.020555999999999002],
        "properties": { "magmom": -0.0 },
        "label": "F",
        "xyz": [7.906381995281, 1.9399366129359947, 0.29398525185598573]
      },
      {
        "species": [{ "element": "F", "occu": 1 }],
        "abc": [0.506267, 0.912944, 0.09965],
        "properties": { "magmom": -0.0 },
        "label": "F",
        "xyz": [4.498871324387, 14.365987956243998, 1.4251620134]
      },
      {
        "species": [{ "element": "F", "occu": 1 }],
        "abc": [0.657812, 0.24136000000000002, 0.683572],
        "properties": { "magmom": -0.0 },
        "label": "F",
        "xyz": [5.845554902132, 7.309064658056, 9.776225266672]
      },
      {
        "species": [{ "element": "F", "occu": 1 }],
        "abc": [0.25493000000000005, 0.934558999999999, 0.30537000000000003],
        "properties": { "magmom": -0.0 },
        "label": "F",
        "xyz": [2.2654000097300004, 15.792516296443985, 4.367302800120001]
      },
      {
        "species": [{ "element": "F", "occu": 1 }],
        "abc": [0.804827, 0.756201999999999, 0.362114999999999],
        "properties": { "magmom": -0.0 },
        "label": "F",
        "xyz": [7.151983264547001, 13.39305678782198, 5.178851404739986]
      },
      {
        "species": [{ "element": "F", "occu": 1 }],
        "abc": [0.262384, 0.7977500000000001, 0.137266],
        "properties": { "magmom": -0.0 },
        "label": "F",
        "xyz": [2.3316389446240002, 12.821431949988002, 1.963133857816]
      },
      {
        "species": [{ "element": "F", "occu": 1 }],
        "abc": [0.327115, 0.481765, 0.373332999999999],
        "properties": { "magmom": 0.0 },
        "label": "F",
        "xyz": [2.9068619785150003, 9.294503402233994, 5.339287606107987]
      },
      {
        "species": [{ "element": "F", "occu": 1 }],
        "abc": [0.639868, 0.414016, 0.817357],
        "properties": { "magmom": -0.0 },
        "label": "F",
        "xyz": [5.686098040348001, 10.639990986242, 11.689574990332]
      },
      {
        "species": [{ "element": "F", "occu": 1 }],
        "abc": [0.892134, 0.577894, 0.382266],
        "properties": { "magmom": 0.0 },
        "label": "F",
        "xyz": [7.927824784374001, 10.798846639732, 5.467044477816001]
      },
      {
        "species": [{ "element": "F", "occu": 1 }],
        "abc": [0.172884999999999, 0.481765, 0.873332999999999],
        "properties": { "magmom": 0.0 },
        "label": "F",
        "xyz": [1.5363185214849913, 11.965612402233994, 12.490125606107986]
      }
    ]
  },
  "task_ids": null,
  "uncorrected_energy_per_atom": null,
  "energy_per_atom": -2.439185264196429,
  "formation_energy_per_atom": -0.7935726327678571,
  "energy_above_hull": 0.0,
  "is_stable": true,
  "equilibrium_reaction_energy_per_atom": null,
  "decomposes_to": null,
  "xas": null,
  "grain_boundaries": null,
  "band_gap": 2.793199999999999,
  "cbm": null,
  "vbm": null,
  "efermi": -5.02362838,
  "is_gap_direct": null,
  "is_metal": null,
  "es_source_calc_id": null,
  "bandstructure": null,
  "dos": null,
  "dos_energy_up": null,
  "dos_energy_down": null,
  "is_magnetic": null,
  "ordering": null,
  "total_magnetization": 0.4397868,
  "total_magnetization_normalized_vol": null,
  "total_magnetization_normalized_formula_units": null,
  "num_magnetic_sites": null,
  "num_unique_magnetic_sites": null,
  "types_of_magnetic_species": null,
  "bulk_modulus": null,
  "shear_modulus": null,
  "universal_anisotropy": null,
  "homogeneous_poisson": null,
  "e_total": null,
  "e_ionic": null,
  "e_electronic": null,
  "n": null,
  "e_ij_max": null,
  "weighted_surface_energy_EV_PER_ANG2": null,
  "weighted_surface_energy": null,
  "weighted_work_function": null,
  "surface_anisotropy": null,
  "shape_factor": null,
  "has_reconstructed": null,
  "possible_species": null,
  "has_props": null,
  "theoretical": null,
  "database_IDs": null,
  "fields_not_requested": [
    "builder_meta",
    "nsites",
    "elements",
    "nelements",
    "composition",
    "composition_reduced",
    "chemsys",
    "symmetry",
    "property_name",
    "deprecated",
    "deprecation_reasons",
    "last_updated",
    "origins",
    "warnings",
    "task_ids",
    "uncorrected_energy_per_atom",
    "equilibrium_reaction_energy_per_atom",
    "decomposes_to",
    "xas",
    "grain_boundaries",
    "cbm",
    "vbm",
    "is_gap_direct",
    "is_metal",
    "es_source_calc_id",
    "bandstructure",
    "dos",
    "dos_energy_up",
    "dos_energy_down",
    "is_magnetic",
    "ordering",
    "total_magnetization_normalized_vol",
    "total_magnetization_normalized_formula_units",
    "num_magnetic_sites",
    "num_unique_magnetic_sites",
    "types_of_magnetic_species",
    "bulk_modulus",
    "shear_modulus",
    "universal_anisotropy",
    "homogeneous_poisson",
    "e_total",
    "e_ionic",
    "e_electronic",
    "n",
    "e_ij_max",
    "weighted_surface_energy_EV_PER_ANG2",
    "weighted_surface_energy",
    "weighted_work_function",
    "surface_anisotropy",
    "shape_factor",
    "has_reconstructed",
    "possible_species",
    "has_props",
    "theoretical",
    "database_IDs"
  ]
}
