{
  "builder_meta": null,
  "nsites": null,
  "elements": null,
  "nelements": null,
  "composition": null,
  "composition_reduced": null,
  "formula_pretty": "XeO3",
  "formula_anonymous": "AB3",
  "chemsys": null,
  "volume": 280.88014591309434,
  "density": 4.239816109889231,
  "density_atomic": 17.555009119568396,
  "symmetry": null,
  "property_name": null,
  "material_id": "mp-562054",
  "deprecated": null,
  "deprecation_reasons": null,
  "last_updated": null,
  "origins": null,
  "warnings": null,
  "structure": {
    "@module": "pymatgen.core.structure",
    "@class": "Structure",
    "charge": 0,
    "lattice": {
      "matrix": [
        [5.531315, 0.0, 0.0],
        [0.0, 6.15503, 0.0],
        [0.0, 0.0, 8.250162]
      ],
      "pbc": [true, true, true],
      "a": 5.531315,
      "b": 6.15503,
      "c": 8.250162,
      "alpha": 90.0,
      "beta": 90.0,
      "gamma": 90.0,
      "volume": 280.88014591309434
    },
    "properties": {},
    "sites": [
      {
        "species": [{ "element": "Xe", "occu": 1 }],
        "abc": [0.782952, 0.43992000000000003, 0.34787],
        "properties": { "magmom": 0.0 },
        "label": "Xe",
        "xyz": [4.33075414188, 2.7077207976000004, 2.86998385494]
      },
      {
        "species": [{ "element": "Xe", "occu": 1 }],
        "abc": [0.217048, 0.9399200000000001, 0.15213000000000002],
        "properties": { "magmom": 0.0 },
        "label": "Xe",
        "xyz": [1.20056085812, 5.7852357976, 1.2550971450600001]
      },
      {
        "species": [{ "element": "Xe", "occu": 1 }],
        "abc": [0.717048, 0.56008, 0.8478700000000001],
        "properties": { "magmom": 0.0 },
        "label": "Xe",
        "xyz": [3.9662183581200003, 3.4473092024, 6.995064854940001]
      },
      {
        "species": [{ "element": "Xe", "occu": 1 }],
        "abc": [0.282952, 0.06008, 0.6521300000000001],
        "properties": { "magmom": 0.0 },
        "label": "Xe",
        "xyz": [1.5650966418799999, 0.3697942024, 5.38017814506]
      },
      {
        "species": [{ "element": "O", "occu": 1 }],
        "abc": [0.416166999999999, 0.1763, 0.098408],
        "properties": { "magmom": 0.0 },
        "label": "O",
        "xyz": [2.3019507696049946, 1.085131789, 0.811881942096]
      },
      {
        "species": [{ "element": "O", "occu": 1 }],
        "abc": [0.609667, 0.6417349999999991, 0.061010999999999004],
        "properties": { "magmom": -0.0 },
        "label": "O",
        "xyz": [3.372260222105, 3.9498981770499944, 0.5033506337819917]
      },
      {
        "species": [{ "element": "O", "occu": 1 }],
        "abc": [0.916167, 0.32370000000000004, 0.901592],
        "properties": { "magmom": 0.0 },
        "label": "O",
        "xyz": [5.0676082696049995, 1.9923832110000004, 7.438280057904]
      },
      {
        "species": [{ "element": "O", "occu": 1 }],
        "abc": [0.574643, 0.9499500000000001, 0.742709],
        "properties": { "magmom": 0.0 },
        "label": "O",
        "xyz": [3.178531445545, 5.8469707485, 6.127469568857999]
      },
      {
        "species": [{ "element": "O", "occu": 1 }],
        "abc": [0.074643, 0.55005, 0.257291],
        "properties": { "magmom": 0.0 },
        "label": "O",
        "xyz": [0.412873945545, 3.3855742515, 2.1226924311419997]
      },
      {
        "species": [{ "element": "O", "occu": 1 }],
        "abc": [0.390333, 0.141735, 0.438988999999999],
        "properties": { "magmom": -0.0 },
        "label": "O",
        "xyz": [2.159054777895, 0.87238317705, 3.621730366217992]
      },
      {
        "species": [{ "element": "O", "occu": 1 }],
        "abc": [0.583832999999999, 0.6763, 0.401592],
        "properties": { "magmom": 0.0 },
        "label": "O",
        "xyz": [3.229364230394995, 4.162646789, 3.313199057904]
      },
      {
        "species": [{ "element": "O", "occu": 1 }],
        "abc": [0.425357, 0.44995, 0.757290999999999],
        "properties": { "magmom": 0.0 },
        "label": "O",
        "xyz": [2.352783554455, 2.7694557485, 6.247773431141992]
      },
      {
        "species": [{ "element": "O", "occu": 1 }],
        "abc": [0.890332999999999, 0.358265, 0.561010999999999],
        "properties": { "magmom": -0.0 },
        "label": "O",
        "xyz": [4.9247122778949945, 2.20513182295, 4.628431633781992]
      },
      {
        "species": [{ "element": "O", "occu": 1 }],
        "abc": [0.925357, 0.050050000000000004, 0.242708999999999],
        "properties": { "magmom": 0.0 },
        "label": "O",
        "xyz": [5.118441054455, 0.3080592515, 2.0023885688579917]
      },
      {
        "species": [{ "element": "O", "occu": 1 }],
        "abc": [0.083832999999999, 0.8237, 0.598407999999999],
        "properties": { "magmom": 0.0 },
        "label": "O",
        "xyz": [0.4637067303949945, 5.069898211, 4.936962942095992]
      },
      {
        "species": [{ "element": "O", "occu": 1 }],
        "abc": [0.109667, 0.858265, 0.938989],
        "properties": { "magmom": -0.0 },
        "label": "O",
        "xyz": [0.606602722105, 5.282646822949999, 7.746811366217999]
      }
    ]
  },
  "task_ids": null,
  "uncorrected_energy_per_atom": null,
  "energy_per_atom": -2.7632511225,
  "formation_energy_per_atom": 0.9567631737500001,
  "energy_above_hull": 0.9567631737500001,
  "is_stable": false,
  "equilibrium_reaction_energy_per_atom": null,
  "decomposes_to": null,
  "xas": null,
  "grain_boundaries": null,
  "band_gap": 2.131199999999999,
  "cbm": null,
  "vbm": null,
  "efermi": -2.69776885,
  "is_gap_direct": null,
  "is_metal": null,
  "es_source_calc_id": null,
  "bandstructure": null,
  "dos": null,
  "dos_energy_up": null,
  "dos_energy_down": null,
  "is_magnetic": null,
  "ordering": null,
  "total_magnetization": 4.5999999999999975e-6,
  "total_magnetization_normalized_vol": null,
  "total_magnetization_normalized_formula_units": null,
  "num_magnetic_sites": null,
  "num_unique_magnetic_sites": null,
  "types_of_magnetic_species": null,
  "bulk_modulus": null,
  "shear_modulus": null,
  "universal_anisotropy": null,
  "homogeneous_poisson": null,
  "e_total": null,
  "e_ionic": null,
  "e_electronic": null,
  "n": null,
  "e_ij_max": null,
  "weighted_surface_energy_EV_PER_ANG2": null,
  "weighted_surface_energy": null,
  "weighted_work_function": null,
  "surface_anisotropy": null,
  "shape_factor": null,
  "has_reconstructed": null,
  "possible_species": null,
  "has_props": null,
  "theoretical": null,
  "database_IDs": null,
  "fields_not_requested": [
    "builder_meta",
    "nsites",
    "elements",
    "nelements",
    "composition",
    "composition_reduced",
    "chemsys",
    "symmetry",
    "property_name",
    "deprecated",
    "deprecation_reasons",
    "last_updated",
    "origins",
    "warnings",
    "task_ids",
    "uncorrected_energy_per_atom",
    "equilibrium_reaction_energy_per_atom",
    "decomposes_to",
    "xas",
    "grain_boundaries",
    "cbm",
    "vbm",
    "is_gap_direct",
    "is_metal",
    "es_source_calc_id",
    "bandstructure",
    "dos",
    "dos_energy_up",
    "dos_energy_down",
    "is_magnetic",
    "ordering",
    "total_magnetization_normalized_vol",
    "total_magnetization_normalized_formula_units",
    "num_magnetic_sites",
    "num_unique_magnetic_sites",
    "types_of_magnetic_species",
    "bulk_modulus",
    "shear_modulus",
    "universal_anisotropy",
    "homogeneous_poisson",
    "e_total",
    "e_ionic",
    "e_electronic",
    "n",
    "e_ij_max",
    "weighted_surface_energy_EV_PER_ANG2",
    "weighted_surface_energy",
    "weighted_work_function",
    "surface_anisotropy",
    "shape_factor",
    "has_reconstructed",
    "possible_species",
    "has_props",
    "theoretical",
    "database_IDs"
  ]
}
