{"builder_meta": null, "nsites": null, "elements": null, "nelements": null, "composition": null, "composition_reduced": null, "formula_pretty": "Y2Au", "formula_anonymous": "AB2", "chemsys": null, "volume": 317.4405662839045, "density": 7.841895751038149, "density_atomic": 26.45338052365871, "symmetry": null, "property_name": null, "material_id": "mp-979911", "deprecated": null, "deprecation_reasons": null, "last_updated": null, "origins": null, "warnings": null, "structure": {"@module": "pymatgen.core.structure", "@class": "Structure", "charge": 0, "lattice": {"matrix": [[7.15751362, 5.2e-06, 1.3490000000000001e-05], [3.129999999999999e-06, 4.97662218, -3.119999999999999e-06], [1.665e-05, -6.2300000000000005e-06, 8.91180287]], "pbc": [true, true, true], "a": 7.157513620014601, "b": 4.9766221800019625, "c": 8.911802870017732, "alpha": 90.00007597437529, "beta": 89.9997849665888, "gamma": 89.99992233850777, "volume": 317.4405662839045}, "properties": {}, "sites": [{"species": [{"element": "Y", "occu": 1}], "abc": [0.14578845, 0.25, 0.08354157], "properties": {"magmom": -0.0}, "label": "Y", "xyz": [1.0434849899808296, 1.2441557826359588, 0.7445071899764965]}, {"species": [{"element": "Y", "occu": 1}], "abc": [0.48727243000000003, 0.75, 0.1739277], "properties": {"magmom": -0.0}, "label": "Y", "xyz": [3.487664297771702, 3.732468085247065, 1.5500136093375798]}, {"species": [{"element": "Y", "occu": 1}], "abc": [0.98727343, 0.75, 0.3260723], "properties": {"magmom": -0.0}, "label": "Y", "xyz": [7.066430798492911, 3.7324697373914066, 2.905903037286072]}, {"species": [{"element": "Y", "occu": 1}], "abc": [0.64578945, 0.250001, 0.41645843], "properties": {"magmom": -0.0}, "label": "Y", "xyz": [4.622254500563298, 1.2441612851913009, 3.7114033634062547]}, {"species": [{"element": "Y", "occu": 1}], "abc": [0.35421055, 0.750000999999999, 0.58354057], "properties": {"magmom": -0.0}, "label": "Y", "xyz": [2.5352788994263116, 3.732469818059284, 5.200400964784636]}, {"species": [{"element": "Y", "occu": 1}], "abc": [0.01272657, 0.250001, 0.6739267], "properties": {"magmom": -0.0}, "label": "Y", "xyz": [0.0911026014935684, 1.244156389237003, 6.005901290907938]}, {"species": [{"element": "Y", "occu": 1}], "abc": [0.51272657, 0.250001, 0.8260723], "properties": {"magmom": -0.0}, "label": "Y", "xyz": [3.669861944717808, 1.244158041369915, 7.361799630645811]}, {"species": [{"element": "Y", "occu": 1}], "abc": [0.85421155, 0.750000999999999, 0.91645943], "properties": {"magmom": -0.0}, "label": "Y", "xyz": [6.11404841003895, 3.7324703439799864, 8.167314961823253]}, {"species": [{"element": "Au", "occu": 1}], "abc": [0.74291206, 0.250001, 0.09603921], "properties": {"magmom": 0.0}, "label": "Au", "xyz": [5.317405569468233, 1.2441637864406134, 0.8558917491911021]}, {"species": [{"element": "Au", "occu": 1}], "abc": [0.24291206, 0.25, 0.40396079], "properties": {"magmom": 0.0}, "label": "Au", "xyz": [1.7386538863594105, 1.2441542914669903, 3.6000214245731574]}, {"species": [{"element": "Au", "occu": 1}], "abc": [0.75708794, 0.75, 0.59603921], "properties": {"magmom": 0.0}, "label": "Au", "xyz": [5.418879513640588, 3.7324668585330096, 5.311791815426845]}, {"species": [{"element": "Au", "occu": 1}], "abc": [0.25708694, 0.75, 0.90396279], "properties": {"magmom": 0.0}, "label": "Au", "xyz": [1.840120673054576, 3.7324623401639063, 8.055939314398028]}]}, "task_ids": null, "uncorrected_energy_per_atom": null, "energy_per_atom": -31.124317986666668, "formation_energy_per_atom": -0.7202639633333321, "energy_above_hull": 0.0, "is_stable": true, "equilibrium_reaction_energy_per_atom": null, "decomposes_to": null, "xas": null, "grain_boundaries": null, "band_gap": 0.0, "cbm": null, "vbm": null, "efermi": 3.9285371700000002, "is_gap_direct": null, "is_metal": null, "es_source_calc_id": null, "bandstructure": null, "dos": null, "dos_energy_up": null, "dos_energy_down": null, "is_magnetic": null, "ordering": null, "total_magnetization": 1.1e-06, "total_magnetization_normalized_vol": null, "total_magnetization_normalized_formula_units": null, "num_magnetic_sites": null, "num_unique_magnetic_sites": null, "types_of_magnetic_species": null, "bulk_modulus": null, "shear_modulus": null, "universal_anisotropy": null, "homogeneous_poisson": null, "e_total": null, "e_ionic": null, "e_electronic": null, "n": null, "e_ij_max": null, "weighted_surface_energy_EV_PER_ANG2": null, "weighted_surface_energy": null, "weighted_work_function": null, "surface_anisotropy": null, "shape_factor": null, "has_reconstructed": null, "possible_species": null, "has_props": null, "theoretical": null, "database_IDs": null, "fields_not_requested": ["builder_meta", "nsites", "elements", "nelements", "composition", "composition_reduced", "chemsys", "symmetry", "property_name", "deprecated", "deprecation_reasons", "last_updated", "origins", "warnings", "task_ids", "uncorrected_energy_per_atom", "equilibrium_reaction_energy_per_atom", "decomposes_to", "xas", "grain_boundaries", "cbm", "vbm", "is_gap_direct", "is_metal", "es_source_calc_id", "bandstructure", "dos", "dos_energy_up", "dos_energy_down", "is_magnetic", "ordering", "total_magnetization_normalized_vol", "total_magnetization_normalized_formula_units", "num_magnetic_sites", "num_unique_magnetic_sites", "types_of_magnetic_species", "bulk_modulus", "shear_modulus", "universal_anisotropy", "homogeneous_poisson", "e_total", "e_ionic", "e_electronic", "n", "e_ij_max", "weighted_surface_energy_EV_PER_ANG2", "weighted_surface_energy", "weighted_work_function", "surface_anisotropy", "shape_factor", "has_reconstructed", "possible_species", "has_props", "theoretical", "database_IDs"]}