{"builder_meta": null, "nsites": null, "elements": null, "nelements": null, "composition": null, "composition_reduced": null, "formula_pretty": "Y2Br3", "formula_anonymous": "A2B3", "chemsys": null, "volume": 307.2754163144319, "density": 4.512657884559931, "density_atomic": 30.727541631443188, "symmetry": null, "property_name": null, "material_id": "mp-1205567", "deprecated": null, "deprecation_reasons": null, "last_updated": null, "origins": null, "warnings": null, "structure": {"@module": "pymatgen.core.structure", "@class": "Structure", "charge": 0, "lattice": {"matrix": [[-0.0, -3.92724712, -0.0], [7.23241172, -1.963623039999999, -4.20410592], [7.177883, -1.963623039999999, 6.64582674]], "pbc": [true, true, true], "a": 3.92724712, "b": 8.592909944680628, "c": 9.97721568690418, "alpha": 71.05835563466451, "beta": 78.64947951760885, "gamma": 76.79024323313288, "volume": 307.2754163144319}, "properties": {}, "sites": [{"species": [{"element": "Y", "occu": 1}], "abc": [0.92003142, 0.70486895, 0.4550672], "properties": {"magmom": 0.0}, "label": "Y", "xyz": [8.364321573781694, -5.890868093573406, 0.06095404073774402]}, {"species": [{"element": "Y", "occu": 1}], "abc": [0.07996858, 0.29513105, 0.5449328], "properties": {"magmom": 0.0}, "label": "Y", "xyz": [6.045973146218306, -1.9636251064265928, 2.380766779262256]}, {"species": [{"element": "Y", "occu": 1}], "abc": [0.63422583, 0.5172803, 0.21426804], "properties": {"magmom": -0.0}, "label": "Y", "xyz": [5.279175026004436, -3.927246739594862, -0.7507129017699865]}, {"species": [{"element": "Y", "occu": 1}], "abc": [0.36577417, 0.4827197, 0.78573196], "properties": {"magmom": -0.0}, "label": "Y", "xyz": [9.131119693995563, -3.9272464604051356, 3.192433721769987]}, {"species": [{"element": "Br", "occu": 1}], "abc": [0.83869914, 0.3142956, 0.00830713], "properties": {"magmom": -0.0}, "label": "Br", "xyz": [2.332742788190222, -3.9272489355063755, -1.2661242459032958]}, {"species": [{"element": "Br", "occu": 1}], "abc": [0.16130086, 0.6857044, 0.9916928700000001], "properties": {"magmom": -0.0}, "label": "Br", "xyz": [12.07755193180978, -3.9272442644936225, 3.7078450659032964]}, {"species": [{"element": "Br", "occu": 1}], "abc": [0.72389128, 0.17142994, 0.38078651], "properties": {"magmom": -0.0}, "label": "Br", "xyz": [3.9730929239732267, -3.927244888860121, 1.8099315447700328]}, {"species": [{"element": "Br", "occu": 1}], "abc": [0.27610872000000003, 0.82857006, 0.61921349], "properties": {"magmom": -0.0}, "label": "Br", "xyz": [10.437201796026773, -3.927248311139877, 0.6317892752299681]}, {"species": [{"element": "Br", "occu": 1}], "abc": [0.45547615, 0.85243818, 0.23660953], "properties": {"magmom": -0.0}, "label": "Br", "xyz": [7.8635394066324595, -3.9272465733314252, -2.0112744575591934]}, {"species": [{"element": "Br", "occu": 1}], "abc": [0.54452385, 0.14756182, 0.76339047], "properties": {"magmom": -0.0}, "label": "Br", "xyz": [6.54675531336754, -3.927246626668573, 4.452995277559194]}]}, "task_ids": null, "uncorrected_energy_per_atom": null, "energy_per_atom": -5.4243977779999994, "formation_energy_per_atom": -1.838593256999999, "energy_above_hull": 0.005704992000000001, "is_stable": false, "equilibrium_reaction_energy_per_atom": null, "decomposes_to": null, "xas": null, "grain_boundaries": null, "band_gap": 0.6648000000000001, "cbm": null, "vbm": null, "efermi": 2.98084691, "is_gap_direct": null, "is_metal": null, "es_source_calc_id": null, "bandstructure": null, "dos": null, "dos_energy_up": null, "dos_energy_down": null, "is_magnetic": null, "ordering": null, "total_magnetization": 0.0, "total_magnetization_normalized_vol": null, "total_magnetization_normalized_formula_units": null, "num_magnetic_sites": null, "num_unique_magnetic_sites": null, "types_of_magnetic_species": null, "bulk_modulus": null, "shear_modulus": null, "universal_anisotropy": null, "homogeneous_poisson": null, "e_total": null, "e_ionic": null, "e_electronic": null, "n": null, "e_ij_max": null, "weighted_surface_energy_EV_PER_ANG2": null, "weighted_surface_energy": null, "weighted_work_function": null, "surface_anisotropy": null, "shape_factor": null, "has_reconstructed": null, "possible_species": null, "has_props": null, "theoretical": null, "database_IDs": null, "fields_not_requested": ["builder_meta", "nsites", "elements", "nelements", "composition", "composition_reduced", "chemsys", "symmetry", "property_name", "deprecated", "deprecation_reasons", "last_updated", "origins", "warnings", "task_ids", "uncorrected_energy_per_atom", "equilibrium_reaction_energy_per_atom", "decomposes_to", "xas", "grain_boundaries", "cbm", "vbm", "is_gap_direct", "is_metal", "es_source_calc_id", "bandstructure", "dos", "dos_energy_up", "dos_energy_down", "is_magnetic", "ordering", "total_magnetization_normalized_vol", "total_magnetization_normalized_formula_units", "num_magnetic_sites", "num_unique_magnetic_sites", "types_of_magnetic_species", "bulk_modulus", "shear_modulus", "universal_anisotropy", "homogeneous_poisson", "e_total", "e_ionic", "e_electronic", "n", "e_ij_max", "weighted_surface_energy_EV_PER_ANG2", "weighted_surface_energy", "weighted_work_function", "surface_anisotropy", "shape_factor", "has_reconstructed", "possible_species", "has_props", "theoretical", "database_IDs"]}