{"builder_meta": null, "nsites": null, "elements": null, "nelements": null, "composition": null, "composition_reduced": null, "formula_pretty": "Y2C", "formula_anonymous": "AB2", "chemsys": null, "volume": 69.42956412506689, "density": 4.539960964582365, "density_atomic": 23.143188041688962, "symmetry": null, "property_name": null, "material_id": "mp-1334", "deprecated": null, "deprecation_reasons": null, "last_updated": null, "origins": null, "warnings": null, "structure": {"@module": "pymatgen.core.structure", "@class": "Structure", "charge": 0, "lattice": {"matrix": [[3.5077494700000003, 0.02348993, 5.42960809], [1.61887281, 3.11193089, 5.42960808], [0.03840937, 0.02348991, 6.46401469]], "pbc": [true, true, true], "a": 6.464170645341143, "b": 6.464171017345904, "c": 6.4641714835013, "alpha": 32.523461667704595, "beta": 32.52344775665362, "gamma": 32.52345515480628, "volume": 69.4295641250669}, "properties": {}, "sites": [{"species": [{"element": "Y", "occu": 1}], "abc": [0.73974582, 0.73974582, 0.73974582], "properties": {"magmom": -0.07}, "label": "Y", "xyz": [3.8208105732552036, 2.336791008270649, 12.814787617580006]}, {"species": [{"element": "Y", "occu": 1}], "abc": [0.26025418, 0.26025418, 0.26025418], "properties": {"magmom": -0.07}, "label": "Y", "xyz": [1.344221076744797, 0.8221197217293514, 4.508443242419995]}, {"species": [{"element": "C", "occu": 1}], "abc": [0.0, -0.0, -0.0], "properties": {"magmom": 0.003}, "label": "C", "xyz": [0.0, 0.0, 0.0]}]}, "task_ids": null, "uncorrected_energy_per_atom": null, "energy_per_atom": -7.679014703333334, "formation_energy_per_atom": -0.263398539166667, "energy_above_hull": 0.0, "is_stable": true, "equilibrium_reaction_energy_per_atom": null, "decomposes_to": null, "xas": null, "grain_boundaries": null, "band_gap": 0.0, "cbm": null, "vbm": null, "efermi": 3.24914565, "is_gap_direct": null, "is_metal": null, "es_source_calc_id": null, "bandstructure": null, "dos": null, "dos_energy_up": null, "dos_energy_down": null, "is_magnetic": null, "ordering": null, "total_magnetization": 0.3011953, "total_magnetization_normalized_vol": null, "total_magnetization_normalized_formula_units": null, "num_magnetic_sites": null, "num_unique_magnetic_sites": null, "types_of_magnetic_species": null, "bulk_modulus": null, "shear_modulus": null, "universal_anisotropy": null, "homogeneous_poisson": null, "e_total": null, "e_ionic": null, "e_electronic": null, "n": null, "e_ij_max": null, "weighted_surface_energy_EV_PER_ANG2": null, "weighted_surface_energy": null, "weighted_work_function": null, "surface_anisotropy": null, "shape_factor": null, "has_reconstructed": null, "possible_species": null, "has_props": null, "theoretical": null, "database_IDs": null, "fields_not_requested": ["builder_meta", "nsites", "elements", "nelements", "composition", "composition_reduced", "chemsys", "symmetry", "property_name", "deprecated", "deprecation_reasons", "last_updated", "origins", "warnings", "task_ids", "uncorrected_energy_per_atom", "equilibrium_reaction_energy_per_atom", "decomposes_to", "xas", "grain_boundaries", "cbm", "vbm", "is_gap_direct", "is_metal", "es_source_calc_id", "bandstructure", "dos", "dos_energy_up", "dos_energy_down", "is_magnetic", "ordering", "total_magnetization_normalized_vol", "total_magnetization_normalized_formula_units", "num_magnetic_sites", "num_unique_magnetic_sites", "types_of_magnetic_species", "bulk_modulus", "shear_modulus", "universal_anisotropy", "homogeneous_poisson", "e_total", "e_ionic", "e_electronic", "n", "e_ij_max", "weighted_surface_energy_EV_PER_ANG2", "weighted_surface_energy", "weighted_work_function", "surface_anisotropy", "shape_factor", "has_reconstructed", "possible_species", "has_props", "theoretical", "database_IDs"]}