{
  "builder_meta": null,
  "nsites": null,
  "elements": null,
  "nelements": null,
  "composition": null,
  "composition_reduced": null,
  "formula_pretty": "Y2C3",
  "formula_anonymous": "A2B3",
  "chemsys": null,
  "volume": 279.738044525066,
  "density": 5.077550100889169,
  "density_atomic": 13.986902226253301,
  "symmetry": null,
  "property_name": null,
  "material_id": "mp-1695",
  "deprecated": null,
  "deprecation_reasons": null,
  "last_updated": null,
  "origins": null,
  "warnings": null,
  "structure": {
    "@module": "pymatgen.core.structure",
    "@class": "Structure",
    "charge": 0,
    "lattice": {
      "matrix": [
        [6.7279307, -0.0, -2.378682249999999],
        [-3.36396536, 5.82655987, -2.378682249999999],
        [1e-8, 1e-8, 7.1360488]
      ],
      "pbc": [true, true, true],
      "a": 7.136047978430887,
      "b": 7.136048774247511,
      "c": 7.1360488,
      "alpha": 109.47121485886659,
      "beta": 109.47121706705029,
      "gamma": 109.47122194284407,
      "volume": 279.738044525066
    },
    "properties": {},
    "sites": [
      {
        "species": [{ "element": "Y", "occu": 1 }],
        "abc": [0.6005051, 0.6005051, 0.6005051],
        "properties": { "magmom": 0.0 },
        "label": "Y",
        "xyz": [2.0200783488982856, 3.498878923395388, 1.4284120534399314]
      },
      {
        "species": [{ "element": "Y", "occu": 1 }],
        "abc": [0.3994949, 0.5, -0.0],
        "properties": { "magmom": 0.0 },
        "label": "Y",
        "xyz": [1.00579132220343, 2.913279935, -2.139612552595524]
      },
      {
        "species": [{ "element": "Y", "occu": 1 }],
        "abc": [0.5, 0.0, 0.3994949],
        "properties": { "magmom": 0.0 },
        "label": "Y",
        "xyz": [3.363965353994949, 3.994949e-9, 1.6614739767511204]
      },
      {
        "species": [{ "element": "Y", "occu": 1 }],
        "abc": [0.0, 0.3994949, 0.5],
        "properties": { "magmom": 0.0 },
        "label": "Y",
        "xyz": [-1.3438870000966638, 2.3276809576096626, 2.6177529724044755]
      },
      {
        "species": [{ "element": "Y", "occu": 1 }],
        "abc": [0.5, 0.0, 0.8994949],
        "properties": { "magmom": 0.0 },
        "label": "Y",
        "xyz": [3.3639653589949488, 8.994949e-9, 5.2294983767511205]
      },
      {
        "species": [{ "element": "Y", "occu": 1 }],
        "abc": [0.0, 0.8994949, 0.5],
        "properties": { "magmom": 0.0 },
        "label": "Y",
        "xyz": [-3.025869680096664, 5.240960892609663, 1.428411847404476]
      },
      {
        "species": [{ "element": "Y", "occu": 1 }],
        "abc": [0.8994949, 0.5, -0.0],
        "properties": { "magmom": 0.0 },
        "label": "Y",
        "xyz": [4.36975667220343, 2.913279935, -3.3289536775955235]
      },
      {
        "species": [{ "element": "Y", "occu": 1 }],
        "abc": [0.1005051, 0.1005051, 0.1005051],
        "properties": { "magmom": 0.0 },
        "label": "Y",
        "xyz": [0.338095673898285, 0.585598983395388, 0.23906990343993023]
      },
      {
        "species": [{ "element": "C", "occu": 1 }],
        "abc": [0.75, 0.79416625, 0.044166250000000004],
        "properties": { "magmom": 0.0 },
        "label": "C",
        "xyz": [2.3744002703605624, 4.62725720280005, -3.3579083346110608]
      },
      {
        "species": [{ "element": "C", "occu": 1 }],
        "abc": [0.75, 0.95583375, 0.20583375],
        "properties": { "magmom": 0.0 },
        "label": "C",
        "xyz": [1.830556402139437, 5.5692225721999495, -2.588796777888935]
      },
      {
        "species": [{ "element": "C", "occu": 1 }],
        "abc": [0.29416625, 0.25, 0.54416625],
        "properties": { "magmom": 0.0 },
        "label": "C",
        "xyz": [1.1381388097205376, 1.4566399729416624, 2.588798315388938]
      },
      {
        "species": [{ "element": "C", "occu": 1 }],
        "abc": [0.54416625, 0.29416625, 0.25],
        "properties": { "magmom": 0.0 },
        "label": "C",
        "xyz": [2.671547746697775, 1.7139772698583875, -0.21011443734812385]
      },
      {
        "species": [{ "element": "C", "occu": 1 }],
        "abc": [0.20583375, 0.75, 0.95583375],
        "properties": { "magmom": 0.0 },
        "label": "C",
        "xyz": [-1.1381388047205374, 4.369919912058337, 4.547251509611064]
      },
      {
        "species": [{ "element": "C", "occu": 1 }],
        "abc": [0.95583375, 0.20583375, 0.75],
        "properties": { "magmom": 0.0 },
        "label": "C",
        "xyz": [5.738365633302225, 1.1993026751416125, 2.588798737348126]
      },
      {
        "species": [{ "element": "C", "occu": 1 }],
        "abc": [0.25, 0.70583375, 0.45583375],
        "properties": { "magmom": 0.0 },
        "label": "C",
        "xyz": [-0.6924176053605626, 4.1125826071999505, 0.9792271096110632]
      },
      {
        "species": [{ "element": "C", "occu": 1 }],
        "abc": [0.70583375, 0.45583375, 0.25],
        "properties": { "magmom": 0.0 },
        "label": "C",
        "xyz": [3.2153916133022253, 2.6559426376416124, -0.9792256626518736]
      },
      {
        "species": [{ "element": "C", "occu": 1 }],
        "abc": [0.25, 0.54416625, 0.29416625],
        "properties": { "magmom": 0.0 },
        "label": "C",
        "xyz": [-0.1485737371394373, 3.1706172378000494, 0.21011555288893868]
      },
      {
        "species": [{ "element": "C", "occu": 1 }],
        "abc": [0.45583375, 0.25, 0.70583375],
        "properties": { "magmom": 0.0 },
        "label": "C",
        "xyz": [2.2258265477794623, 1.4566399745583374, 3.3579098721110636]
      },
      {
        "species": [{ "element": "C", "occu": 1 }],
        "abc": [0.044166250000000004, 0.75, 0.79416625],
        "properties": { "magmom": 0.0 },
        "label": "C",
        "xyz": [-2.2258265427794623, 4.369919910441662, 3.778139952888938]
      },
      {
        "species": [{ "element": "C", "occu": 1 }],
        "abc": [0.79416625, 0.044166250000000004, 0.75],
        "properties": { "magmom": 0.0 },
        "label": "C",
        "xyz": [5.1945217666977745, 0.2573373073583875, 3.357909962651876]
      }
    ]
  },
  "task_ids": null,
  "uncorrected_energy_per_atom": null,
  "energy_per_atom": -8.379306053,
  "formation_energy_per_atom": -0.23847015750000003,
  "energy_above_hull": 0.044295184659999,
  "is_stable": false,
  "equilibrium_reaction_energy_per_atom": null,
  "decomposes_to": null,
  "xas": null,
  "grain_boundaries": null,
  "band_gap": 0.0,
  "cbm": null,
  "vbm": null,
  "efermi": 5.43559367,
  "is_gap_direct": null,
  "is_metal": null,
  "es_source_calc_id": null,
  "bandstructure": null,
  "dos": null,
  "dos_energy_up": null,
  "dos_energy_down": null,
  "is_magnetic": null,
  "ordering": null,
  "total_magnetization": 2.1e-6,
  "total_magnetization_normalized_vol": null,
  "total_magnetization_normalized_formula_units": null,
  "num_magnetic_sites": null,
  "num_unique_magnetic_sites": null,
  "types_of_magnetic_species": null,
  "bulk_modulus": null,
  "shear_modulus": null,
  "universal_anisotropy": null,
  "homogeneous_poisson": null,
  "e_total": null,
  "e_ionic": null,
  "e_electronic": null,
  "n": null,
  "e_ij_max": null,
  "weighted_surface_energy_EV_PER_ANG2": null,
  "weighted_surface_energy": null,
  "weighted_work_function": null,
  "surface_anisotropy": null,
  "shape_factor": null,
  "has_reconstructed": null,
  "possible_species": null,
  "has_props": null,
  "theoretical": null,
  "database_IDs": null,
  "fields_not_requested": [
    "builder_meta",
    "nsites",
    "elements",
    "nelements",
    "composition",
    "composition_reduced",
    "chemsys",
    "symmetry",
    "property_name",
    "deprecated",
    "deprecation_reasons",
    "last_updated",
    "origins",
    "warnings",
    "task_ids",
    "uncorrected_energy_per_atom",
    "equilibrium_reaction_energy_per_atom",
    "decomposes_to",
    "xas",
    "grain_boundaries",
    "cbm",
    "vbm",
    "is_gap_direct",
    "is_metal",
    "es_source_calc_id",
    "bandstructure",
    "dos",
    "dos_energy_up",
    "dos_energy_down",
    "is_magnetic",
    "ordering",
    "total_magnetization_normalized_vol",
    "total_magnetization_normalized_formula_units",
    "num_magnetic_sites",
    "num_unique_magnetic_sites",
    "types_of_magnetic_species",
    "bulk_modulus",
    "shear_modulus",
    "universal_anisotropy",
    "homogeneous_poisson",
    "e_total",
    "e_ionic",
    "e_electronic",
    "n",
    "e_ij_max",
    "weighted_surface_energy_EV_PER_ANG2",
    "weighted_surface_energy",
    "weighted_work_function",
    "surface_anisotropy",
    "shape_factor",
    "has_reconstructed",
    "possible_species",
    "has_props",
    "theoretical",
    "database_IDs"
  ]
}
