{"builder_meta": null, "nsites": null, "elements": null, "nelements": null, "composition": null, "composition_reduced": null, "formula_pretty": "Y2Cl3", "formula_anonymous": "A2B3", "chemsys": null, "volume": 263.18960308422294, "density": 3.5858297091018763, "density_atomic": 26.318960308422295, "symmetry": null, "property_name": null, "material_id": "mp-27678", "deprecated": null, "deprecation_reasons": null, "last_updated": null, "origins": null, "warnings": null, "structure": {"@module": "pymatgen.core.structure", "@class": "Structure", "charge": 0, "lattice": {"matrix": [[3.77406877, -0.0, 0.77529834], [1.4284009100000001, 7.28487431, 2.62022638], [0.0014286400000000001, -0.0202796, 9.56656924]], "pbc": [true, true, true], "a": 3.8528797796837715, "b": 7.872439847635212, "c": 9.566590841407537, "alpha": 70.67658372351424, "beta": 78.38282769634854, "gamma": 75.83549205598274, "volume": 263.18960308422294}, "properties": {}, "sites": [{"species": [{"element": "Y", "occu": 1}], "abc": [0.13747457, 0.01674559, 0.7083042700000001], "properties": {"magmom": -0.0}, "label": "Y", "xyz": [0.5437698091129585, 0.10762539112290091, 6.926502884522534]}, {"species": [{"element": "Y", "occu": 1}], "abc": [0.86252543, 0.98325441, 0.29169573], "properties": {"magmom": -0.0}, "label": "Y", "xyz": [4.660128510887041, 7.156969318877099, 6.035591075477466]}, {"species": [{"element": "Y", "occu": 1}], "abc": [0.41131326, 0.22681802, 0.95055246], "properties": {"magmom": 0.0}, "label": "Y", "xyz": [1.8776695926917428, 1.6330639432752503, 10.006730972003686]}, {"species": [{"element": "Y", "occu": 1}], "abc": [0.58868674, 0.77318198, 0.04944754], "properties": {"magmom": 0.0}, "label": "Y", "xyz": [3.3262287273082567, 5.63153076672475, 2.9553629879963137]}, {"species": [{"element": "Cl", "occu": 1}], "abc": [0.95244281, 0.35851737, 0.73659401], "properties": {"magmom": 0.0}, "label": "Cl", "xyz": [4.107743529657297, 2.5968161465165687, 8.724501598534408]}, {"species": [{"element": "Cl", "occu": 1}], "abc": [0.04755719, 0.64148263, 0.26340599], "properties": {"magmom": 0.0}, "label": "Cl", "xyz": [1.0961547903427034, 4.667778563483432, 4.237592361465592]}, {"species": [{"element": "Cl", "occu": 1}], "abc": [0.770834599999999, 0.34049062, 0.11784118], "properties": {"magmom": -0.0}, "label": "Cl", "xyz": [3.395708254773298, 2.4780415984400443, 2.617125098254422]}, {"species": [{"element": "Cl", "occu": 1}], "abc": [0.2291654, 0.65950938, 0.88215882], "properties": {"magmom": -0.0}, "label": "Cl", "xyz": [1.8081900652266987, 4.786553111559956, 10.344968861745578]}, {"species": [{"element": "Cl", "occu": 1}], "abc": [0.34077693000000003, 0.81045057, 0.50799656], "properties": {"magmom": -0.0}, "label": "Cl", "xyz": [2.444489644952973, 5.893728569879681, 7.247552016261148]}, {"species": [{"element": "Cl", "occu": 1}], "abc": [0.65922307, 0.18954943, 0.49200344], "properties": {"magmom": -0.0}, "label": "Cl", "xyz": [2.759408675047027, 1.3708661401203193, 5.714541943738853]}]}, "task_ids": null, "uncorrected_energy_per_atom": null, "energy_per_atom": -13.909505508999999, "formation_energy_per_atom": -2.092601786499999, "energy_above_hull": 0.0, "is_stable": true, "equilibrium_reaction_energy_per_atom": null, "decomposes_to": null, "xas": null, "grain_boundaries": null, "band_gap": 0.760699999999999, "cbm": null, "vbm": null, "efermi": 3.723703839999999, "is_gap_direct": null, "is_metal": null, "es_source_calc_id": null, "bandstructure": null, "dos": null, "dos_energy_up": null, "dos_energy_down": null, "is_magnetic": null, "ordering": null, "total_magnetization": 0.0, "total_magnetization_normalized_vol": null, "total_magnetization_normalized_formula_units": null, "num_magnetic_sites": null, "num_unique_magnetic_sites": null, "types_of_magnetic_species": null, "bulk_modulus": null, "shear_modulus": null, "universal_anisotropy": null, "homogeneous_poisson": null, "e_total": null, "e_ionic": null, "e_electronic": null, "n": null, "e_ij_max": null, "weighted_surface_energy_EV_PER_ANG2": null, "weighted_surface_energy": null, "weighted_work_function": null, "surface_anisotropy": null, "shape_factor": null, "has_reconstructed": null, "possible_species": null, "has_props": null, "theoretical": null, "database_IDs": null, "fields_not_requested": ["builder_meta", "nsites", "elements", "nelements", "composition", "composition_reduced", "chemsys", "symmetry", "property_name", "deprecated", "deprecation_reasons", "last_updated", "origins", "warnings", "task_ids", "uncorrected_energy_per_atom", "equilibrium_reaction_energy_per_atom", "decomposes_to", "xas", "grain_boundaries", "cbm", "vbm", "is_gap_direct", "is_metal", "es_source_calc_id", "bandstructure", "dos", "dos_energy_up", "dos_energy_down", "is_magnetic", "ordering", "total_magnetization_normalized_vol", "total_magnetization_normalized_formula_units", "num_magnetic_sites", "num_unique_magnetic_sites", "types_of_magnetic_species", "bulk_modulus", "shear_modulus", "universal_anisotropy", "homogeneous_poisson", "e_total", "e_ionic", "e_electronic", "n", "e_ij_max", "weighted_surface_energy_EV_PER_ANG2", "weighted_surface_energy", "weighted_work_function", "surface_anisotropy", "shape_factor", "has_reconstructed", "possible_species", "has_props", "theoretical", "database_IDs"]}