{"builder_meta": null, "nsites": null, "elements": null, "nelements": null, "composition": null, "composition_reduced": null, "formula_pretty": "Y2Co7", "formula_anonymous": "A2B7", "chemsys": null, "volume": 258.2032889608749, "density": 7.593159534203232, "density_atomic": 14.34462716449305, "symmetry": null, "property_name": null, "material_id": "mp-2017630", "deprecated": null, "deprecation_reasons": null, "last_updated": null, "origins": null, "warnings": null, "structure": {"@module": "pymatgen.core.structure", "@class": "Structure", "charge": 0, "lattice": {"matrix": [[-2.55493472, -4.2522438, 0.01928679], [2.5528517600000002, -4.25104646, 0.0184999], [-0.0025561, -2.88662103, 11.90255941]], "pbc": [true, true, true], "a": 4.960810492083771, "b": 4.958708537503858, "c": 12.247591927112245, "alpha": 78.13703080577926, "beta": 78.11719340923261, "gamma": 61.98458791708731, "volume": 258.2032889608749}, "properties": {}, "sites": [{"species": [{"element": "Y", "occu": 1}], "abc": [0.05197313, 0.05192662, 0.84421752], "properties": {"magmom": 0.448}, "label": "Y", "xyz": [-0.0023848954890943724, -2.878680941066305, 10.050312218884155]}, {"species": [{"element": "Y", "occu": 1}], "abc": [0.94802687, 0.94807338, 0.15578248], "properties": {"magmom": 0.448}, "label": "Y", "xyz": [-0.0022541645109055946, -8.511230348933696, 1.8900338811158461]}, {"species": [{"element": "Y", "occu": 1}], "abc": [0.15099074, 0.150936799999999, 0.55219867], "properties": {"magmom": 0.542}, "label": "Y", "xyz": [-0.001863683516114302, -2.8776770809061665, 6.57828191819863]}, {"species": [{"element": "Y", "occu": 1}], "abc": [0.84900926, 0.849063199999999, 0.44780133], "properties": {"magmom": 0.542}, "label": "Y", "xyz": [-0.0027753764838900504, -8.512234209093826, 5.362064181801371]}, {"species": [{"element": "Co", "occu": 1}], "abc": [0.5, 0.5, 0.5], "properties": {"magmom": -1.5550000000000002}, "label": "Co", "xyz": [-0.002319529999999817, -5.694955645, 5.9701730500000005]}, {"species": [{"element": "Co", "occu": 1}], "abc": [0.27448954000000003, 0.27448538, 0.16672146000000002], "properties": {"magmom": -1.783}, "label": "Co", "xyz": [-0.001008527319465989, -2.8153082201889106, 1.9947840567685775]}, {"species": [{"element": "Co", "occu": 1}], "abc": [0.72551046, 0.72551462, 0.83327854], "properties": {"magmom": -1.783}, "label": "Co", "xyz": [-0.003630532680533534, -8.57460306981109, 9.945562043231423]}, {"species": [{"element": "Co", "occu": 1}], "abc": [0.38316228, 0.38308397, 0.84067217], "properties": {"magmom": -1.7730000000000001}, "label": "Co", "xyz": [-0.003146867657811353, -5.684509149332846, 10.020627433325505]}, {"species": [{"element": "Co", "occu": 1}], "abc": [0.61683772, 0.6169160300000001, 0.15932783], "properties": {"magmom": -1.7730000000000001}, "label": "Co", "xyz": [-0.00149219234218817, -5.705402140667155, 1.9197186666744963]}, {"species": [{"element": "Co", "occu": 1}], "abc": [0.5, 0.5, -0.0], "properties": {"magmom": -1.802}, "label": "Co", "xyz": [-0.001041479999999817, -4.25164513, 0.018893345]}, {"species": [{"element": "Co", "occu": 1}], "abc": [0.5, 0.0, -0.0], "properties": {"magmom": -1.742999999999999}, "label": "Co", "xyz": [-1.27746736, -2.1261219, 0.009643395]}, {"species": [{"element": "Co", "occu": 1}], "abc": [0.0, 0.5, -0.0], "properties": {"magmom": -1.742}, "label": "Co", "xyz": [1.2764258800000001, -2.12552323, 0.00924995]}, {"species": [{"element": "Co", "occu": 1}], "abc": [0.11494262000000001, 0.60844736, 0.67419487], "properties": {"magmom": -1.579}, "label": "Co", "xyz": [1.2578817136903806, -5.021447129135218, 8.038117583581482]}, {"species": [{"element": "Co", "occu": 1}], "abc": [0.60433393, 0.60423136, 0.67480168], "properties": {"magmom": -1.694}, "label": "Co", "xyz": [-0.0032455099821039005, -7.08628751148845, 8.054700967502457]}, {"species": [{"element": "Co", "occu": 1}], "abc": [0.60849392, 0.11496218, 0.67418651], "properties": {"magmom": -1.581}, "label": "Co", "xyz": [-1.2629041277086765, -5.022295024888884, 8.038407671980657]}, {"species": [{"element": "Co", "occu": 1}], "abc": [0.88505738, 0.39155264, 0.32580513], "properties": {"magmom": -1.579}, "label": "Co", "xyz": [-1.2625207736903796, -6.368464160864782, 3.9022285164185195]}, {"species": [{"element": "Co", "occu": 1}], "abc": [0.39566607, 0.39576864, 0.32519832], "properties": {"magmom": -1.694}, "label": "Co", "xyz": [-0.0013935500178957332, -4.303623778511549, 3.8856451324975425]}, {"species": [{"element": "Co", "occu": 1}], "abc": [0.39150608000000003, 0.88503782, 0.32581349], "properties": {"magmom": -1.581}, "label": "Co", "xyz": [1.2582650677086764, -6.367616265111116, 3.901938428019342]}]}, "task_ids": null, "uncorrected_energy_per_atom": null, "energy_per_atom": -14.90461205611111, "formation_energy_per_atom": -0.097187630555554, "energy_above_hull": 0.0, "is_stable": true, "equilibrium_reaction_energy_per_atom": null, "decomposes_to": null, "xas": null, "grain_boundaries": null, "band_gap": 0.0, "cbm": null, "vbm": null, "efermi": 7.80058452, "is_gap_direct": null, "is_metal": null, "es_source_calc_id": null, "bandstructure": null, "dos": null, "dos_energy_up": null, "dos_energy_down": null, "is_magnetic": null, "ordering": null, "total_magnetization": 20.1010504, "total_magnetization_normalized_vol": null, "total_magnetization_normalized_formula_units": null, "num_magnetic_sites": null, "num_unique_magnetic_sites": null, "types_of_magnetic_species": null, "bulk_modulus": null, "shear_modulus": null, "universal_anisotropy": null, "homogeneous_poisson": null, "e_total": null, "e_ionic": null, "e_electronic": null, "n": null, "e_ij_max": null, "weighted_surface_energy_EV_PER_ANG2": null, "weighted_surface_energy": null, "weighted_work_function": null, "surface_anisotropy": null, "shape_factor": null, "has_reconstructed": null, "possible_species": null, "has_props": null, "theoretical": null, "database_IDs": null, "fields_not_requested": ["builder_meta", "nsites", "elements", "nelements", "composition", "composition_reduced", "chemsys", "symmetry", "property_name", "deprecated", "deprecation_reasons", "last_updated", "origins", "warnings", "task_ids", "uncorrected_energy_per_atom", "equilibrium_reaction_energy_per_atom", "decomposes_to", "xas", "grain_boundaries", "cbm", "vbm", "is_gap_direct", "is_metal", "es_source_calc_id", "bandstructure", "dos", "dos_energy_up", "dos_energy_down", "is_magnetic", "ordering", "total_magnetization_normalized_vol", "total_magnetization_normalized_formula_units", "num_magnetic_sites", "num_unique_magnetic_sites", "types_of_magnetic_species", "bulk_modulus", "shear_modulus", "universal_anisotropy", "homogeneous_poisson", "e_total", "e_ionic", "e_electronic", "n", "e_ij_max", "weighted_surface_energy_EV_PER_ANG2", "weighted_surface_energy", "weighted_work_function", "surface_anisotropy", "shape_factor", "has_reconstructed", "possible_species", "has_props", "theoretical", "database_IDs"]}