{"builder_meta": null, "nsites": null, "elements": null, "nelements": null, "composition": null, "composition_reduced": null, "formula_pretty": "Y2In", "formula_anonymous": "AB2", "chemsys": null, "volume": 170.6059028694426, "density": 5.69643887725613, "density_atomic": 28.434317144907098, "symmetry": null, "property_name": null, "material_id": "mp-21294", "deprecated": null, "deprecation_reasons": null, "last_updated": null, "origins": null, "warnings": null, "structure": {"@module": "pymatgen.core.structure", "@class": "Structure", "charge": 0, "lattice": {"matrix": [[5.39418632, 2e-08, 0.0], [-2.69709213, 4.67150184, -0.0], [0.0, -0.0, 6.77035724]], "pbc": [true, true, true], "a": 5.39418632, "b": 5.394185332265784, "c": 6.77035724, "alpha": 90.0, "beta": 90.0, "gamma": 119.99999321191643, "volume": 170.6059028694426}, "properties": {}, "sites": [{"species": [{"element": "Y", "occu": 1}], "abc": [-0.0, -0.0, 0.0], "properties": {"magmom": -0.379}, "label": "Y", "xyz": [0.0, 0.0, 0.0]}, {"species": [{"element": "Y", "occu": 1}], "abc": [-0.0, -0.0, 0.5], "properties": {"magmom": -0.379}, "label": "Y", "xyz": [0.0, 0.0, 3.38517862]}, {"species": [{"element": "Y", "occu": 1}], "abc": [0.333333, 0.666667, 0.7499904], "properties": {"magmom": -0.259}, "label": "Y", "xyz": [-2.01042615000091e-06, 3.11433612383394, 5.077702934570496]}, {"species": [{"element": "Y", "occu": 1}], "abc": [0.666667, 0.333333, 0.2500096], "properties": {"magmom": -0.259}, "label": "Y", "xyz": [2.69709620042615, 1.55716573616606, 1.692654305429504]}, {"species": [{"element": "In", "occu": 1}], "abc": [0.333333, 0.666667, 0.24999892], "properties": {"magmom": 0.062}, "label": "In", "xyz": [-2.01042615000091e-06, 3.11433612383394, 1.692581998014181]}, {"species": [{"element": "In", "occu": 1}], "abc": [0.666667, 0.333333, 0.75000108], "properties": {"magmom": 0.062}, "label": "In", "xyz": [2.69709620042615, 1.55716573616606, 5.077775241985819]}]}, "task_ids": null, "uncorrected_energy_per_atom": null, "energy_per_atom": -21.563173556666666, "formation_energy_per_atom": -0.49457612333333106, "energy_above_hull": 0.0, "is_stable": true, "equilibrium_reaction_energy_per_atom": null, "decomposes_to": null, "xas": null, "grain_boundaries": null, "band_gap": 0.0, "cbm": null, "vbm": null, "efermi": 4.77834539, "is_gap_direct": null, "is_metal": null, "es_source_calc_id": null, "bandstructure": null, "dos": null, "dos_energy_up": null, "dos_energy_down": null, "is_magnetic": null, "ordering": null, "total_magnetization": 1.8037189, "total_magnetization_normalized_vol": null, "total_magnetization_normalized_formula_units": null, "num_magnetic_sites": null, "num_unique_magnetic_sites": null, "types_of_magnetic_species": null, "bulk_modulus": null, "shear_modulus": null, "universal_anisotropy": null, "homogeneous_poisson": null, "e_total": null, "e_ionic": null, "e_electronic": null, "n": null, "e_ij_max": null, "weighted_surface_energy_EV_PER_ANG2": null, "weighted_surface_energy": null, "weighted_work_function": null, "surface_anisotropy": null, "shape_factor": null, "has_reconstructed": null, "possible_species": null, "has_props": null, "theoretical": null, "database_IDs": null, "fields_not_requested": ["builder_meta", "nsites", "elements", "nelements", "composition", "composition_reduced", "chemsys", "symmetry", "property_name", "deprecated", "deprecation_reasons", "last_updated", "origins", "warnings", "task_ids", "uncorrected_energy_per_atom", "equilibrium_reaction_energy_per_atom", "decomposes_to", "xas", "grain_boundaries", "cbm", "vbm", "is_gap_direct", "is_metal", "es_source_calc_id", "bandstructure", "dos", "dos_energy_up", "dos_energy_down", "is_magnetic", "ordering", "total_magnetization_normalized_vol", "total_magnetization_normalized_formula_units", "num_magnetic_sites", "num_unique_magnetic_sites", "types_of_magnetic_species", "bulk_modulus", "shear_modulus", "universal_anisotropy", "homogeneous_poisson", "e_total", "e_ionic", "e_electronic", "n", "e_ij_max", "weighted_surface_energy_EV_PER_ANG2", "weighted_surface_energy", "weighted_work_function", "surface_anisotropy", "shape_factor", "has_reconstructed", "possible_species", "has_props", "theoretical", "database_IDs"]}