{"builder_meta": null, "nsites": null, "elements": null, "nelements": null, "composition": null, "composition_reduced": null, "formula_pretty": "Y2Mg", "formula_anonymous": "AB2", "chemsys": null, "volume": 358.1883158218958, "density": 3.748002506359319, "density_atomic": 29.849026318491315, "symmetry": null, "property_name": null, "material_id": "mp-2019746", "deprecated": null, "deprecation_reasons": null, "last_updated": null, "origins": null, "warnings": null, "structure": {"@module": "pymatgen.core.structure", "@class": "Structure", "charge": 0, "lattice": {"matrix": [[13.12613948, -2.14e-06, 0.0], [-1.1e-06, 5.22709431, -0.0], [-0.0, -0.0, 5.22052361]], "pbc": [true, true, true], "a": 13.126139480000175, "b": 5.2270943100001155, "c": 5.22052361, "alpha": 90.0, "beta": 90.0, "gamma": 90.00002139856592, "volume": 358.1883158218958}, "properties": {}, "sites": [{"species": [{"element": "Y", "occu": 1}], "abc": [0.15763089, 0.24942351000000001, 0.75], "properties": {"magmom": 0.34800000000000003}, "label": "Y", "xyz": [2.069084774130676, 1.3037598725711237, 3.9153927074999997]}, {"species": [{"element": "Y", "occu": 1}], "abc": [0.34255564, 0.7494327900000001, 0.75], "properties": {"magmom": 0.34800000000000003}, "label": "Y", "xyz": [4.496432285924599, 3.917355139267356, 3.9153927074999997]}, {"species": [{"element": "Y", "occu": 1}], "abc": [0.15763089, 0.75057649, 0.25], "properties": {"magmom": 0.34800000000000003}, "label": "Y", "xyz": [2.0690842228623985, 3.9233337627686673, 1.3051309025]}, {"species": [{"element": "Y", "occu": 1}], "abc": [0.34255564, 0.25056721, 0.25], "properties": {"magmom": 0.34800000000000003}, "label": "Y", "xyz": [4.496432834676737, 1.3097377045945053, 1.3051309025]}, {"species": [{"element": "Y", "occu": 1}], "abc": [0.65745483, 0.74943671, 0.75], "properties": {"magmom": 0.34800000000000003}, "label": "Y", "xyz": [8.629842975999308, 3.917374955592784, 3.9153927074999997]}, {"species": [{"element": "Y", "occu": 1}], "abc": [0.84235892, 0.24942858, 0.75], "properties": {"magmom": 0.34800000000000003}, "label": "Y", "xyz": [11.056920401770725, 1.3037849086212911, 3.9153927074999997]}, {"species": [{"element": "Y", "occu": 1}], "abc": [0.65745483, 0.25056329, 0.25], "properties": {"magmom": 0.34800000000000003}, "label": "Y", "xyz": [8.62984352476007, 1.3097165405005435, 1.3051309025]}, {"species": [{"element": "Y", "occu": 1}], "abc": [0.84235892, 0.75057042, 0.25], "properties": {"magmom": 0.34800000000000003}, "label": "Y", "xyz": [11.056919850514701, 3.923300568988221, 1.3051309025]}, {"species": [{"element": "Mg", "occu": 1}], "abc": [-8.635e-05, 0.74652535, 0.75], "properties": {"magmom": -0.0}, "label": "Mg", "xyz": [-0.001134263321983, 3.9021584094405473, 3.9153927074999997]}, {"species": [{"element": "Mg", "occu": 1}], "abc": [-8.635e-05, 0.25347465, 0.25], "properties": {"magmom": -0.0}, "label": "Mg", "xyz": [-0.0011337209662130002, 1.3249359009290307, 1.3051309025]}, {"species": [{"element": "Mg", "occu": 1}], "abc": [0.50008708, 0.24653353, 0.75], "properties": {"magmom": -0.0}, "label": "Mg", "xyz": [6.564212493039037, 1.2886529417008632, 3.9153927074999997]}, {"species": [{"element": "Mg", "occu": 1}], "abc": [0.50008708, 0.75346647, 0.25], "properties": {"magmom": -0.0}, "label": "Mg", "xyz": [6.564211935412803, 3.9384392279264344, 1.3051309025]}]}, "task_ids": null, "uncorrected_energy_per_atom": null, "energy_per_atom": -14.987357894166665, "formation_energy_per_atom": -0.055189392499999004, "energy_above_hull": 0.017742002500000003, "is_stable": false, "equilibrium_reaction_energy_per_atom": null, "decomposes_to": null, "xas": null, "grain_boundaries": null, "band_gap": 0.0, "cbm": null, "vbm": null, "efermi": 2.92441946, "is_gap_direct": null, "is_metal": null, "es_source_calc_id": null, "bandstructure": null, "dos": null, "dos_energy_up": null, "dos_energy_down": null, "is_magnetic": null, "ordering": null, "total_magnetization": 4.646667, "total_magnetization_normalized_vol": null, "total_magnetization_normalized_formula_units": null, "num_magnetic_sites": null, "num_unique_magnetic_sites": null, "types_of_magnetic_species": null, "bulk_modulus": null, "shear_modulus": null, "universal_anisotropy": null, "homogeneous_poisson": null, "e_total": null, "e_ionic": null, "e_electronic": null, "n": null, "e_ij_max": null, "weighted_surface_energy_EV_PER_ANG2": null, "weighted_surface_energy": null, "weighted_work_function": null, "surface_anisotropy": null, "shape_factor": null, "has_reconstructed": null, "possible_species": null, "has_props": null, "theoretical": null, "database_IDs": null, "fields_not_requested": ["builder_meta", "nsites", "elements", "nelements", "composition", "composition_reduced", "chemsys", "symmetry", "property_name", "deprecated", "deprecation_reasons", "last_updated", "origins", "warnings", "task_ids", "uncorrected_energy_per_atom", "equilibrium_reaction_energy_per_atom", "decomposes_to", "xas", "grain_boundaries", "cbm", "vbm", "is_gap_direct", "is_metal", "es_source_calc_id", "bandstructure", "dos", "dos_energy_up", "dos_energy_down", "is_magnetic", "ordering", "total_magnetization_normalized_vol", "total_magnetization_normalized_formula_units", "num_magnetic_sites", "num_unique_magnetic_sites", "types_of_magnetic_species", "bulk_modulus", "shear_modulus", "universal_anisotropy", "homogeneous_poisson", "e_total", "e_ionic", "e_electronic", "n", "e_ij_max", "weighted_surface_energy_EV_PER_ANG2", "weighted_surface_energy", "weighted_work_function", "surface_anisotropy", "shape_factor", "has_reconstructed", "possible_species", "has_props", "theoretical", "database_IDs"]}