{"builder_meta": null, "nsites": null, "elements": null, "nelements": null, "composition": null, "composition_reduced": null, "formula_pretty": "Y2O3", "formula_anonymous": "A2B3", "chemsys": null, "volume": 596.8276909170065, "density": 5.026122832858722, "density_atomic": 14.920692272925162, "symmetry": null, "property_name": null, "material_id": "mp-2652", "deprecated": null, "deprecation_reasons": null, "last_updated": null, "origins": null, "warnings": null, "structure": {"@module": "pymatgen.core.structure", "@class": "Structure", "charge": 0, "lattice": {"matrix": [[8.66125177, 1e-08, -3.06221546], [-4.33062537, 7.50086501, -3.06221546], [-0.0, -0.0, 9.18664537]], "pbc": [true, true, true], "a": 9.18664496684133, "b": 9.186645498602466, "c": 9.18664537, "alpha": 109.47122257802636, "beta": 109.4712237505925, "gamma": 109.47121307982988, "volume": 596.8276909170065}, "properties": {}, "sites": [{"species": [{"element": "Y", "occu": 1}], "abc": [0.25, 0.71745644, 0.46745644000000003], "properties": {"magmom": -0.0}, "label": "Y", "xyz": [-0.9417221184338826, 5.381543909495164, 1.3317964727581204]}, {"species": [{"element": "Y", "occu": 1}], "abc": [0.03254356, 0.75, 0.78254356], "properties": {"magmom": -0.0}, "label": "Y", "xyz": [-2.966101060847899, 5.625648757825436, 4.792633184741881]}, {"species": [{"element": "Y", "occu": 1}], "abc": [0.78254356, 0.03254356, 0.75], "properties": {"magmom": -0.0}, "label": "Y", "xyz": [6.636872827585984, 0.2441048583302712, 4.394011647389125]}, {"species": [{"element": "Y", "occu": 1}], "abc": [0.46745644000000003, 0.25, 0.71745644], "properties": {"magmom": -0.0}, "label": "Y", "xyz": [2.9661015758478992, 1.8752162571745643, 4.394011680258121]}, {"species": [{"element": "Y", "occu": 1}], "abc": [0.71745644, 0.46745644000000003, 0.25], "properties": {"magmom": -0.0}, "label": "Y", "xyz": [4.189692142414016, 3.506327661669729, -1.3317971973891245]}, {"species": [{"element": "Y", "occu": 1}], "abc": [0.75, 0.78254356, 0.03254356], "properties": {"magmom": -0.0}, "label": "Y", "xyz": [3.1070358334338826, 5.869753615504836, -4.39401243775812]}, {"species": [{"element": "Y", "occu": 1}], "abc": [0.75, 0.28254356, 0.53254356], "properties": {"magmom": -0.0}, "label": "Y", "xyz": [5.2723485184338825, 2.119321110504836, 1.7304179772418804]}, {"species": [{"element": "Y", "occu": 1}], "abc": [0.96745644, 0.25, 0.21745644], "properties": {"magmom": -0.0}, "label": "Y", "xyz": [7.296727460847899, 1.8752162621745645, -1.7304187347418791]}, {"species": [{"element": "Y", "occu": 1}], "abc": [0.21745644, 0.96745644, 0.25], "properties": {"magmom": -0.0}, "label": "Y", "xyz": [-2.3062464275859837, 7.256760161669729, -1.3317971973891245]}, {"species": [{"element": "Y", "occu": 1}], "abc": [0.53254356, 0.75, 0.28254356], "properties": {"magmom": -0.0}, "label": "Y", "xyz": [1.3645248241521015, 5.625648762825436, -1.33179723025812]}, {"species": [{"element": "Y", "occu": 1}], "abc": [0.28254356, 0.53254356, 0.75], "properties": {"magmom": -0.0}, "label": "Y", "xyz": [0.1409342575859842, 3.9945373583302715, 4.394011647389125]}, {"species": [{"element": "Y", "occu": 1}], "abc": [0.25, 0.21745644, 0.96745644], "properties": {"magmom": -0.0}, "label": "Y", "xyz": [1.2235905665661173, 1.6311114044951645, 7.456226887758121]}, {"species": [{"element": "Y", "occu": 1}], "abc": [-0.0, 0.5, -0.0], "properties": {"magmom": -0.0}, "label": "Y", "xyz": [-2.165312685, 3.750432505, -1.53110773]}, {"species": [{"element": "Y", "occu": 1}], "abc": [0.5, -0.0, -0.0], "properties": {"magmom": -0.0}, "label": "Y", "xyz": [4.330625885, 5e-09, -1.53110773]}, {"species": [{"element": "Y", "occu": 1}], "abc": [-0.0, -0.0, 0.5], "properties": {"magmom": -0.0}, "label": "Y", "xyz": [0.0, 0.0, 4.593322685]}, {"species": [{"element": "Y", "occu": 1}], "abc": [0.5, 0.5, 0.5], "properties": {"magmom": -0.0}, "label": "Y", "xyz": [2.1653132, 3.75043251, 1.5311072250000004]}, {"species": [{"element": "O", "occu": 1}], "abc": [0.03166182, 0.4891502, 0.7609320900000001], "properties": {"magmom": 0.0}, "label": "O", "xyz": [-1.8440952713441523, 3.66904962013112, 5.395574642085095]}, {"species": [{"element": "O", "occu": 1}], "abc": [0.22822011, 0.27072973, 0.73906791], "properties": {"magmom": 0.0}, "label": "O", "xyz": [0.8042427945358446, 2.0307071612059486, 5.261662879704551]}, {"species": [{"element": "O", "occu": 1}], "abc": [0.27177989, 0.0108498, 0.04251062], "properties": {"magmom": 0.0}, "label": "O", "xyz": [2.3069676341734797, 0.0813828879032969, -0.4749430157741781]}, {"species": [{"element": "O", "occu": 1}], "abc": [0.22927027, 0.45748938, 0.46833818], "properties": {"magmom": 0.0}, "label": "O", "xyz": [0.004552416312307184, 3.431566085181297, 2.199450755357038]}, {"species": [{"element": "O", "occu": 1}], "abc": [0.45748938, 0.46833818, 0.22927027], "properties": {"magmom": 0.0}, "label": "O", "xyz": [1.934233498233576, 3.5129414717839755, -0.7288588031519274]}, {"species": [{"element": "O", "occu": 1}], "abc": [0.7609320900000001, 0.03166182, 0.4891502], "properties": {"magmom": 0.0}, "label": "O", "xyz": [6.453508930409926, 0.2374910454002391, 2.066556095360725]}, {"species": [{"element": "O", "occu": 1}], "abc": [0.27072973, 0.73906791, 0.22822011], "properties": {"magmom": 0.0}, "label": "O", "xyz": [-0.8557678880447548, 5.543648628840127, -0.9956407278071238]}, {"species": [{"element": "O", "occu": 1}], "abc": [0.04251062, 0.27177989, 0.0108498], "properties": {"magmom": 0.0}, "label": "O", "xyz": [-0.808781703971012, 2.0385842677477553, -0.8627519937178586]}, {"species": [{"element": "O", "occu": 1}], "abc": [0.4891502, 0.7609320900000001, 0.03166182], "properties": {"magmom": 0.0}, "label": "O", "xyz": [0.9413412217447301, 5.707648893758674, -3.53715540260143]}, {"species": [{"element": "O", "occu": 1}], "abc": [0.73906791, 0.22822011, 0.27072973], "properties": {"magmom": 0.0}, "label": "O", "xyz": [5.41291744532751, 1.7118482450680303, -0.4749463084909391]}, {"species": [{"element": "O", "occu": 1}], "abc": [0.0108498, 0.04251062, 0.27177989], "properties": {"magmom": 0.0}, "label": "O", "xyz": [-0.09012472001228339, 0.3188664222199042, 2.3333443650515164]}, {"species": [{"element": "O", "occu": 1}], "abc": [0.46833818, 0.22927027, 0.45748938], "properties": {"magmom": 0.0}, "label": "O", "xyz": [3.0635112426348288, 1.7197253507596346, 2.0665653139845337]}, {"species": [{"element": "O", "occu": 1}], "abc": [0.96833818, 0.5108498, 0.23906791], "properties": {"magmom": 0.0}, "label": "O", "xyz": [6.1747216713441535, 3.83181539986888, -2.333360192085095]}, {"species": [{"element": "O", "occu": 1}], "abc": [0.77177989, 0.72926927, 0.26093209], "properties": {"magmom": 0.0}, "label": "O", "xyz": [3.526387936089525, 5.470150357929041, -2.19944536748909]}, {"species": [{"element": "O", "occu": 1}], "abc": [0.72822011, 0.9891502, 0.9574893800000001], "properties": {"magmom": 0.0}, "label": "O", "xyz": [2.0236587658265206, 7.419482132096704, 3.5371574657741798]}, {"species": [{"element": "O", "occu": 1}], "abc": [0.77073073, 0.54251062, 0.5316618200000001], "properties": {"magmom": 0.0}, "label": "O", "xyz": [4.326082644939463, 4.069298934818715, 0.8627606324275039]}, {"species": [{"element": "O", "occu": 1}], "abc": [0.5316618200000001, 0.77073073, 0.54251062], "properties": {"magmom": 0.0}, "label": "O", "xyz": [1.2671108267398021, 5.781147170105376, 0.9956460738000068]}, {"species": [{"element": "O", "occu": 1}], "abc": [0.9891502, 0.9574893800000001, 0.72822011], "properties": {"magmom": 0.0}, "label": "O", "xyz": [4.420751120012282, 7.181998597780096, 0.7288700849484853]}, {"species": [{"element": "O", "occu": 1}], "abc": [0.26093209, 0.77177989, 0.72926927], "properties": {"magmom": 0.0}, "label": "O", "xyz": [-1.0822910453275099, 5.78901677493197, 3.5371515718455693]}, {"species": [{"element": "O", "occu": 1}], "abc": [0.5108498, 0.23906791, 0.96833818], "properties": {"magmom": 0.0}, "label": "O", "xyz": [3.3892851782552693, 1.793216126241327, 6.5993698526014315]}, {"species": [{"element": "O", "occu": 1}], "abc": [0.9574893800000001, 0.72822011, 0.9891502], "properties": {"magmom": 0.0}, "label": "O", "xyz": [5.139408103971013, 5.462280752252244, 3.92496644371786]}, {"species": [{"element": "O", "occu": 1}], "abc": [0.72926927, 0.26093209, 0.77177989], "properties": {"magmom": 0.0}, "label": "O", "xyz": [5.186385626792984, 1.9572163911598637, 4.057858240022584]}, {"species": [{"element": "O", "occu": 1}], "abc": [0.23906791, 0.96833818, 0.5108498], "properties": {"magmom": 0.0}, "label": "O", "xyz": [-2.122882530409926, 7.263373974599761, 0.9956583546392754]}, {"species": [{"element": "O", "occu": 1}], "abc": [0.54251062, 0.5316618200000001, 0.77073073], "properties": {"magmom": 0.0}, "label": "O", "xyz": [2.396392901766424, 3.987923548216025, 3.7910824397972984]}]}, "task_ids": null, "uncorrected_energy_per_atom": null, "energy_per_atom": -9.526285125749999, "formation_energy_per_atom": -3.953871922749999, "energy_above_hull": 0.0, "is_stable": true, "equilibrium_reaction_energy_per_atom": null, "decomposes_to": null, "xas": null, "grain_boundaries": null, "band_gap": 4.097300000000001, "cbm": null, "vbm": null, "efermi": 1.5409672300000001, "is_gap_direct": null, "is_metal": null, "es_source_calc_id": null, "bandstructure": null, "dos": null, "dos_energy_up": null, "dos_energy_down": null, "is_magnetic": null, "ordering": null, "total_magnetization": 0.0, "total_magnetization_normalized_vol": null, "total_magnetization_normalized_formula_units": null, "num_magnetic_sites": null, "num_unique_magnetic_sites": null, "types_of_magnetic_species": null, "bulk_modulus": null, "shear_modulus": null, "universal_anisotropy": null, "homogeneous_poisson": null, "e_total": null, "e_ionic": null, "e_electronic": null, "n": null, "e_ij_max": null, "weighted_surface_energy_EV_PER_ANG2": null, "weighted_surface_energy": null, "weighted_work_function": null, "surface_anisotropy": null, "shape_factor": null, "has_reconstructed": null, "possible_species": null, "has_props": null, "theoretical": null, "database_IDs": null, "fields_not_requested": ["builder_meta", "nsites", "elements", "nelements", "composition", "composition_reduced", "chemsys", "symmetry", "property_name", "deprecated", "deprecation_reasons", "last_updated", "origins", "warnings", "task_ids", "uncorrected_energy_per_atom", "equilibrium_reaction_energy_per_atom", "decomposes_to", "xas", "grain_boundaries", "cbm", "vbm", "is_gap_direct", "is_metal", "es_source_calc_id", "bandstructure", "dos", "dos_energy_up", "dos_energy_down", "is_magnetic", "ordering", "total_magnetization_normalized_vol", "total_magnetization_normalized_formula_units", "num_magnetic_sites", "num_unique_magnetic_sites", "types_of_magnetic_species", "bulk_modulus", "shear_modulus", "universal_anisotropy", "homogeneous_poisson", "e_total", "e_ionic", "e_electronic", "n", "e_ij_max", "weighted_surface_energy_EV_PER_ANG2", "weighted_surface_energy", "weighted_work_function", "surface_anisotropy", "shape_factor", "has_reconstructed", "possible_species", "has_props", "theoretical", "database_IDs"]}