{"builder_meta": null, "nsites": null, "elements": null, "nelements": null, "composition": null, "composition_reduced": null, "formula_pretty": "Y2Pt", "formula_anonymous": "AB2", "chemsys": null, "volume": 302.30882463799077, "density": 8.193050644269396, "density_atomic": 25.192402053165896, "symmetry": null, "property_name": null, "material_id": "mp-1102657", "deprecated": null, "deprecation_reasons": null, "last_updated": null, "origins": null, "warnings": null, "structure": {"@module": "pymatgen.core.structure", "@class": "Structure", "charge": 0, "lattice": {"matrix": [[-6.000000000000001e-08, -4.78605662, 1.1e-07], [-7.16519034, -1.2e-07, -4.3680000000000015e-05], [-5.628e-05, 2.2e-07, -8.81546572]], "pbc": [true, true, true], "a": 4.786056620000002, "b": 7.16519034013314, "c": 8.815465720179656, "alpha": 89.99928492724443, "beta": 90.00000274673049, "gamma": 89.9999983221554, "volume": 302.30882463799077}, "properties": {}, "sites": [{"species": [{"element": "Y", "occu": 1}], "abc": [0.7499999900000001, 0.64264474, 0.58194763], "properties": {"magmom": 0.0}, "label": "Y", "xyz": [-4.604704680112428, -3.589542366228325, -5.130167371322489]}, {"species": [{"element": "Y", "occu": 1}], "abc": [0.74999997, 0.14267411, 0.91802998], "properties": {"magmom": 0.0}, "label": "Y", "xyz": [-1.0223388664673698, -3.589542136572599, -8.092867968127413]}, {"species": [{"element": "Y", "occu": 1}], "abc": [0.25000007, 0.35740248, 0.4180637], "properties": {"magmom": 0.0}, "label": "Y", "xyz": [-2.5608803408130836, -1.196514440938247, -3.6854417999666826]}, {"species": [{"element": "Y", "occu": 1}], "abc": [0.24999995, 0.85741858, 0.08195526], "properties": {"magmom": 0.0}, "label": "Y", "xyz": [-6.143571954194547, -1.1965140005572414, -0.7225112096472672]}, {"species": [{"element": "Y", "occu": 1}], "abc": [0.75000007, 0.50884132, 0.16605521], "properties": {"magmom": -0.0}, "label": "Y", "xyz": [-3.645954301244072, -3.589542824552776, -1.4638761550712514]}, {"species": [{"element": "Y", "occu": 1}], "abc": [0.74999993, 0.00888659, 0.33397166], "properties": {"magmom": -0.0}, "label": "Y", "xyz": [-0.06369294974856118, -3.589542057568662, -2.9441160258477543]}, {"species": [{"element": "Y", "occu": 1}], "abc": [0.25000001, 0.49107435, 0.83403844], "properties": {"magmom": 0.0}, "label": "Y", "xyz": [-3.518688143525183, -1.1965140783010313, -7.352458699609885]}, {"species": [{"element": "Y", "occu": 1}], "abc": [0.25000002, 0.99111094, 0.6659368800000001], "properties": {"magmom": 0.0}, "label": "Y", "xyz": [-7.101536027083927, -1.1965142231483314, -5.8705870015496115]}, {"species": [{"element": "Pt", "occu": 1}], "abc": [0.74999996, 0.2407027, 0.59235713], "properties": {"magmom": -0.0}, "label": "Pt", "xyz": [-1.7247140437111919, -3.589542172123491, -5.221914404906524]}, {"species": [{"element": "Pt", "occu": 1}], "abc": [0.75, 0.7407155400000001, 0.907625799999999], "properties": {"magmom": -0.0}, "label": "Pt", "xyz": [-5.307418958075908, -3.589542354208189, -8.001176398442356]}, {"species": [{"element": "Pt", "occu": 1}], "abc": [0.25000005000000003, 0.75926644, 0.40769572], "properties": {"magmom": 0.0}, "label": "Pt", "xyz": [-5.440311521489314, -1.1965143957217457, -3.594060781108812]}, {"species": [{"element": "Pt", "occu": 1}], "abc": [0.24999997000000002, 0.25926221, 0.09232259], "properties": {"magmom": 0.0}, "label": "Pt", "xyz": [-1.8576682935344146, -1.1965140222187969, -0.813877924399951]}]}, "task_ids": null, "uncorrected_energy_per_atom": null, "energy_per_atom": -31.714379069166668, "formation_energy_per_atom": -1.009406129166668, "energy_above_hull": 0.0, "is_stable": true, "equilibrium_reaction_energy_per_atom": null, "decomposes_to": null, "xas": null, "grain_boundaries": null, "band_gap": 0.0, "cbm": null, "vbm": null, "efermi": 4.34573949, "is_gap_direct": null, "is_metal": null, "es_source_calc_id": null, "bandstructure": null, "dos": null, "dos_energy_up": null, "dos_energy_down": null, "is_magnetic": null, "ordering": null, "total_magnetization": 7.4e-06, "total_magnetization_normalized_vol": null, "total_magnetization_normalized_formula_units": null, "num_magnetic_sites": null, "num_unique_magnetic_sites": null, "types_of_magnetic_species": null, "bulk_modulus": null, "shear_modulus": null, "universal_anisotropy": null, "homogeneous_poisson": null, "e_total": null, "e_ionic": null, "e_electronic": null, "n": null, "e_ij_max": null, "weighted_surface_energy_EV_PER_ANG2": null, "weighted_surface_energy": null, "weighted_work_function": null, "surface_anisotropy": null, "shape_factor": null, "has_reconstructed": null, "possible_species": null, "has_props": null, "theoretical": null, "database_IDs": null, "fields_not_requested": ["builder_meta", "nsites", "elements", "nelements", "composition", "composition_reduced", "chemsys", "symmetry", "property_name", "deprecated", "deprecation_reasons", "last_updated", "origins", "warnings", "task_ids", "uncorrected_energy_per_atom", "equilibrium_reaction_energy_per_atom", "decomposes_to", "xas", "grain_boundaries", "cbm", "vbm", "is_gap_direct", "is_metal", "es_source_calc_id", "bandstructure", "dos", "dos_energy_up", "dos_energy_down", "is_magnetic", "ordering", "total_magnetization_normalized_vol", "total_magnetization_normalized_formula_units", "num_magnetic_sites", "num_unique_magnetic_sites", "types_of_magnetic_species", "bulk_modulus", "shear_modulus", "universal_anisotropy", "homogeneous_poisson", "e_total", "e_ionic", "e_electronic", "n", "e_ij_max", "weighted_surface_energy_EV_PER_ANG2", "weighted_surface_energy", "weighted_work_function", "surface_anisotropy", "shape_factor", "has_reconstructed", "possible_species", "has_props", "theoretical", "database_IDs"]}