{
  "builder_meta": null,
  "nsites": null,
  "elements": null,
  "nelements": null,
  "composition": null,
  "composition_reduced": null,
  "formula_pretty": "Y2S3",
  "formula_anonymous": "A2B3",
  "chemsys": null,
  "volume": 717.4624790592753,
  "density": 3.8050672458027313,
  "density_atomic": 23.91541596864251,
  "symmetry": null,
  "property_name": null,
  "material_id": "mp-541289",
  "deprecated": null,
  "deprecation_reasons": null,
  "last_updated": null,
  "origins": null,
  "warnings": null,
  "structure": {
    "@module": "pymatgen.core.structure",
    "@class": "Structure",
    "charge": 0,
    "lattice": {
      "matrix": [
        [4.03355152, 0.0, 0.0],
        [0.0, 10.08907929, -1.53498417],
        [0.0, -0.00406796, 17.63093303]
      ],
      "pbc": [true, true, true],
      "a": 4.03355152,
      "b": 10.205179926001183,
      "c": 17.630933499297296,
      "alpha": 98.66403811367353,
      "beta": 90.0,
      "gamma": 90.0,
      "volume": 717.4624790592753
    },
    "properties": {},
    "sites": [
      {
        "species": [{ "element": "Y", "occu": 1 }],
        "abc": [0.25, 0.18882634, 0.02049649],
        "properties": { "magmom": -0.0 },
        "label": "Y",
        "xyz": [1.00838788, 1.9050005373990384, 0.07152679976102694]
      },
      {
        "species": [{ "element": "Y", "occu": 1 }],
        "abc": [0.75, 0.81117366, 0.97950351],
        "properties": { "magmom": -0.0 },
        "label": "Y",
        "xyz": [3.0251636399999997, 8.180010792600964, 16.024422060238976]
      },
      {
        "species": [{ "element": "Y", "occu": 1 }],
        "abc": [0.25, 0.12430139, 0.43019717],
        "properties": { "magmom": -0.0 },
        "label": "Y",
        "xyz": [1.00838788, 1.25233655468754, 7.3939768280065294]
      },
      {
        "species": [{ "element": "Y", "occu": 1 }],
        "abc": [0.75, 0.87569861, 0.56980283],
        "properties": { "magmom": -0.0 },
        "label": "Y",
        "xyz": [3.0251636399999997, 8.83267477531246, 8.701972031993472]
      },
      {
        "species": [{ "element": "Y", "occu": 1 }],
        "abc": [0.25, 0.82972478, 0.78131047],
        "properties": { "magmom": 0.0 },
        "label": "Y",
        "xyz": [1.00838788, 8.367980754558266, 12.501618169451092]
      },
      {
        "species": [{ "element": "Y", "occu": 1 }],
        "abc": [0.75, 0.17027522, 0.21868953],
        "properties": { "magmom": 0.0 },
        "label": "Y",
        "xyz": [3.0251636399999997, 1.7170305754417352, 3.5943306905489085]
      },
      {
        "species": [{ "element": "Y", "occu": 1 }],
        "abc": [0.25, 0.18734354, 0.72054924],
        "properties": { "magmom": 0.0 },
        "label": "Y",
        "xyz": [1.00838788, 1.8871926640429364, 12.416386027005636]
      },
      {
        "species": [{ "element": "Y", "occu": 1 }],
        "abc": [0.75, 0.81265646, 0.27945076],
        "properties": { "magmom": 0.0 },
        "label": "Y",
        "xyz": [3.0251636399999997, 8.197818665957064, 3.679562832994365]
      },
      {
        "species": [{ "element": "Y", "occu": 1 }],
        "abc": [0.25, 0.48661205, 0.39880834],
        "properties": { "magmom": 0.0 },
        "label": "Y",
        "xyz": [1.00838788, 4.907845219544659, 6.284421340664222]
      },
      {
        "species": [{ "element": "Y", "occu": 1 }],
        "abc": [0.75, 0.51338795, 0.60119166],
        "properties": { "magmom": 0.0 },
        "label": "Y",
        "xyz": [3.0251636399999997, 5.177166110455342, 9.81152751933578]
      },
      {
        "species": [{ "element": "Y", "occu": 1 }],
        "abc": [0.25, 0.54890949, 0.11467272],
        "properties": { "magmom": 0.0 },
        "label": "Y",
        "xyz": [1.00838788, 5.537524883605411, 1.1792196687751684]
      },
      {
        "species": [{ "element": "Y", "occu": 1 }],
        "abc": [0.75, 0.45109051, 0.88532728],
        "properties": { "magmom": 0.0 },
        "label": "Y",
        "xyz": [3.0251636399999997, 4.54748644639459, 14.916729191224833]
      },
      {
        "species": [{ "element": "S", "occu": 1 }],
        "abc": [0.25, 0.05162712, 0.57525459],
        "properties": { "magmom": 0.0 },
        "label": "S",
        "xyz": [1.00838788, 0.5185299945324084, 10.063028339547419]
      },
      {
        "species": [{ "element": "S", "occu": 1 }],
        "abc": [0.75, 0.94837288, 0.42474541],
        "properties": { "magmom": 0.0 },
        "label": "S",
        "xyz": [3.0251636399999997, 9.566481335467593, 6.032920520452583]
      },
      {
        "species": [{ "element": "S", "occu": 1 }],
        "abc": [0.25, 0.26927806, 0.87300842],
        "properties": { "magmom": -0.0 },
        "label": "S",
        "xyz": [1.00838788, 2.7132163350651544, 14.978615428217804]
      },
      {
        "species": [{ "element": "S", "occu": 1 }],
        "abc": [0.75, 0.73072194, 0.12699158],
        "properties": { "magmom": -0.0 },
        "label": "S",
        "xyz": [3.0251636399999997, 7.371794994934847, 1.1173334317821975]
      },
      {
        "species": [{ "element": "S", "occu": 1 }],
        "abc": [0.25, 0.61563511, 0.9669900100000001],
        "properties": { "magmom": 0.0 },
        "label": "S",
        "xyz": [1.00838788, 6.207257761816793, 16.103945958642825]
      },
      {
        "species": [{ "element": "S", "occu": 1 }],
        "abc": [0.75, 0.38436489, 0.03300999],
        "properties": { "magmom": 0.0 },
        "label": "S",
        "xyz": [3.0251636399999997, 3.8777535681832083, -0.007997098642821499]
      },
      {
        "species": [{ "element": "S", "occu": 1 }],
        "abc": [0.25, 0.63843466, 0.28222952],
        "properties": { "magmom": -0.0 },
        "label": "S",
        "xyz": [1.00838788, 6.4400698078260135, 3.995982669529714]
      },
      {
        "species": [{ "element": "S", "occu": 1 }],
        "abc": [0.75, 0.36156534, 0.71777048],
        "properties": { "magmom": -0.0 },
        "label": "S",
        "xyz": [3.0251636399999997, 3.6449415221739883, 12.099966190470289]
      },
      {
        "species": [{ "element": "S", "occu": 1 }],
        "abc": [0.25, 0.00718769, 0.26804989],
        "properties": { "magmom": 0.0 },
        "label": "S",
        "xyz": [1.00838788, 0.0714267580914157, 4.71493666892]
      },
      {
        "species": [{ "element": "S", "occu": 1 }],
        "abc": [0.75, 0.99281231, 0.73195011],
        "properties": { "magmom": 0.0 },
        "label": "S",
        "xyz": [3.0251636399999997, 10.013584571908586, 11.38101219108]
      },
      {
        "species": [{ "element": "S", "occu": 1 }],
        "abc": [0.25, 0.71056416, 0.63096428],
        "properties": { "magmom": -0.0 },
        "label": "S",
        "xyz": [1.00838788, 7.166371413419778, 10.033784227632824]
      },
      {
        "species": [{ "element": "S", "occu": 1 }],
        "abc": [0.75, 0.28943584, 0.36903572],
        "properties": { "magmom": -0.0 },
        "label": "S",
        "xyz": [3.0251636399999997, 2.9186399165802226, 6.062164632367179]
      },
      {
        "species": [{ "element": "S", "occu": 1 }],
        "abc": [0.25, 0.95077477, 0.9242798600000001],
        "properties": { "magmom": 0.0 },
        "label": "S",
        "xyz": [1.00838788, 9.588682107962228, 14.836492091452389]
      },
      {
        "species": [{ "element": "S", "occu": 1 }],
        "abc": [0.75, 0.04922523, 0.07572014],
        "properties": { "magmom": 0.0 },
        "label": "S",
        "xyz": [3.0251636399999997, 0.49632922203777236, 1.2594567685476155]
      },
      {
        "species": [{ "element": "S", "occu": 1 }],
        "abc": [0.25, 0.31888013, 0.18211985],
        "properties": { "magmom": 0.0 },
        "label": "S",
        "xyz": [1.00838788, 3.216466059310502, 2.7214669271061034]
      },
      {
        "species": [{ "element": "S", "occu": 1 }],
        "abc": [0.75, 0.68111987, 0.81788015],
        "properties": { "magmom": 0.0 },
        "label": "S",
        "xyz": [3.0251636399999997, 6.8685452706894985, 13.374481932893897]
      },
      {
        "species": [{ "element": "S", "occu": 1 }],
        "abc": [0.25, 0.36794323, 0.53144994],
        "properties": { "magmom": 0.0 },
        "label": "S",
        "xyz": [1.00838788, 3.7100465045907844, 8.80517126742885]
      },
      {
        "species": [{ "element": "S", "occu": 1 }],
        "abc": [0.75, 0.63205677, 0.46855006],
        "properties": { "magmom": 0.0 },
        "label": "S",
        "xyz": [3.0251636399999997, 6.374964825409217, 7.2907775925711515]
      }
    ]
  },
  "task_ids": null,
  "uncorrected_energy_per_atom": null,
  "energy_per_atom": -15.328510091,
  "formation_energy_per_atom": -2.382070257687502,
  "energy_above_hull": 0.0,
  "is_stable": true,
  "equilibrium_reaction_energy_per_atom": null,
  "decomposes_to": null,
  "xas": null,
  "grain_boundaries": null,
  "band_gap": 1.5992000000000002,
  "cbm": null,
  "vbm": null,
  "efermi": 3.29730273,
  "is_gap_direct": null,
  "is_metal": null,
  "es_source_calc_id": null,
  "bandstructure": null,
  "dos": null,
  "dos_energy_up": null,
  "dos_energy_down": null,
  "is_magnetic": null,
  "ordering": null,
  "total_magnetization": 0.0,
  "total_magnetization_normalized_vol": null,
  "total_magnetization_normalized_formula_units": null,
  "num_magnetic_sites": null,
  "num_unique_magnetic_sites": null,
  "types_of_magnetic_species": null,
  "bulk_modulus": null,
  "shear_modulus": null,
  "universal_anisotropy": null,
  "homogeneous_poisson": null,
  "e_total": null,
  "e_ionic": null,
  "e_electronic": null,
  "n": null,
  "e_ij_max": null,
  "weighted_surface_energy_EV_PER_ANG2": null,
  "weighted_surface_energy": null,
  "weighted_work_function": null,
  "surface_anisotropy": null,
  "shape_factor": null,
  "has_reconstructed": null,
  "possible_species": null,
  "has_props": null,
  "theoretical": null,
  "database_IDs": null,
  "fields_not_requested": [
    "builder_meta",
    "nsites",
    "elements",
    "nelements",
    "composition",
    "composition_reduced",
    "chemsys",
    "symmetry",
    "property_name",
    "deprecated",
    "deprecation_reasons",
    "last_updated",
    "origins",
    "warnings",
    "task_ids",
    "uncorrected_energy_per_atom",
    "equilibrium_reaction_energy_per_atom",
    "decomposes_to",
    "xas",
    "grain_boundaries",
    "cbm",
    "vbm",
    "is_gap_direct",
    "is_metal",
    "es_source_calc_id",
    "bandstructure",
    "dos",
    "dos_energy_up",
    "dos_energy_down",
    "is_magnetic",
    "ordering",
    "total_magnetization_normalized_vol",
    "total_magnetization_normalized_formula_units",
    "num_magnetic_sites",
    "num_unique_magnetic_sites",
    "types_of_magnetic_species",
    "bulk_modulus",
    "shear_modulus",
    "universal_anisotropy",
    "homogeneous_poisson",
    "e_total",
    "e_ionic",
    "e_electronic",
    "n",
    "e_ij_max",
    "weighted_surface_energy_EV_PER_ANG2",
    "weighted_surface_energy",
    "weighted_work_function",
    "surface_anisotropy",
    "shape_factor",
    "has_reconstructed",
    "possible_species",
    "has_props",
    "theoretical",
    "database_IDs"
  ]
}
