{"builder_meta": null, "nsites": null, "elements": null, "nelements": null, "composition": null, "composition_reduced": null, "formula_pretty": "Y2Se3", "formula_anonymous": "A2B3", "chemsys": null, "volume": 581.6218463778948, "density": 4.735804012405395, "density_atomic": 29.08109231889474, "symmetry": null, "property_name": null, "material_id": "mp-1105821", "deprecated": null, "deprecation_reasons": null, "last_updated": null, "origins": null, "warnings": null, "structure": {"@module": "pymatgen.core.structure", "@class": "Structure", "charge": 0, "lattice": {"matrix": [[5.76482128, 4.11310527, -0.0], [-5.76482128, 4.11310527, -0.0], [0.0, -4.11310527, 12.2646467]], "pbc": [true, true, true], "a": 7.081722908476623, "b": 7.081722908476623, "c": 12.935965122012453, "alpha": 100.64203049963028, "beta": 100.64203049963028, "gamma": 108.98553273502505, "volume": 581.6218463778948}, "properties": {}, "sites": [{"species": [{"element": "Y", "occu": 1}], "abc": [0.709170299999999, 0.959170299999999, 0.918339599999999], "properties": {"magmom": 0.0}, "label": "Y", "xyz": [-1.44120532, 3.0848330656052663, 11.263110744619308]}, {"species": [{"element": "Y", "occu": 1}], "abc": [0.5408297, 0.7908297, 0.5816604], "properties": {"magmom": 0.0}, "label": "Y", "xyz": [-1.44120532, 3.084824839394731, 7.13385930538068]}, {"species": [{"element": "Y", "occu": 1}], "abc": [0.290829699999999, 0.0408297, 0.0816604], "properties": {"magmom": 0.0}, "label": "Y", "xyz": [1.4412053199999943, 1.028272204394726, 1.00153595538068]}, {"species": [{"element": "Y", "occu": 1}], "abc": [0.4591703, 0.2091703, 0.4183396], "properties": {"magmom": 0.0}, "label": "Y", "xyz": [1.44120532, 1.0282804306052702, 5.13078739461932]}, {"species": [{"element": "Y", "occu": 1}], "abc": [0.372050799999999, 0.6220508, 0.24410161], "properties": {"magmom": 0.0}, "label": "Y", "xyz": [-1.4412053200000057, 3.084828911368943, 2.993820005551187]}, {"species": [{"element": "Y", "occu": 1}], "abc": [0.8779492, 0.127949199999999, 0.25589839000000003], "properties": {"magmom": 0.0}, "label": "Y", "xyz": [4.323615960000006, 3.084828993631049, 3.1385033444488135]}, {"species": [{"element": "Y", "occu": 1}], "abc": [0.6279492, 0.3779492, 0.75589839], "properties": {"magmom": 0.0}, "label": "Y", "xyz": [1.44120532, 1.0282763586310524, 9.270826694448813]}, {"species": [{"element": "Y", "occu": 1}], "abc": [0.1220508, 0.8720508, 0.74410161], "properties": {"magmom": 0.0}, "label": "Y", "xyz": [-4.32361596, 1.0282762763689477, 9.126143355551187]}, {"species": [{"element": "Se", "occu": 1}], "abc": [0.86603153, 0.11603153000000001, 0.75], "properties": {"magmom": -0.0}, "label": "Se", "xyz": [4.32361596, 0.9544997950583265, 9.198485025]}, {"species": [{"element": "Se", "occu": 1}], "abc": [0.38396847, 0.63396847, 0.75], "properties": {"magmom": -0.0}, "label": "Se", "xyz": [-1.44120532, 1.1020528399416745, 9.198485025]}, {"species": [{"element": "Se", "occu": 1}], "abc": [0.13396847, 0.88396847, 0.25], "properties": {"magmom": -0.0}, "label": "Se", "xyz": [-4.32361596, 3.1586054749416737, 3.066161675]}, {"species": [{"element": "Se", "occu": 1}], "abc": [0.61603153, 0.36603153, 0.25], "properties": {"magmom": -0.0}, "label": "Se", "xyz": [1.44120532, 3.0110524300583257, 3.066161675]}, {"species": [{"element": "Se", "occu": 1}], "abc": [0.54900578, 0.80626401, 0.08848698], "properties": {"magmom": 0.0}, "label": "Se", "xyz": [-1.483047718759134, 5.2104110517564095, 1.085261547249966]}, {"species": [{"element": "Se", "occu": 1}], "abc": [0.69373599, 0.95099422, 0.41151302], "properties": {"magmom": 0.0}, "label": "Se", "xyz": [-1.4830477187591344, 5.072352123243591, 5.047061802750034]}, {"species": [{"element": "Se", "occu": 1}], "abc": [0.21777703, 0.4605188, 0.41151302], "properties": {"magmom": 0.0}, "label": "Se", "xyz": [-1.3993629212408656, 1.097305781756409, 5.047061802750034]}, {"species": [{"element": "Se", "occu": 1}], "abc": [0.0394812, 0.28222297, 0.08848698], "properties": {"magmom": 0.0}, "label": "Se", "xyz": [-1.3993629212408656, 0.9592468532435915, 1.085261547249966]}, {"species": [{"element": "Se", "occu": 1}], "abc": [0.45099422, 0.19373599, 0.91151302], "properties": {"magmom": 0.0}, "label": "Se", "xyz": [1.4830477187591342, -1.097305781756409, 11.179385152750035]}, {"species": [{"element": "Se", "occu": 1}], "abc": [0.30626401000000003, 0.04900578, 0.58848698], "properties": {"magmom": 0.0}, "label": "Se", "xyz": [1.4830477187591344, -0.9592468532435912, 7.217584897249966]}, {"species": [{"element": "Se", "occu": 1}], "abc": [0.78222297, 0.5394812, 0.58848698], "properties": {"magmom": 0.0}, "label": "Se", "xyz": [1.399362921240865, 3.0157994882435917, 7.217584897249966]}, {"species": [{"element": "Se", "occu": 1}], "abc": [0.9605188, 0.71777703, 0.91151302], "properties": {"magmom": 0.0}, "label": "Se", "xyz": [1.399362921240865, 3.1538584167564085, 11.179385152750035]}]}, "task_ids": null, "uncorrected_energy_per_atom": null, "energy_per_atom": -18.9115222435, "formation_energy_per_atom": -2.1991457209375, "energy_above_hull": 0.0, "is_stable": true, "equilibrium_reaction_energy_per_atom": null, "decomposes_to": null, "xas": null, "grain_boundaries": null, "band_gap": 1.315799999999999, "cbm": null, "vbm": null, "efermi": 1.86692824, "is_gap_direct": null, "is_metal": null, "es_source_calc_id": null, "bandstructure": null, "dos": null, "dos_energy_up": null, "dos_energy_down": null, "is_magnetic": null, "ordering": null, "total_magnetization": 0.0, "total_magnetization_normalized_vol": null, "total_magnetization_normalized_formula_units": null, "num_magnetic_sites": null, "num_unique_magnetic_sites": null, "types_of_magnetic_species": null, "bulk_modulus": null, "shear_modulus": null, "universal_anisotropy": null, "homogeneous_poisson": null, "e_total": null, "e_ionic": null, "e_electronic": null, "n": null, "e_ij_max": null, "weighted_surface_energy_EV_PER_ANG2": null, "weighted_surface_energy": null, "weighted_work_function": null, "surface_anisotropy": null, "shape_factor": null, "has_reconstructed": null, "possible_species": null, "has_props": null, "theoretical": null, "database_IDs": null, "fields_not_requested": ["builder_meta", "nsites", "elements", "nelements", "composition", "composition_reduced", "chemsys", "symmetry", "property_name", "deprecated", "deprecation_reasons", "last_updated", "origins", "warnings", "task_ids", "uncorrected_energy_per_atom", "equilibrium_reaction_energy_per_atom", "decomposes_to", "xas", "grain_boundaries", "cbm", "vbm", "is_gap_direct", "is_metal", "es_source_calc_id", "bandstructure", "dos", "dos_energy_up", "dos_energy_down", "is_magnetic", "ordering", "total_magnetization_normalized_vol", "total_magnetization_normalized_formula_units", "num_magnetic_sites", "num_unique_magnetic_sites", "types_of_magnetic_species", "bulk_modulus", "shear_modulus", "universal_anisotropy", "homogeneous_poisson", "e_total", "e_ionic", "e_electronic", "n", "e_ij_max", "weighted_surface_energy_EV_PER_ANG2", "weighted_surface_energy", "weighted_work_function", "surface_anisotropy", "shape_factor", "has_reconstructed", "possible_species", "has_props", "theoretical", "database_IDs"]}