{"builder_meta": null, "nsites": null, "elements": null, "nelements": null, "composition": null, "composition_reduced": null, "formula_pretty": "Y2Te3", "formula_anonymous": "A2B3", "chemsys": null, "volume": 708.2528418770861, "density": 5.257544052069446, "density_atomic": 35.4126420938543, "symmetry": null, "property_name": null, "material_id": "mp-1189791", "deprecated": null, "deprecation_reasons": null, "last_updated": null, "origins": null, "warnings": null, "structure": {"@module": "pymatgen.core.structure", "@class": "Structure", "charge": 0, "lattice": {"matrix": [[6.17341378, 4.37884163, 0.0], [-6.17341378, 4.37884163, 0.0], [-0.0, -4.37884163, 13.10007267]], "pbc": [true, true, true], "a": 7.56870475839261, "b": 7.56870475839261, "c": 13.81253626166831, "alpha": 100.56845760407793, "beta": 100.56845760407793, "gamma": 109.30335969920185, "volume": 708.2528418770861}, "properties": {}, "sites": [{"species": [{"element": "Y", "occu": 1}], "abc": [0.70811178, 0.95811178, 0.9162225700000001], "properties": {"magmom": -0.0}, "label": "Y", "xyz": [-1.5433534450000002, 3.2841355575532134, 12.002582248894162]}, {"species": [{"element": "Y", "occu": 1}], "abc": [0.54188822, 0.79188822, 0.58377743], "properties": {"magmom": -0.0}, "label": "Y", "xyz": [-1.5433534449999997, 3.284126887446786, 7.647526756105838]}, {"species": [{"element": "Y", "occu": 1}], "abc": [0.29188822000000003, 0.041888220000000004, 0.08377743], "properties": {"magmom": -0.0}, "label": "Y", "xyz": [1.5433534450000002, 1.0947060724467863, 1.097490421105838]}, {"species": [{"element": "Y", "occu": 1}], "abc": [0.45811178, 0.20811178, 0.41622257], "properties": {"magmom": -0.0}, "label": "Y", "xyz": [1.5433534450000002, 1.0947147425532138, 5.452545913894162]}, {"species": [{"element": "Y", "occu": 1}], "abc": [0.37409544, 0.6240954400000001, 0.24819088], "properties": {"magmom": 0.0}, "label": "Y", "xyz": [-1.5433534450000002, 3.284131222500001, 3.2513185640312496]}, {"species": [{"element": "Y", "occu": 1}], "abc": [0.87590456, 0.12590456, 0.25180912], "properties": {"magmom": 0.0}, "label": "Y", "xyz": [4.6300603350000005, 3.2841312225, 3.29871777096875]}, {"species": [{"element": "Y", "occu": 1}], "abc": [0.62590456, 0.37590456, 0.75180912], "properties": {"magmom": 0.0}, "label": "Y", "xyz": [1.5433534450000002, 1.0947104075000005, 9.84875410596875]}, {"species": [{"element": "Y", "occu": 1}], "abc": [0.12409544, 0.8740954400000001, 0.74819088], "properties": {"magmom": 0.0}, "label": "Y", "xyz": [-4.630060335, 1.0947104075000005, 9.80135489903125]}, {"species": [{"element": "Te", "occu": 1}], "abc": [0.87440804, 0.12440804, 0.75], "properties": {"magmom": -0.0}, "label": "Te", "xyz": [4.6300603350000005, 1.0895262093174107, 9.825054502499999]}, {"species": [{"element": "Te", "occu": 1}], "abc": [0.37559196, 0.6255919600000001, 0.75], "properties": {"magmom": -0.0}, "label": "Te", "xyz": [-1.5433534450000002, 1.0998946056825902, 9.825054502499999]}, {"species": [{"element": "Te", "occu": 1}], "abc": [0.12559196, 0.8755919600000001, 0.25], "properties": {"magmom": -0.0}, "label": "Te", "xyz": [-4.630060335, 3.2893154206825903, 3.2750181675]}, {"species": [{"element": "Te", "occu": 1}], "abc": [0.62440804, 0.37440804, 0.25], "properties": {"magmom": -0.0}, "label": "Te", "xyz": [1.5433534450000006, 3.278947024317411, 3.2750181675]}, {"species": [{"element": "Te", "occu": 1}], "abc": [0.54437286, 0.79596415, 0.084913099999999], "properties": {"magmom": 0.0}, "label": "Te", "xyz": [-1.5531771366139764, 5.497302480405378, 1.1123677806349639]}, {"species": [{"element": "Te", "occu": 1}], "abc": [0.70403585, 0.95562714, 0.4150869], "properties": {"magmom": 0.0}, "label": "Te", "xyz": [-1.553177136613976, 5.449801594594627, 5.437668554365023]}, {"species": [{"element": "Te", "occu": 1}], "abc": [0.21105105000000002, 0.45946076, 0.4150869], "properties": {"magmom": 0.0}, "label": "Te", "xyz": [-1.5335359267998037, 1.1184652292470032, 5.437668554365023]}, {"species": [{"element": "Te", "occu": 1}], "abc": [0.040539240000000004, 0.28894895, 0.084913099999999], "properties": {"magmom": 0.0}, "label": "Te", "xyz": [-1.5335359267998037, 1.070955585753001, 1.1123677806349639]}, {"species": [{"element": "Te", "occu": 1}], "abc": [0.45562714, 0.20403585, 0.915086899999999], "properties": {"magmom": 0.0}, "label": "Te", "xyz": [1.553177136613976, -1.118460850405369, 11.987704889365009]}, {"species": [{"element": "Te", "occu": 1}], "abc": [0.29596415, 0.04437286, 0.5849131], "properties": {"magmom": 0.0}, "label": "Te", "xyz": [1.553177136613976, -1.0709599645946268, 7.662404115634976]}, {"species": [{"element": "Te", "occu": 1}], "abc": [0.78894895, 0.54053924, 0.5849131], "properties": {"magmom": 0.0}, "label": "Te", "xyz": [1.5335359267998037, 3.260376400752996, 7.662404115634976]}, {"species": [{"element": "Te", "occu": 1}], "abc": [0.95946076, 0.71105105, 0.915086899999999], "properties": {"magmom": 0.0}, "label": "Te", "xyz": [1.5335359267998045, 3.3078860442470086, 11.987704889365009]}]}, "task_ids": null, "uncorrected_energy_per_atom": null, "energy_per_atom": -6.158521497500001, "formation_energy_per_atom": -1.6689013615000001, "energy_above_hull": 0.0, "is_stable": true, "equilibrium_reaction_energy_per_atom": null, "decomposes_to": null, "xas": null, "grain_boundaries": null, "band_gap": 0.559299999999999, "cbm": null, "vbm": null, "efermi": 3.76758781, "is_gap_direct": null, "is_metal": null, "es_source_calc_id": null, "bandstructure": null, "dos": null, "dos_energy_up": null, "dos_energy_down": null, "is_magnetic": null, "ordering": null, "total_magnetization": 0.0, "total_magnetization_normalized_vol": null, "total_magnetization_normalized_formula_units": null, "num_magnetic_sites": null, "num_unique_magnetic_sites": null, "types_of_magnetic_species": null, "bulk_modulus": null, "shear_modulus": null, "universal_anisotropy": null, "homogeneous_poisson": null, "e_total": null, "e_ionic": null, "e_electronic": null, "n": null, "e_ij_max": null, "weighted_surface_energy_EV_PER_ANG2": null, "weighted_surface_energy": null, "weighted_work_function": null, "surface_anisotropy": null, "shape_factor": null, "has_reconstructed": null, "possible_species": null, "has_props": null, "theoretical": null, "database_IDs": null, "fields_not_requested": ["builder_meta", "nsites", "elements", "nelements", "composition", "composition_reduced", "chemsys", "symmetry", "property_name", "deprecated", "deprecation_reasons", "last_updated", "origins", "warnings", "task_ids", "uncorrected_energy_per_atom", "equilibrium_reaction_energy_per_atom", "decomposes_to", "xas", "grain_boundaries", "cbm", "vbm", "is_gap_direct", "is_metal", "es_source_calc_id", "bandstructure", "dos", "dos_energy_up", "dos_energy_down", "is_magnetic", "ordering", "total_magnetization_normalized_vol", "total_magnetization_normalized_formula_units", "num_magnetic_sites", "num_unique_magnetic_sites", "types_of_magnetic_species", "bulk_modulus", "shear_modulus", "universal_anisotropy", "homogeneous_poisson", "e_total", "e_ionic", "e_electronic", "n", "e_ij_max", "weighted_surface_energy_EV_PER_ANG2", "weighted_surface_energy", "weighted_work_function", "surface_anisotropy", "shape_factor", "has_reconstructed", "possible_species", "has_props", "theoretical", "database_IDs"]}