{
  "builder_meta": null,
  "nsites": null,
  "elements": null,
  "nelements": null,
  "composition": null,
  "composition_reduced": null,
  "formula_pretty": "Y2Zn3",
  "formula_anonymous": "A2B3",
  "chemsys": null,
  "volume": 531.4162914641239,
  "density": 4.67509847738425,
  "density_atomic": 26.570814573206196,
  "symmetry": null,
  "property_name": null,
  "material_id": "mp-1189228",
  "deprecated": null,
  "deprecation_reasons": null,
  "last_updated": null,
  "origins": null,
  "warnings": null,
  "structure": {
    "@module": "pymatgen.core.structure",
    "@class": "Structure",
    "charge": 0,
    "lattice": {
      "matrix": [
        [-2.802702, -4.846635, 1.9e-5],
        [-2.822429, 4.858041, -0.00024000000000000003],
        [-0.000663, 0.000426999999999, -19.469418]
      ],
      "pbc": [true, true, true],
      "a": 5.598661386830784,
      "b": 5.6184221873513565,
      "c": 19.46941801597115,
      "alpha": 89.9954858330307,
      "beta": 90.00030552126886,
      "gamma": 119.80438388498922,
      "volume": 531.4162914641239
    },
    "properties": {},
    "sites": [
      {
        "species": [{ "element": "Y", "occu": 1 }],
        "abc": [1.2e-5, 0.999559, 0.584395],
        "properties": { "magmom": 0.131 },
        "label": "Y",
        "xyz": [-2.82160539512, 4.856089980964, -11.378070426042]
      },
      {
        "species": [{ "element": "Y", "occu": 1 }],
        "abc": [6.7e-5, 0.000979, 0.415697999999999],
        "properties": { "magmom": 0.131 },
        "label": "Y",
        "xyz": [
          -0.0032265467989999997, 0.004608800639999584, -8.093398357450981
        ]
      },
      {
        "species": [{ "element": "Y", "occu": 1 }],
        "abc": [0.999965, 0.000454, 0.084247999999999],
        "properties": { "magmom": 0.131 },
        "label": "Y",
        "xyz": [-2.8039411446199995, -4.844223843265, -1.6402406372889806]
      },
      {
        "species": [{ "element": "Y", "occu": 1 }],
        "abc": [0.999938999999999, 0.9990559999999991, 0.915558],
        "properties": { "magmom": 0.131 },
        "label": "Y",
        "xyz": [-5.622902677155995, 0.007506597296998869, -17.825602179843003]
      },
      {
        "species": [{ "element": "Y", "occu": 1 }],
        "abc": [0.667237, 0.334873, 0.632452],
        "properties": { "magmom": 0.14400000000000002 },
        "label": "Y",
        "xyz": [-2.815641056567, -1.6067573766980008, -12.313540044953001]
      },
      {
        "species": [{ "element": "Y", "occu": 1 }],
        "abc": [0.332736, 0.665222, 0.367652],
        "properties": { "magmom": 0.14300000000000002 },
        "label": "Y",
        "xyz": [-2.810345470186, 1.619182794146, -7.158123797831999]
      },
      {
        "species": [{ "element": "Y", "occu": 1 }],
        "abc": [0.332657, 0.665, 0.132373],
        "properties": { "magmom": 0.14300000000000002 },
        "label": "Y",
        "xyz": [-2.809341487513, 1.6183867290760001, -2.5773785484309997]
      },
      {
        "species": [{ "element": "Y", "occu": 1 }],
        "abc": [0.667269, 0.334817, 0.867593],
        "properties": { "magmom": 0.14300000000000002 },
        "label": "Y",
        "xyz": [-2.81572858549, -1.6070841141070007, -16.891598448843]
      },
      {
        "species": [{ "element": "Zn", "occu": 1 }],
        "abc": [0.500286999999999, 0.500176, 0.999912999999999],
        "properties": { "magmom": 0.005 },
        "label": "Zn",
        "xyz": [-2.814529565296997, 0.005593993822003127, -19.46783469742098]
      },
      {
        "species": [{ "element": "Zn", "occu": 1 }],
        "abc": [0.999923, 0.500317999999999, 0.9999600000000001],
        "properties": { "magmom": 0.005 },
        "label": "Zn",
        "xyz": [-4.2152611978479975, -2.4152694691470056, -19.468740301063004]
      },
      {
        "species": [{ "element": "Zn", "occu": 1 }],
        "abc": [0.499874, 0.999996, 8.400000000000001e-5],
        "properties": { "magmom": 0.006 },
        "label": "Zn",
        "xyz": [-4.223415625524001, 2.4353147797140005, -0.0018659325460000003]
      },
      {
        "species": [{ "element": "Zn", "occu": 1 }],
        "abc": [0.499835, 0.499762999999999, 0.499897],
        "properties": { "magmom": 0.005 },
        "label": "Zn",
        "xyz": [-2.811765570207997, 0.005564795076994619, -9.732814096201]
      },
      {
        "species": [{ "element": "Zn", "occu": 1 }],
        "abc": [0.9998600000000001, 0.49958899999999906, 0.49995199999999906],
        "properties": { "magmom": 0.005 },
        "label": "Zn",
        "xyz": [-4.212695571576997, -2.418719146447005, -9.733875371955982]
      },
      {
        "species": [{ "element": "Zn", "occu": 1 }],
        "abc": [0.500228999999999, 0.00019099999999900002, 0.500069],
        "properties": { "magmom": 0.006 },
        "label": "Zn",
        "xyz": [-1.4028634484439944, -2.4232859641210007, -9.736042931331]
      },
      {
        "species": [{ "element": "Zn", "occu": 1 }],
        "abc": [0.851273, 0.702121, 0.749985999999999],
        "properties": { "magmom": 0.007 },
        "label": "Zn",
        "xyz": [-4.368048452273, -0.7145566673720009, -14.601943263000983]
      },
      {
        "species": [{ "element": "Zn", "occu": 1 }],
        "abc": [0.849742, 0.148365, 0.750058],
        "properties": { "magmom": 0.007 },
        "label": "Zn",
        "xyz": [-2.8008205699229998, -3.397305790439001, -14.603212188746]
      },
      {
        "species": [{ "element": "Zn", "occu": 1 }],
        "abc": [0.298232999999999, 0.147764, 0.750042],
        "properties": { "magmom": 0.007 },
        "label": "Zn",
        "xyz": [-1.2534089021679973, -0.7272626576969962, -14.602911012488999]
      },
      {
        "species": [{ "element": "Zn", "occu": 1 }],
        "abc": [0.148767999999999, 0.297859, 0.250002],
        "properties": { "magmom": 0.007 },
        "label": "Zn",
        "xyz": [-1.2578040019729972, 0.7260937893930046, -4.867462098404]
      },
      {
        "species": [{ "element": "Zn", "occu": 1 }],
        "abc": [0.150262, 0.8516589999999991, 0.250044999999999],
        "properties": { "magmom": 0.007 },
        "label": "Zn",
        "xyz": [-2.825052447469998, 3.4092360408639957, -4.8684321669919814]
      },
      {
        "species": [{ "element": "Zn", "occu": 1 }],
        "abc": [0.701831, 0.852240999999999, 0.250023],
        "properties": { "magmom": 0.007 },
        "label": "Zn",
        "xyz": [-4.3725786259999975, 0.738809791016995, -4.867993499665]
      }
    ]
  },
  "task_ids": null,
  "uncorrected_energy_per_atom": null,
  "energy_per_atom": -13.334235561,
  "formation_energy_per_atom": 0.137566386,
  "energy_above_hull": 0.530211269,
  "is_stable": false,
  "equilibrium_reaction_energy_per_atom": null,
  "decomposes_to": null,
  "xas": null,
  "grain_boundaries": null,
  "band_gap": 0.0,
  "cbm": null,
  "vbm": null,
  "efermi": 1.90466,
  "is_gap_direct": null,
  "is_metal": null,
  "es_source_calc_id": null,
  "bandstructure": null,
  "dos": null,
  "dos_energy_up": null,
  "dos_energy_down": null,
  "is_magnetic": null,
  "ordering": null,
  "total_magnetization": 2.0933106,
  "total_magnetization_normalized_vol": null,
  "total_magnetization_normalized_formula_units": null,
  "num_magnetic_sites": null,
  "num_unique_magnetic_sites": null,
  "types_of_magnetic_species": null,
  "bulk_modulus": null,
  "shear_modulus": null,
  "universal_anisotropy": null,
  "homogeneous_poisson": null,
  "e_total": null,
  "e_ionic": null,
  "e_electronic": null,
  "n": null,
  "e_ij_max": null,
  "weighted_surface_energy_EV_PER_ANG2": null,
  "weighted_surface_energy": null,
  "weighted_work_function": null,
  "surface_anisotropy": null,
  "shape_factor": null,
  "has_reconstructed": null,
  "possible_species": null,
  "has_props": null,
  "theoretical": null,
  "database_IDs": null,
  "fields_not_requested": [
    "builder_meta",
    "nsites",
    "elements",
    "nelements",
    "composition",
    "composition_reduced",
    "chemsys",
    "symmetry",
    "property_name",
    "deprecated",
    "deprecation_reasons",
    "last_updated",
    "origins",
    "warnings",
    "task_ids",
    "uncorrected_energy_per_atom",
    "equilibrium_reaction_energy_per_atom",
    "decomposes_to",
    "xas",
    "grain_boundaries",
    "cbm",
    "vbm",
    "is_gap_direct",
    "is_metal",
    "es_source_calc_id",
    "bandstructure",
    "dos",
    "dos_energy_up",
    "dos_energy_down",
    "is_magnetic",
    "ordering",
    "total_magnetization_normalized_vol",
    "total_magnetization_normalized_formula_units",
    "num_magnetic_sites",
    "num_unique_magnetic_sites",
    "types_of_magnetic_species",
    "bulk_modulus",
    "shear_modulus",
    "universal_anisotropy",
    "homogeneous_poisson",
    "e_total",
    "e_ionic",
    "e_electronic",
    "n",
    "e_ij_max",
    "weighted_surface_energy_EV_PER_ANG2",
    "weighted_surface_energy",
    "weighted_work_function",
    "surface_anisotropy",
    "shape_factor",
    "has_reconstructed",
    "possible_species",
    "has_props",
    "theoretical",
    "database_IDs"
  ]
}
