{
  "builder_meta": null,
  "nsites": null,
  "elements": null,
  "nelements": null,
  "composition": null,
  "composition_reduced": null,
  "formula_pretty": "Y3Al2",
  "formula_anonymous": "A2B3",
  "chemsys": null,
  "volume": 520.8567444854498,
  "density": 4.089436990153181,
  "density_atomic": 26.04283722427249,
  "symmetry": null,
  "property_name": null,
  "material_id": "mp-16723",
  "deprecated": null,
  "deprecation_reasons": null,
  "last_updated": null,
  "origins": null,
  "warnings": null,
  "structure": {
    "@module": "pymatgen.core.structure",
    "@class": "Structure",
    "charge": 0,
    "lattice": {
      "matrix": [
        [7.67811717, 0.0, 0.0],
        [0.0, 8.23629282, 1.4410000000000001e-5],
        [0.0, 1.4410000000000001e-5, 8.23629282]
      ],
      "pbc": [true, true, true],
      "a": 7.67811717,
      "b": 8.236292820012606,
      "c": 8.236292820012606,
      "alpha": 89.99979951364023,
      "beta": 90.0,
      "gamma": 90.0,
      "volume": 520.8567444854498
    },
    "properties": {},
    "sites": [
      {
        "species": [{ "element": "Y", "occu": 1 }],
        "abc": [0.24997121, -0.0, 0.5],
        "properties": { "magmom": -0.032 },
        "label": "Y",
        "xyz": [1.9193082395066758, 7.2050000000000005e-6, 4.11814641]
      },
      {
        "species": [{ "element": "Y", "occu": 1 }],
        "abc": [0.75002879, -0.0, 0.5],
        "properties": { "magmom": -0.032 },
        "label": "Y",
        "xyz": [5.758808930493324, 7.2050000000000005e-6, 4.11814641]
      },
      {
        "species": [{ "element": "Y", "occu": 1 }],
        "abc": [0.24997121, 0.5, 0.0],
        "properties": { "magmom": -0.032 },
        "label": "Y",
        "xyz": [1.9193082395066758, 4.11814641, 7.2050000000000005e-6]
      },
      {
        "species": [{ "element": "Y", "occu": 1 }],
        "abc": [0.75002879, 0.5, 0.0],
        "properties": { "magmom": -0.032 },
        "label": "Y",
        "xyz": [5.758808930493324, 4.11814641, 7.2050000000000005e-6]
      },
      {
        "species": [{ "element": "Y", "occu": 1 }],
        "abc": [0.0, 0.34690987, 0.34690987],
        "properties": { "magmom": 0.057 },
        "label": "Y",
        "xyz": [0.0, 2.85725627043936, 2.85725627043936]
      },
      {
        "species": [{ "element": "Y", "occu": 1 }],
        "abc": [0.5, 0.15312705000000001, 0.8468729500000001],
        "properties": { "magmom": 0.057 },
        "label": "Y",
        "xyz": [3.839058585, 1.2612114259019906, 6.975095804098009]
      },
      {
        "species": [{ "element": "Y", "occu": 1 }],
        "abc": [0.5, 0.8468729500000001, 0.15312705000000001],
        "properties": { "magmom": 0.057 },
        "label": "Y",
        "xyz": [3.839058585, 6.975095804098009, 1.2612114259019906]
      },
      {
        "species": [{ "element": "Y", "occu": 1 }],
        "abc": [0.0, 0.65309013, 0.65309013],
        "properties": { "magmom": 0.057 },
        "label": "Y",
        "xyz": [0.0, 5.379050959560639, 5.379050959560639]
      },
      {
        "species": [{ "element": "Y", "occu": 1 }],
        "abc": [0.0, 0.20056967, 0.79943033],
        "properties": { "magmom": 0.037 },
        "label": "Y",
        "xyz": [0.0, 1.6519620527218246, 6.584345177278175]
      },
      {
        "species": [{ "element": "Y", "occu": 1 }],
        "abc": [0.5, 0.70053326, 0.70053326],
        "properties": { "magmom": 0.037 },
        "label": "Y",
        "xyz": [3.839058585, 5.76980715419347, 5.76980715419347]
      },
      {
        "species": [{ "element": "Y", "occu": 1 }],
        "abc": [0.5, 0.29946674, 0.29946674],
        "properties": { "magmom": 0.037 },
        "label": "Y",
        "xyz": [3.839058585, 2.46650007580653, 2.46650007580653]
      },
      {
        "species": [{ "element": "Y", "occu": 1 }],
        "abc": [0.0, 0.79943033, 0.20056967],
        "properties": { "magmom": 0.037 },
        "label": "Y",
        "xyz": [0.0, 6.584345177278175, 1.6519620527218246]
      },
      {
        "species": [{ "element": "Al", "occu": 1 }],
        "abc": [0.19748128, 0.11801708, 0.11801708],
        "properties": { "magmom": -0.003 },
        "label": "Al",
        "xyz": [1.5162844067215777, 0.9720249292674883, 0.9720249292674883]
      },
      {
        "species": [{ "element": "Al", "occu": 1 }],
        "abc": [0.69751088, 0.38199335, 0.61800665],
        "properties": { "magmom": -0.003 },
        "label": "Al",
        "xyz": [5.35557026398981, 3.1462179913685735, 5.090089238631426]
      },
      {
        "species": [{ "element": "Al", "occu": 1 }],
        "abc": [0.69751088, 0.61800665, 0.38199335],
        "properties": { "magmom": -0.003 },
        "label": "Al",
        "xyz": [5.35557026398981, 5.090089238631426, 3.1462179913685735]
      },
      {
        "species": [{ "element": "Al", "occu": 1 }],
        "abc": [0.19748128, 0.88198292, 0.88198292],
        "properties": { "magmom": -0.003 },
        "label": "Al",
        "xyz": [1.5162844067215777, 7.264282300732511, 7.264282300732511]
      },
      {
        "species": [{ "element": "Al", "occu": 1 }],
        "abc": [0.30248912, 0.61800665, 0.38199335],
        "properties": { "magmom": -0.003 },
        "label": "Al",
        "xyz": [2.3225469060101904, 5.090089238631426, 3.1462179913685735]
      },
      {
        "species": [{ "element": "Al", "occu": 1 }],
        "abc": [0.30248912, 0.38199335, 0.61800665],
        "properties": { "magmom": -0.003 },
        "label": "Al",
        "xyz": [2.3225469060101904, 3.1462179913685735, 5.090089238631426]
      },
      {
        "species": [{ "element": "Al", "occu": 1 }],
        "abc": [0.80251872, 0.11801708, 0.11801708],
        "properties": { "magmom": -0.003 },
        "label": "Al",
        "xyz": [6.161832763278423, 0.9720249292674883, 0.9720249292674883]
      },
      {
        "species": [{ "element": "Al", "occu": 1 }],
        "abc": [0.80251872, 0.88198292, 0.88198292],
        "properties": { "magmom": -0.003 },
        "label": "Al",
        "xyz": [6.161832763278423, 7.264282300732511, 7.264282300732511]
      }
    ]
  },
  "task_ids": null,
  "uncorrected_energy_per_atom": null,
  "energy_per_atom": -15.266651999499999,
  "formation_energy_per_atom": -0.3856520915,
  "energy_above_hull": 0.0034791360000010004,
  "is_stable": false,
  "equilibrium_reaction_energy_per_atom": null,
  "decomposes_to": null,
  "xas": null,
  "grain_boundaries": null,
  "band_gap": 0.0,
  "cbm": null,
  "vbm": null,
  "efermi": 4.10020951,
  "is_gap_direct": null,
  "is_metal": null,
  "es_source_calc_id": null,
  "bandstructure": null,
  "dos": null,
  "dos_energy_up": null,
  "dos_energy_down": null,
  "is_magnetic": null,
  "ordering": null,
  "total_magnetization": 0.452313199999999,
  "total_magnetization_normalized_vol": null,
  "total_magnetization_normalized_formula_units": null,
  "num_magnetic_sites": null,
  "num_unique_magnetic_sites": null,
  "types_of_magnetic_species": null,
  "bulk_modulus": null,
  "shear_modulus": null,
  "universal_anisotropy": null,
  "homogeneous_poisson": null,
  "e_total": null,
  "e_ionic": null,
  "e_electronic": null,
  "n": null,
  "e_ij_max": null,
  "weighted_surface_energy_EV_PER_ANG2": null,
  "weighted_surface_energy": null,
  "weighted_work_function": null,
  "surface_anisotropy": null,
  "shape_factor": null,
  "has_reconstructed": null,
  "possible_species": null,
  "has_props": null,
  "theoretical": null,
  "database_IDs": null,
  "fields_not_requested": [
    "builder_meta",
    "nsites",
    "elements",
    "nelements",
    "composition",
    "composition_reduced",
    "chemsys",
    "symmetry",
    "property_name",
    "deprecated",
    "deprecation_reasons",
    "last_updated",
    "origins",
    "warnings",
    "task_ids",
    "uncorrected_energy_per_atom",
    "equilibrium_reaction_energy_per_atom",
    "decomposes_to",
    "xas",
    "grain_boundaries",
    "cbm",
    "vbm",
    "is_gap_direct",
    "is_metal",
    "es_source_calc_id",
    "bandstructure",
    "dos",
    "dos_energy_up",
    "dos_energy_down",
    "is_magnetic",
    "ordering",
    "total_magnetization_normalized_vol",
    "total_magnetization_normalized_formula_units",
    "num_magnetic_sites",
    "num_unique_magnetic_sites",
    "types_of_magnetic_species",
    "bulk_modulus",
    "shear_modulus",
    "universal_anisotropy",
    "homogeneous_poisson",
    "e_total",
    "e_ionic",
    "e_electronic",
    "n",
    "e_ij_max",
    "weighted_surface_energy_EV_PER_ANG2",
    "weighted_surface_energy",
    "weighted_work_function",
    "surface_anisotropy",
    "shape_factor",
    "has_reconstructed",
    "possible_species",
    "has_props",
    "theoretical",
    "database_IDs"
  ]
}
