{
  "builder_meta": null,
  "nsites": null,
  "elements": null,
  "nelements": null,
  "composition": null,
  "composition_reduced": null,
  "formula_pretty": "Y3C4",
  "formula_anonymous": "A3B4",
  "chemsys": null,
  "volume": 1049.5112051760482,
  "density": 4.9801455688509275,
  "density_atomic": 14.993017216800688,
  "symmetry": null,
  "property_name": null,
  "material_id": "mp-1200613",
  "deprecated": null,
  "deprecation_reasons": null,
  "last_updated": null,
  "origins": null,
  "warnings": null,
  "structure": {
    "@module": "pymatgen.core.structure",
    "@class": "Structure",
    "charge": 0,
    "lattice": {
      "matrix": [
        [8.10416372, -0.0, -0.0],
        [0.0, 8.10416372, 0.0],
        [0.0, 0.0, 15.97977528]
      ],
      "pbc": [true, true, true],
      "a": 8.10416372,
      "b": 8.10416372,
      "c": 15.97977528,
      "alpha": 90.0,
      "beta": 90.0,
      "gamma": 90.0,
      "volume": 1049.5112051760482
    },
    "properties": {},
    "sites": [
      {
        "species": [{ "element": "Y", "occu": 1 }],
        "abc": [0.5, 0.5, 0.5],
        "properties": { "magmom": -0.0 },
        "label": "Y",
        "xyz": [4.05208186, 4.05208186, 7.98988764]
      },
      {
        "species": [{ "element": "Y", "occu": 1 }],
        "abc": [0.0, 0.0, 0.0],
        "properties": { "magmom": -0.0 },
        "label": "Y",
        "xyz": [0.0, 0.0, 0.0]
      },
      {
        "species": [{ "element": "Y", "occu": 1 }],
        "abc": [0.5, 0.5, 0.18736704],
        "properties": { "magmom": 0.0 },
        "label": "Y",
        "xyz": [4.05208186, 4.05208186, 2.9940831940787715]
      },
      {
        "species": [{ "element": "Y", "occu": 1 }],
        "abc": [0.0, 0.0, 0.68736704],
        "properties": { "magmom": 0.0 },
        "label": "Y",
        "xyz": [0.0, 0.0, 10.983970834078772]
      },
      {
        "species": [{ "element": "Y", "occu": 1 }],
        "abc": [0.5, 0.5, 0.8126329600000001],
        "properties": { "magmom": 0.0 },
        "label": "Y",
        "xyz": [4.05208186, 4.05208186, 12.98569208592123]
      },
      {
        "species": [{ "element": "Y", "occu": 1 }],
        "abc": [0.0, 0.0, 0.31263296],
        "properties": { "magmom": 0.0 },
        "label": "Y",
        "xyz": [0.0, 0.0, 4.995804445921229]
      },
      {
        "species": [{ "element": "Y", "occu": 1 }],
        "abc": [0.7019170100000001, 0.9041852300000001, 0.5],
        "properties": { "magmom": -0.0 },
        "label": "Y",
        "xyz": [5.688450366892878, 7.327665137125857, 7.98988764]
      },
      {
        "species": [{ "element": "Y", "occu": 1 }],
        "abc": [0.29808299, 0.09581477000000001, 0.5],
        "properties": { "magmom": -0.0 },
        "label": "Y",
        "xyz": [2.415713353107123, 0.7764985828741445, 7.98988764]
      },
      {
        "species": [{ "element": "Y", "occu": 1 }],
        "abc": [0.79808299, 0.40418523, 0.0],
        "properties": { "magmom": -0.0 },
        "label": "Y",
        "xyz": [6.467795213107124, 3.2755832771258557, 0.0]
      },
      {
        "species": [{ "element": "Y", "occu": 1 }],
        "abc": [0.20191701, 0.59581477, 0.0],
        "properties": { "magmom": -0.0 },
        "label": "Y",
        "xyz": [1.6363685068928775, 4.828580442874145, 0.0]
      },
      {
        "species": [{ "element": "Y", "occu": 1 }],
        "abc": [0.9041852300000001, 0.29808299, 0.5],
        "properties": { "magmom": -0.0 },
        "label": "Y",
        "xyz": [7.327665137125857, 2.415713353107123, 7.98988764]
      },
      {
        "species": [{ "element": "Y", "occu": 1 }],
        "abc": [0.09581477000000001, 0.7019170100000001, 0.5],
        "properties": { "magmom": -0.0 },
        "label": "Y",
        "xyz": [0.7764985828741445, 5.688450366892878, 7.98988764]
      },
      {
        "species": [{ "element": "Y", "occu": 1 }],
        "abc": [0.40418523, 0.20191701, 0.0],
        "properties": { "magmom": -0.0 },
        "label": "Y",
        "xyz": [3.2755832771258557, 1.6363685068928775, 0.0]
      },
      {
        "species": [{ "element": "Y", "occu": 1 }],
        "abc": [0.59581477, 0.79808299, 0.0],
        "properties": { "magmom": -0.0 },
        "label": "Y",
        "xyz": [4.828580442874145, 6.467795213107124, 0.0]
      },
      {
        "species": [{ "element": "Y", "occu": 1 }],
        "abc": [0.7883732, 0.60001744, 0.35332161],
        "properties": { "magmom": -0.0 },
        "label": "Y",
        "xyz": [6.389105485260305, 4.862639568615277, 5.645999929367801]
      },
      {
        "species": [{ "element": "Y", "occu": 1 }],
        "abc": [0.2116268, 0.39998256, 0.35332161],
        "properties": { "magmom": -0.0 },
        "label": "Y",
        "xyz": [1.715058234739696, 3.2415241513847235, 5.645999929367801]
      },
      {
        "species": [{ "element": "Y", "occu": 1 }],
        "abc": [0.7116268, 0.10001744, 0.8533216100000001],
        "properties": { "magmom": -0.0 },
        "label": "Y",
        "xyz": [5.7671400947396965, 0.8105577086152769, 13.635887569367801]
      },
      {
        "species": [{ "element": "Y", "occu": 1 }],
        "abc": [0.2883732, 0.89998256, 0.8533216100000001],
        "properties": { "magmom": -0.0 },
        "label": "Y",
        "xyz": [2.3370236252603043, 7.293606011384724, 13.635887569367801]
      },
      {
        "species": [{ "element": "Y", "occu": 1 }],
        "abc": [0.60001744, 0.2116268, 0.35332161],
        "properties": { "magmom": -0.0 },
        "label": "Y",
        "xyz": [4.862639568615277, 1.715058234739696, 5.645999929367801]
      },
      {
        "species": [{ "element": "Y", "occu": 1 }],
        "abc": [0.39998256, 0.7883732, 0.35332161],
        "properties": { "magmom": -0.0 },
        "label": "Y",
        "xyz": [3.2415241513847235, 6.389105485260305, 5.645999929367801]
      },
      {
        "species": [{ "element": "Y", "occu": 1 }],
        "abc": [0.10001744, 0.2883732, 0.8533216100000001],
        "properties": { "magmom": -0.0 },
        "label": "Y",
        "xyz": [0.8105577086152769, 2.3370236252603043, 13.635887569367801]
      },
      {
        "species": [{ "element": "Y", "occu": 1 }],
        "abc": [0.89998256, 0.7116268, 0.8533216100000001],
        "properties": { "magmom": -0.0 },
        "label": "Y",
        "xyz": [7.293606011384724, 5.7671400947396965, 13.635887569367801]
      },
      {
        "species": [{ "element": "Y", "occu": 1 }],
        "abc": [0.2116268, 0.39998256, 0.64667839],
        "properties": { "magmom": -0.0 },
        "label": "Y",
        "xyz": [1.715058234739696, 3.2415241513847235, 10.3337753506322]
      },
      {
        "species": [{ "element": "Y", "occu": 1 }],
        "abc": [0.7883732, 0.60001744, 0.64667839],
        "properties": { "magmom": -0.0 },
        "label": "Y",
        "xyz": [6.389105485260305, 4.862639568615277, 10.3337753506322]
      },
      {
        "species": [{ "element": "Y", "occu": 1 }],
        "abc": [0.2883732, 0.89998256, 0.14667839],
        "properties": { "magmom": -0.0 },
        "label": "Y",
        "xyz": [2.3370236252603043, 7.293606011384724, 2.343887710632199]
      },
      {
        "species": [{ "element": "Y", "occu": 1 }],
        "abc": [0.7116268, 0.10001744, 0.14667839],
        "properties": { "magmom": -0.0 },
        "label": "Y",
        "xyz": [5.7671400947396965, 0.8105577086152769, 2.343887710632199]
      },
      {
        "species": [{ "element": "Y", "occu": 1 }],
        "abc": [0.39998256, 0.7883732, 0.64667839],
        "properties": { "magmom": -0.0 },
        "label": "Y",
        "xyz": [3.2415241513847235, 6.389105485260305, 10.3337753506322]
      },
      {
        "species": [{ "element": "Y", "occu": 1 }],
        "abc": [0.60001744, 0.2116268, 0.64667839],
        "properties": { "magmom": -0.0 },
        "label": "Y",
        "xyz": [4.862639568615277, 1.715058234739696, 10.3337753506322]
      },
      {
        "species": [{ "element": "Y", "occu": 1 }],
        "abc": [0.89998256, 0.7116268, 0.14667839],
        "properties": { "magmom": -0.0 },
        "label": "Y",
        "xyz": [7.293606011384724, 5.7671400947396965, 2.343887710632199]
      },
      {
        "species": [{ "element": "Y", "occu": 1 }],
        "abc": [0.10001744, 0.2883732, 0.14667839],
        "properties": { "magmom": -0.0 },
        "label": "Y",
        "xyz": [0.8105577086152769, 2.3370236252603043, 2.343887710632199]
      },
      {
        "species": [{ "element": "C", "occu": 1 }],
        "abc": [0.5, 0.5, 0.95947611],
        "properties": { "magmom": -0.0 },
        "label": "C",
        "xyz": [4.05208186, 4.05208186, 15.33221262432856]
      },
      {
        "species": [{ "element": "C", "occu": 1 }],
        "abc": [0.0, 0.0, 0.45947611],
        "properties": { "magmom": -0.0 },
        "label": "C",
        "xyz": [0.0, 0.0, 7.3423249843285605]
      },
      {
        "species": [{ "element": "C", "occu": 1 }],
        "abc": [0.5, 0.5, 0.04052389],
        "properties": { "magmom": -0.0 },
        "label": "C",
        "xyz": [4.05208186, 4.05208186, 0.6475626556714392]
      },
      {
        "species": [{ "element": "C", "occu": 1 }],
        "abc": [0.0, 0.0, 0.54052389],
        "properties": { "magmom": -0.0 },
        "label": "C",
        "xyz": [0.0, 0.0, 8.637450295671439]
      },
      {
        "species": [{ "element": "C", "occu": 1 }],
        "abc": [0.5, 0.5, 0.34242117],
        "properties": { "magmom": 0.0 },
        "label": "C",
        "xyz": [4.05208186, 4.05208186, 5.4718133477146775]
      },
      {
        "species": [{ "element": "C", "occu": 1 }],
        "abc": [0.0, 0.0, 0.84242117],
        "properties": { "magmom": 0.0 },
        "label": "C",
        "xyz": [0.0, 0.0, 13.461700987714678]
      },
      {
        "species": [{ "element": "C", "occu": 1 }],
        "abc": [0.5, 0.5, 0.6575788300000001],
        "properties": { "magmom": 0.0 },
        "label": "C",
        "xyz": [4.05208186, 4.05208186, 10.507961932285323]
      },
      {
        "species": [{ "element": "C", "occu": 1 }],
        "abc": [0.0, 0.0, 0.15757883],
        "properties": { "magmom": 0.0 },
        "label": "C",
        "xyz": [0.0, 0.0, 2.5180742922853225]
      },
      {
        "species": [{ "element": "C", "occu": 1 }],
        "abc": [0.6062769, 0.19543118, 0.5],
        "properties": { "magmom": -0.0 },
        "label": "C",
        "xyz": [4.913367257254069, 1.5838062787127898, 7.98988764]
      },
      {
        "species": [{ "element": "C", "occu": 1 }],
        "abc": [0.3937231, 0.80456882, 0.5],
        "properties": { "magmom": -0.0 },
        "label": "C",
        "xyz": [3.1907964627459324, 6.520357441287211, 7.98988764]
      },
      {
        "species": [{ "element": "C", "occu": 1 }],
        "abc": [0.8937231, 0.69543118, 0.0],
        "properties": { "magmom": -0.0 },
        "label": "C",
        "xyz": [7.242878322745932, 5.63588813871279, 0.0]
      },
      {
        "species": [{ "element": "C", "occu": 1 }],
        "abc": [0.1062769, 0.30456882, 0.0],
        "properties": { "magmom": -0.0 },
        "label": "C",
        "xyz": [0.861285397254068, 2.4682755812872106, 0.0]
      },
      {
        "species": [{ "element": "C", "occu": 1 }],
        "abc": [0.19543118, 0.3937231, 0.5],
        "properties": { "magmom": -0.0 },
        "label": "C",
        "xyz": [1.5838062787127898, 3.1907964627459324, 7.98988764]
      },
      {
        "species": [{ "element": "C", "occu": 1 }],
        "abc": [0.80456882, 0.6062769, 0.5],
        "properties": { "magmom": -0.0 },
        "label": "C",
        "xyz": [6.520357441287211, 4.913367257254069, 7.98988764]
      },
      {
        "species": [{ "element": "C", "occu": 1 }],
        "abc": [0.69543118, 0.1062769, 0.0],
        "properties": { "magmom": -0.0 },
        "label": "C",
        "xyz": [5.63588813871279, 0.861285397254068, 0.0]
      },
      {
        "species": [{ "element": "C", "occu": 1 }],
        "abc": [0.30456882, 0.8937231, 0.0],
        "properties": { "magmom": -0.0 },
        "label": "C",
        "xyz": [2.4682755812872106, 7.242878322745932, 0.0]
      },
      {
        "species": [{ "element": "C", "occu": 1 }],
        "abc": [0.6937344, 0.90211971, 0.32632434],
        "properties": { "magmom": 0.0 },
        "label": "C",
        "xyz": [5.6221371557959685, 7.310925824878922, 5.214589621594315]
      },
      {
        "species": [{ "element": "C", "occu": 1 }],
        "abc": [0.306265599999999, 0.09788029000000001, 0.32632434],
        "properties": { "magmom": 0.0 },
        "label": "C",
        "xyz": [2.4820265642040242, 0.7932378951210789, 5.214589621594315]
      },
      {
        "species": [{ "element": "C", "occu": 1 }],
        "abc": [0.806265599999999, 0.40211971, 0.82632434],
        "properties": { "magmom": 0.0 },
        "label": "C",
        "xyz": [6.534108424204025, 3.258843964878922, 13.204477261594315]
      },
      {
        "species": [{ "element": "C", "occu": 1 }],
        "abc": [0.1937344, 0.59788029, 0.82632434],
        "properties": { "magmom": 0.0 },
        "label": "C",
        "xyz": [1.5700552957959681, 4.845319755121079, 13.204477261594315]
      },
      {
        "species": [{ "element": "C", "occu": 1 }],
        "abc": [0.90211971, 0.306265599999999, 0.32632434],
        "properties": { "magmom": 0.0 },
        "label": "C",
        "xyz": [7.310925824878922, 2.4820265642040242, 5.214589621594315]
      },
      {
        "species": [{ "element": "C", "occu": 1 }],
        "abc": [0.09788029000000001, 0.6937344, 0.32632434],
        "properties": { "magmom": 0.0 },
        "label": "C",
        "xyz": [0.7932378951210789, 5.6221371557959685, 5.214589621594315]
      },
      {
        "species": [{ "element": "C", "occu": 1 }],
        "abc": [0.40211971, 0.1937344, 0.82632434],
        "properties": { "magmom": 0.0 },
        "label": "C",
        "xyz": [3.258843964878922, 1.5700552957959681, 13.204477261594315]
      },
      {
        "species": [{ "element": "C", "occu": 1 }],
        "abc": [0.59788029, 0.806265599999999, 0.82632434],
        "properties": { "magmom": 0.0 },
        "label": "C",
        "xyz": [4.845319755121079, 6.534108424204025, 13.204477261594315]
      },
      {
        "species": [{ "element": "C", "occu": 1 }],
        "abc": [0.306265599999999, 0.09788029000000001, 0.67367566],
        "properties": { "magmom": 0.0 },
        "label": "C",
        "xyz": [2.4820265642040242, 0.7932378951210789, 10.765185658405684]
      },
      {
        "species": [{ "element": "C", "occu": 1 }],
        "abc": [0.6937344, 0.90211971, 0.67367566],
        "properties": { "magmom": 0.0 },
        "label": "C",
        "xyz": [5.6221371557959685, 7.310925824878922, 10.765185658405684]
      },
      {
        "species": [{ "element": "C", "occu": 1 }],
        "abc": [0.1937344, 0.59788029, 0.17367566],
        "properties": { "magmom": 0.0 },
        "label": "C",
        "xyz": [1.5700552957959681, 4.845319755121079, 2.775298018405685]
      },
      {
        "species": [{ "element": "C", "occu": 1 }],
        "abc": [0.806265599999999, 0.40211971, 0.17367566],
        "properties": { "magmom": 0.0 },
        "label": "C",
        "xyz": [6.534108424204025, 3.258843964878922, 2.775298018405685]
      },
      {
        "species": [{ "element": "C", "occu": 1 }],
        "abc": [0.09788029000000001, 0.6937344, 0.67367566],
        "properties": { "magmom": 0.0 },
        "label": "C",
        "xyz": [0.7932378951210789, 5.6221371557959685, 10.765185658405684]
      },
      {
        "species": [{ "element": "C", "occu": 1 }],
        "abc": [0.90211971, 0.306265599999999, 0.67367566],
        "properties": { "magmom": 0.0 },
        "label": "C",
        "xyz": [7.310925824878922, 2.4820265642040242, 10.765185658405684]
      },
      {
        "species": [{ "element": "C", "occu": 1 }],
        "abc": [0.59788029, 0.806265599999999, 0.17367566],
        "properties": { "magmom": 0.0 },
        "label": "C",
        "xyz": [4.845319755121079, 6.534108424204025, 2.775298018405685]
      },
      {
        "species": [{ "element": "C", "occu": 1 }],
        "abc": [0.40211971, 0.1937344, 0.17367566],
        "properties": { "magmom": 0.0 },
        "label": "C",
        "xyz": [3.258843964878922, 1.5700552957959681, 2.775298018405685]
      },
      {
        "species": [{ "element": "C", "occu": 1 }],
        "abc": [0.64964823, 0.8503517700000001, 0.25],
        "properties": { "magmom": 0.0 },
        "label": "C",
        "xyz": [5.264855616328217, 6.891389963671785, 3.99494382]
      },
      {
        "species": [{ "element": "C", "occu": 1 }],
        "abc": [0.35035177, 0.14964823, 0.25],
        "properties": { "magmom": 0.0 },
        "label": "C",
        "xyz": [2.839308103671785, 1.2127737563282157, 3.99494382]
      },
      {
        "species": [{ "element": "C", "occu": 1 }],
        "abc": [0.8503517700000001, 0.35035177, 0.75],
        "properties": { "magmom": 0.0 },
        "label": "C",
        "xyz": [6.891389963671785, 2.839308103671785, 11.98483146]
      },
      {
        "species": [{ "element": "C", "occu": 1 }],
        "abc": [0.14964823, 0.64964823, 0.75],
        "properties": { "magmom": 0.0 },
        "label": "C",
        "xyz": [1.2127737563282157, 5.264855616328217, 11.98483146]
      },
      {
        "species": [{ "element": "C", "occu": 1 }],
        "abc": [0.8503517700000001, 0.35035177, 0.25],
        "properties": { "magmom": 0.0 },
        "label": "C",
        "xyz": [6.891389963671785, 2.839308103671785, 3.99494382]
      },
      {
        "species": [{ "element": "C", "occu": 1 }],
        "abc": [0.14964823, 0.64964823, 0.25],
        "properties": { "magmom": 0.0 },
        "label": "C",
        "xyz": [1.2127737563282157, 5.264855616328217, 3.99494382]
      },
      {
        "species": [{ "element": "C", "occu": 1 }],
        "abc": [0.35035177, 0.14964823, 0.75],
        "properties": { "magmom": 0.0 },
        "label": "C",
        "xyz": [2.839308103671785, 1.2127737563282157, 11.98483146]
      },
      {
        "species": [{ "element": "C", "occu": 1 }],
        "abc": [0.64964823, 0.8503517700000001, 0.75],
        "properties": { "magmom": 0.0 },
        "label": "C",
        "xyz": [5.264855616328217, 6.891389963671785, 11.98483146]
      }
    ]
  },
  "task_ids": null,
  "uncorrected_energy_per_atom": null,
  "energy_per_atom": -8.36047814242857,
  "formation_energy_per_atom": -0.297344361,
  "energy_above_hull": 0.0,
  "is_stable": true,
  "equilibrium_reaction_energy_per_atom": null,
  "decomposes_to": null,
  "xas": null,
  "grain_boundaries": null,
  "band_gap": 0.0,
  "cbm": null,
  "vbm": null,
  "efermi": 4.57013379,
  "is_gap_direct": null,
  "is_metal": null,
  "es_source_calc_id": null,
  "bandstructure": null,
  "dos": null,
  "dos_energy_up": null,
  "dos_energy_down": null,
  "is_magnetic": null,
  "ordering": null,
  "total_magnetization": 4e-7,
  "total_magnetization_normalized_vol": null,
  "total_magnetization_normalized_formula_units": null,
  "num_magnetic_sites": null,
  "num_unique_magnetic_sites": null,
  "types_of_magnetic_species": null,
  "bulk_modulus": null,
  "shear_modulus": null,
  "universal_anisotropy": null,
  "homogeneous_poisson": null,
  "e_total": null,
  "e_ionic": null,
  "e_electronic": null,
  "n": null,
  "e_ij_max": null,
  "weighted_surface_energy_EV_PER_ANG2": null,
  "weighted_surface_energy": null,
  "weighted_work_function": null,
  "surface_anisotropy": null,
  "shape_factor": null,
  "has_reconstructed": null,
  "possible_species": null,
  "has_props": null,
  "theoretical": null,
  "database_IDs": null,
  "fields_not_requested": [
    "builder_meta",
    "nsites",
    "elements",
    "nelements",
    "composition",
    "composition_reduced",
    "chemsys",
    "symmetry",
    "property_name",
    "deprecated",
    "deprecation_reasons",
    "last_updated",
    "origins",
    "warnings",
    "task_ids",
    "uncorrected_energy_per_atom",
    "equilibrium_reaction_energy_per_atom",
    "decomposes_to",
    "xas",
    "grain_boundaries",
    "cbm",
    "vbm",
    "is_gap_direct",
    "is_metal",
    "es_source_calc_id",
    "bandstructure",
    "dos",
    "dos_energy_up",
    "dos_energy_down",
    "is_magnetic",
    "ordering",
    "total_magnetization_normalized_vol",
    "total_magnetization_normalized_formula_units",
    "num_magnetic_sites",
    "num_unique_magnetic_sites",
    "types_of_magnetic_species",
    "bulk_modulus",
    "shear_modulus",
    "universal_anisotropy",
    "homogeneous_poisson",
    "e_total",
    "e_ionic",
    "e_electronic",
    "n",
    "e_ij_max",
    "weighted_surface_energy_EV_PER_ANG2",
    "weighted_surface_energy",
    "weighted_work_function",
    "surface_anisotropy",
    "shape_factor",
    "has_reconstructed",
    "possible_species",
    "has_props",
    "theoretical",
    "database_IDs"
  ]
}
