{
  "builder_meta": null,
  "nsites": null,
  "elements": null,
  "nelements": null,
  "composition": null,
  "composition_reduced": null,
  "formula_pretty": "Y3Co",
  "formula_anonymous": "AB3",
  "chemsys": null,
  "volume": 422.7694466065088,
  "density": 5.116318489715281,
  "density_atomic": 26.4230904129068,
  "symmetry": null,
  "property_name": null,
  "material_id": "mp-1105598",
  "deprecated": null,
  "deprecation_reasons": null,
  "last_updated": null,
  "origins": null,
  "warnings": null,
  "structure": {
    "@module": "pymatgen.core.structure",
    "@class": "Structure",
    "charge": 0,
    "lattice": {
      "matrix": [
        [-4.4610000000000015e-5, 0.0, 6.33467087],
        [6.99088712, 0.0, -4.885e-5],
        [0.0, 9.54656752, 0.0]
      ],
      "pbc": [true, true, true],
      "a": 6.334670870157076,
      "b": 6.990887120170673,
      "c": 9.54656752,
      "alpha": 90.0,
      "beta": 90.0,
      "gamma": 90.00080385206444,
      "volume": 422.7694466065088
    },
    "properties": {},
    "sites": [
      {
        "species": [{ "element": "Y", "occu": 1 }],
        "abc": [0.32137558, 0.67413668, 0.06908116],
        "properties": { "magmom": 0.075 },
        "label": "Y",
        "xyz": [4.712799096766939, 0.6594879582999232, 2.0357755933785366]
      },
      {
        "species": [{ "element": "Y", "occu": 1 }],
        "abc": [0.17855092, 0.17405589999999901, 0.43093322],
        "properties": { "magmom": -0.075 },
        "label": "Y",
        "xyz": [1.21679718431346, 4.113933081341014, 1.1310528091049854]
      },
      {
        "species": [{ "element": "Y", "occu": 1 }],
        "abc": [0.67862512, 0.32588288, 0.569103399999999],
        "properties": { "magmom": -0.076 },
        "label": "Y",
        "xyz": [2.278180154953902, 5.432984033961559, 4.298850859935566]
      },
      {
        "species": [{ "element": "Y", "occu": 1 }],
        "abc": [0.82139361, 0.82590416, 0.93090843],
        "properties": { "magmom": 0.075 },
        "label": "Y",
        "xyz": [5.773766112129477, 8.886980181932193, 5.2032178286529245]
      },
      {
        "species": [{ "element": "Y", "occu": 1 }],
        "abc": [0.67862512, 0.32588288, 0.9308966],
        "properties": { "magmom": -0.076 },
        "label": "Y",
        "xyz": [2.278180154953902, 8.886867246038431, 4.298850859935566]
      },
      {
        "species": [{ "element": "Y", "occu": 1 }],
        "abc": [0.82139361, 0.82590416, 0.56909157],
        "properties": { "magmom": 0.075 },
        "label": "Y",
        "xyz": [5.773766112129477, 5.432871098067806, 5.2032178286529245]
      },
      {
        "species": [{ "element": "Y", "occu": 1 }],
        "abc": [0.32137558, 0.67413668, 0.43091884],
        "properties": { "magmom": 0.075 },
        "label": "Y",
        "xyz": [4.712799096766939, 4.113795801700077, 2.0357755933785366]
      },
      {
        "species": [{ "element": "Y", "occu": 1 }],
        "abc": [0.17855092, 0.17405589999999901, 0.06906678000000001],
        "properties": { "magmom": -0.075 },
        "label": "Y",
        "xyz": [1.21679718431346, 0.6593506786589857, 1.1310528091049854]
      },
      {
        "species": [{ "element": "Y", "occu": 1 }],
        "abc": [0.8595398, 0.54473191, 0.25],
        "properties": { "magmom": 0.005 },
        "label": "Y",
        "xyz": [3.808120949401521, 2.38664188, 5.444875122511823]
      },
      {
        "species": [{ "element": "Y", "occu": 1 }],
        "abc": [0.64055556, 0.04462348, 0.25],
        "properties": { "magmom": -0.005 },
        "label": "Y",
        "xyz": [0.311929136398046, 2.38664188, 4.057706466691539]
      },
      {
        "species": [{ "element": "Y", "occu": 1 }],
        "abc": [0.14044991, 0.45533732, 0.75],
        "properties": { "magmom": -0.005 },
        "label": "Y",
        "xyz": [3.183205540172833, 7.15992564, 0.8896817103430398]
      },
      {
        "species": [{ "element": "Y", "occu": 1 }],
        "abc": [0.35954877, 0.95531782, 0.75],
        "properties": { "magmom": 0.006 },
        "label": "Y",
        "xyz": [6.678503003873848, 7.15992564, 2.277576452387823]
      },
      {
        "species": [{ "element": "Co", "occu": 1 }],
        "abc": [0.04450862, 0.88723288, 0.25],
        "properties": { "magmom": -0.9400000000000001 },
        "label": "Co",
        "xyz": [6.202542927702967, 2.38664188, 0.2819041172517114]
      },
      {
        "species": [{ "element": "Co", "occu": 1 }],
        "abc": [0.45550128, 0.3871898, 0.25],
        "properties": { "magmom": 0.9420000000000001 },
        "label": "Co",
        "xyz": [2.706779865903275, 2.38664188, 2.8854317754419836]
      },
      {
        "species": [{ "element": "Co", "occu": 1 }],
        "abc": [0.95548139, 0.11282068, 0.75],
        "properties": { "magmom": 0.9410000000000001 },
        "label": "Co",
        "xyz": [0.7886740146568337, 7.15992564, 6.052654616769892]
      },
      {
        "species": [{ "element": "Co", "occu": 1 }],
        "abc": [0.54452522, 0.61278687, 0.75],
        "properties": { "magmom": -0.9400000000000001 },
        "label": "Co",
        "xyz": [4.28389954551805, 7.15992564, 3.4493581144757424]
      }
    ]
  },
  "task_ids": null,
  "uncorrected_energy_per_atom": null,
  "energy_per_atom": -6.7711373775000006,
  "formation_energy_per_atom": -0.1059645725,
  "energy_above_hull": 0.0,
  "is_stable": true,
  "equilibrium_reaction_energy_per_atom": null,
  "decomposes_to": null,
  "xas": null,
  "grain_boundaries": null,
  "band_gap": 0.0,
  "cbm": null,
  "vbm": null,
  "efermi": 3.43193471,
  "is_gap_direct": null,
  "is_metal": null,
  "es_source_calc_id": null,
  "bandstructure": null,
  "dos": null,
  "dos_energy_up": null,
  "dos_energy_down": null,
  "is_magnetic": null,
  "ordering": null,
  "total_magnetization": 0.002804999999999,
  "total_magnetization_normalized_vol": null,
  "total_magnetization_normalized_formula_units": null,
  "num_magnetic_sites": null,
  "num_unique_magnetic_sites": null,
  "types_of_magnetic_species": null,
  "bulk_modulus": null,
  "shear_modulus": null,
  "universal_anisotropy": null,
  "homogeneous_poisson": null,
  "e_total": null,
  "e_ionic": null,
  "e_electronic": null,
  "n": null,
  "e_ij_max": null,
  "weighted_surface_energy_EV_PER_ANG2": null,
  "weighted_surface_energy": null,
  "weighted_work_function": null,
  "surface_anisotropy": null,
  "shape_factor": null,
  "has_reconstructed": null,
  "possible_species": null,
  "has_props": null,
  "theoretical": null,
  "database_IDs": null,
  "fields_not_requested": [
    "builder_meta",
    "nsites",
    "elements",
    "nelements",
    "composition",
    "composition_reduced",
    "chemsys",
    "symmetry",
    "property_name",
    "deprecated",
    "deprecation_reasons",
    "last_updated",
    "origins",
    "warnings",
    "task_ids",
    "uncorrected_energy_per_atom",
    "equilibrium_reaction_energy_per_atom",
    "decomposes_to",
    "xas",
    "grain_boundaries",
    "cbm",
    "vbm",
    "is_gap_direct",
    "is_metal",
    "es_source_calc_id",
    "bandstructure",
    "dos",
    "dos_energy_up",
    "dos_energy_down",
    "is_magnetic",
    "ordering",
    "total_magnetization_normalized_vol",
    "total_magnetization_normalized_formula_units",
    "num_magnetic_sites",
    "num_unique_magnetic_sites",
    "types_of_magnetic_species",
    "bulk_modulus",
    "shear_modulus",
    "universal_anisotropy",
    "homogeneous_poisson",
    "e_total",
    "e_ionic",
    "e_electronic",
    "n",
    "e_ij_max",
    "weighted_surface_energy_EV_PER_ANG2",
    "weighted_surface_energy",
    "weighted_work_function",
    "surface_anisotropy",
    "shape_factor",
    "has_reconstructed",
    "possible_species",
    "has_props",
    "theoretical",
    "database_IDs"
  ]
}
