{
  "builder_meta": null,
  "nsites": null,
  "elements": null,
  "nelements": null,
  "composition": null,
  "composition_reduced": null,
  "formula_pretty": "Y3Co2",
  "formula_anonymous": "A2B3",
  "chemsys": null,
  "volume": 457.0243878399081,
  "density": 5.589344234125663,
  "density_atomic": 22.851219391995407,
  "symmetry": null,
  "property_name": null,
  "material_id": "mp-616512",
  "deprecated": null,
  "deprecation_reasons": null,
  "last_updated": null,
  "origins": null,
  "warnings": null,
  "structure": {
    "@module": "pymatgen.core.structure",
    "@class": "Structure",
    "charge": 0,
    "lattice": {
      "matrix": [
        [3.966887, 0.0, 0.0],
        [0.0, 9.423694, 0.0],
        [0.0, 0.0, 12.225549]
      ],
      "pbc": [true, true, true],
      "a": 3.966887,
      "b": 9.423694,
      "c": 12.225549,
      "alpha": 90.0,
      "beta": 90.0,
      "gamma": 90.0,
      "volume": 457.0243878399081
    },
    "properties": {},
    "sites": [
      {
        "species": [{ "element": "Y", "occu": 1 }],
        "abc": [0.5, 0.42814, 0.864443],
        "properties": { "magmom": 0.0 },
        "label": "Y",
        "xyz": [1.9834435, 4.03466034916, 10.568290254207]
      },
      {
        "species": [{ "element": "Y", "occu": 1 }],
        "abc": [0.0, 0.07186000000000001, 0.364442999999999],
        "properties": { "magmom": 0.0 },
        "label": "Y",
        "xyz": [0.0, 0.6771866508400001, 4.4555157542069885]
      },
      {
        "species": [{ "element": "Y", "occu": 1 }],
        "abc": [0.5, 0.626863, 0.613456999999999],
        "properties": { "magmom": 0.001 },
        "label": "Y",
        "xyz": [1.9834435, 5.907365091921999, 7.499848612892989]
      },
      {
        "species": [{ "element": "Y", "occu": 1 }],
        "abc": [0.5, 0.373137, 0.386542999999999],
        "properties": { "magmom": 0.001 },
        "label": "Y",
        "xyz": [1.9834435, 3.5163289080779996, 4.725700387106988]
      },
      {
        "species": [{ "element": "Y", "occu": 1 }],
        "abc": [0.0, 0.30507, 0.627664999999999],
        "properties": { "magmom": 0.0 },
        "label": "Y",
        "xyz": [0.0, 2.8748863285799997, 7.673549213084988]
      },
      {
        "species": [{ "element": "Y", "occu": 1 }],
        "abc": [0.0, 0.9281400000000001, 0.635556999999999],
        "properties": { "magmom": 0.0 },
        "label": "Y",
        "xyz": [0.0, 8.74650734916, 7.770033245792989]
      },
      {
        "species": [{ "element": "Y", "occu": 1 }],
        "abc": [0.0, 0.873136999999999, 0.113456999999999],
        "properties": { "magmom": 0.001 },
        "label": "Y",
        "xyz": [0.0, 8.22817590807799, 1.387074112892988]
      },
      {
        "species": [{ "element": "Y", "occu": 1 }],
        "abc": [0.0, 0.69493, 0.37233499999999903],
        "properties": { "magmom": 0.0 },
        "label": "Y",
        "xyz": [0.0, 6.54880767142, 4.551999786914989]
      },
      {
        "species": [{ "element": "Y", "occu": 1 }],
        "abc": [0.5, 0.19493000000000002, 0.127665],
        "properties": { "magmom": 0.0 },
        "label": "Y",
        "xyz": [1.9834435, 1.83696067142, 1.560774713085]
      },
      {
        "species": [{ "element": "Y", "occu": 1 }],
        "abc": [0.5, 0.8050700000000001, 0.872335],
        "properties": { "magmom": 0.0 },
        "label": "Y",
        "xyz": [1.9834435, 7.58673332858, 10.664774286915]
      },
      {
        "species": [{ "element": "Y", "occu": 1 }],
        "abc": [0.0, 0.126863, 0.886543],
        "properties": { "magmom": 0.001 },
        "label": "Y",
        "xyz": [0.0, 1.1955180919219999, 10.838474887107001]
      },
      {
        "species": [{ "element": "Y", "occu": 1 }],
        "abc": [0.5, 0.57186, 0.135556999999999],
        "properties": { "magmom": 0.0 },
        "label": "Y",
        "xyz": [1.9834435, 5.38903365084, 1.657258745792988]
      },
      {
        "species": [{ "element": "Co", "occu": 1 }],
        "abc": [0.5, 0.859962, 0.269312999999999],
        "properties": { "magmom": -0.0 },
        "label": "Co",
        "xyz": [1.9834435, 8.104018739628, 3.2924992778369884]
      },
      {
        "species": [{ "element": "Co", "occu": 1 }],
        "abc": [0.0, 0.616981, 0.962347],
        "properties": { "magmom": 0.0 },
        "label": "Co",
        "xyz": [0.0, 5.814240147814, 11.765220403503001]
      },
      {
        "species": [{ "element": "Co", "occu": 1 }],
        "abc": [0.0, 0.640038, 0.769312999999999],
        "properties": { "magmom": -0.001 },
        "label": "Co",
        "xyz": [0.0, 6.031522260371999, 9.405273777836989]
      },
      {
        "species": [{ "element": "Co", "occu": 1 }],
        "abc": [0.5, 0.116980999999999, 0.537652999999999],
        "properties": { "magmom": 0.0 },
        "label": "Co",
        "xyz": [1.9834435, 1.1023931478139906, 6.573103096496989]
      },
      {
        "species": [{ "element": "Co", "occu": 1 }],
        "abc": [0.0, 0.359962, 0.230687],
        "properties": { "magmom": -0.001 },
        "label": "Co",
        "xyz": [0.0, 3.392171739628, 2.820275222163]
      },
      {
        "species": [{ "element": "Co", "occu": 1 }],
        "abc": [0.5, 0.883019, 0.462346999999999],
        "properties": { "magmom": -0.001 },
        "label": "Co",
        "xyz": [1.9834435, 8.321300852185999, 5.652445903502988]
      },
      {
        "species": [{ "element": "Co", "occu": 1 }],
        "abc": [0.5, 0.140038, 0.730687],
        "properties": { "magmom": -0.0 },
        "label": "Co",
        "xyz": [1.9834435, 1.319675260372, 8.933049722163]
      },
      {
        "species": [{ "element": "Co", "occu": 1 }],
        "abc": [0.0, 0.383019, 0.037653],
        "properties": { "magmom": -0.001 },
        "label": "Co",
        "xyz": [0.0, 3.609453852186, 0.46032859649700003]
      }
    ]
  },
  "task_ids": null,
  "uncorrected_energy_per_atom": null,
  "energy_per_atom": -6.888381492000001,
  "formation_energy_per_atom": -0.129559903999999,
  "energy_above_hull": 0.0108304335,
  "is_stable": false,
  "equilibrium_reaction_energy_per_atom": null,
  "decomposes_to": null,
  "xas": null,
  "grain_boundaries": null,
  "band_gap": 0.0,
  "cbm": null,
  "vbm": null,
  "efermi": 3.6322167,
  "is_gap_direct": null,
  "is_metal": null,
  "es_source_calc_id": null,
  "bandstructure": null,
  "dos": null,
  "dos_energy_up": null,
  "dos_energy_down": null,
  "is_magnetic": null,
  "ordering": null,
  "total_magnetization": 0.0131241,
  "total_magnetization_normalized_vol": null,
  "total_magnetization_normalized_formula_units": null,
  "num_magnetic_sites": null,
  "num_unique_magnetic_sites": null,
  "types_of_magnetic_species": null,
  "bulk_modulus": null,
  "shear_modulus": null,
  "universal_anisotropy": null,
  "homogeneous_poisson": null,
  "e_total": null,
  "e_ionic": null,
  "e_electronic": null,
  "n": null,
  "e_ij_max": null,
  "weighted_surface_energy_EV_PER_ANG2": null,
  "weighted_surface_energy": null,
  "weighted_work_function": null,
  "surface_anisotropy": null,
  "shape_factor": null,
  "has_reconstructed": null,
  "possible_species": null,
  "has_props": null,
  "theoretical": null,
  "database_IDs": null,
  "fields_not_requested": [
    "builder_meta",
    "nsites",
    "elements",
    "nelements",
    "composition",
    "composition_reduced",
    "chemsys",
    "symmetry",
    "property_name",
    "deprecated",
    "deprecation_reasons",
    "last_updated",
    "origins",
    "warnings",
    "task_ids",
    "uncorrected_energy_per_atom",
    "equilibrium_reaction_energy_per_atom",
    "decomposes_to",
    "xas",
    "grain_boundaries",
    "cbm",
    "vbm",
    "is_gap_direct",
    "is_metal",
    "es_source_calc_id",
    "bandstructure",
    "dos",
    "dos_energy_up",
    "dos_energy_down",
    "is_magnetic",
    "ordering",
    "total_magnetization_normalized_vol",
    "total_magnetization_normalized_formula_units",
    "num_magnetic_sites",
    "num_unique_magnetic_sites",
    "types_of_magnetic_species",
    "bulk_modulus",
    "shear_modulus",
    "universal_anisotropy",
    "homogeneous_poisson",
    "e_total",
    "e_ionic",
    "e_electronic",
    "n",
    "e_ij_max",
    "weighted_surface_energy_EV_PER_ANG2",
    "weighted_surface_energy",
    "weighted_work_function",
    "surface_anisotropy",
    "shape_factor",
    "has_reconstructed",
    "possible_species",
    "has_props",
    "theoretical",
    "database_IDs"
  ]
}
