{"builder_meta": null, "nsites": null, "elements": null, "nelements": null, "composition": null, "composition_reduced": null, "formula_pretty": "Y3Er", "formula_anonymous": "AB3", "chemsys": null, "volume": 261.48145061253814, "density": 5.511939860935844, "density_atomic": 32.68518132656727, "symmetry": null, "property_name": null, "material_id": "mp-1187789", "deprecated": null, "deprecation_reasons": null, "last_updated": null, "origins": null, "warnings": null, "structure": {"@module": "pymatgen.core.structure", "@class": "Structure", "charge": 0, "lattice": {"matrix": [[7.32109205, -7.66e-06, -1.149999999999999e-06], [-3.66055275, 6.34026806, 1.48e-06], [-8.9e-07, 8e-07, 5.6332322999999995]], "pbc": [true, true, true], "a": 7.321092050004097, "b": 7.321109581763608, "c": 5.6332323000001265, "alpha": 89.99997684455874, "beta": 90.0000180522694, "gamma": 120.00004150506018, "volume": 261.48145061253814}, "properties": {}, "sites": [{"species": [{"element": "Y", "occu": 1}], "abc": [0.1677083, 0.33541382000000003, 0.24999992000000001], "properties": {"magmom": -0.0}, "label": "Y", "xyz": [7.698160081296726e-06, 2.1266124451829476, 1.4083079278893245]}, {"species": [{"element": "Y", "occu": 1}], "abc": [0.66458854, 0.8322928900000001, 0.25000033], "properties": {"magmom": 0.0}, "label": "Y", "xyz": [1.8188616269198654, 5.276955136284141, 1.4083104014833152]}, {"species": [{"element": "Y", "occu": 1}], "abc": [0.16770661, 0.83229481, 0.24999993], "properties": {"magmom": 0.0}, "label": "Y", "xyz": [-1.8188637488527148, 5.27697111571408, 1.4083087196074562]}, {"species": [{"element": "Y", "occu": 1}], "abc": [0.83226256, 0.66452353, 0.74999989], "properties": {"magmom": 0.0}, "label": "Y", "xyz": [3.6605467088475385, 4.213251537246154, 4.224923631737328]}, {"species": [{"element": "Y", "occu": 1}], "abc": [0.3354758, 0.16773604, 0.74999992], "properties": {"magmom": -0.0}, "label": "Y", "xyz": [1.8420419223513511, 1.0634894871781904, 4.224923636793585]}, {"species": [{"element": "Y", "occu": 1}], "abc": [0.8322605, 0.16773739000000001, 0.74999997], "properties": {"magmom": -0.0}, "label": "Y", "xyz": [5.479043498336728, 1.0634942411693094, 4.2249233471547925]}, {"species": [{"element": "Er", "occu": 1}], "abc": [0.33333197000000003, 0.66666829, 0.75], "properties": {"magmom": -0.0}, "label": "Er", "xyz": [-2.107421945913175e-05, 4.226853712378928, 4.224924828337303]}, {"species": [{"element": "Er", "occu": 1}], "abc": [0.66666771, 0.33333522, 0.25000003], "properties": {"magmom": 0.0}, "label": "Er", "xyz": [3.6605442929298238, 2.1134297419644383, 1.408307970665228]}]}, "task_ids": null, "uncorrected_energy_per_atom": null, "energy_per_atom": -23.67927654875, "formation_energy_per_atom": 0.037282962916666, "energy_above_hull": 0.037282962916666, "is_stable": false, "equilibrium_reaction_energy_per_atom": null, "decomposes_to": null, "xas": null, "grain_boundaries": null, "band_gap": 0.0, "cbm": null, "vbm": null, "efermi": 3.01363578, "is_gap_direct": null, "is_metal": null, "es_source_calc_id": null, "bandstructure": null, "dos": null, "dos_energy_up": null, "dos_energy_down": null, "is_magnetic": null, "ordering": null, "total_magnetization": 7.699999999999999e-06, "total_magnetization_normalized_vol": null, "total_magnetization_normalized_formula_units": null, "num_magnetic_sites": null, "num_unique_magnetic_sites": null, "types_of_magnetic_species": null, "bulk_modulus": null, "shear_modulus": null, "universal_anisotropy": null, "homogeneous_poisson": null, "e_total": null, "e_ionic": null, "e_electronic": null, "n": null, "e_ij_max": null, "weighted_surface_energy_EV_PER_ANG2": null, "weighted_surface_energy": null, "weighted_work_function": null, "surface_anisotropy": null, "shape_factor": null, "has_reconstructed": null, "possible_species": null, "has_props": null, "theoretical": null, "database_IDs": null, "fields_not_requested": ["builder_meta", "nsites", "elements", "nelements", "composition", "composition_reduced", "chemsys", "symmetry", "property_name", "deprecated", "deprecation_reasons", "last_updated", "origins", "warnings", "task_ids", "uncorrected_energy_per_atom", "equilibrium_reaction_energy_per_atom", "decomposes_to", "xas", "grain_boundaries", "cbm", "vbm", "is_gap_direct", "is_metal", "es_source_calc_id", "bandstructure", "dos", "dos_energy_up", "dos_energy_down", "is_magnetic", "ordering", "total_magnetization_normalized_vol", "total_magnetization_normalized_formula_units", "num_magnetic_sites", "num_unique_magnetic_sites", "types_of_magnetic_species", "bulk_modulus", "shear_modulus", "universal_anisotropy", "homogeneous_poisson", "e_total", "e_ionic", "e_electronic", "n", "e_ij_max", "weighted_surface_energy_EV_PER_ANG2", "weighted_surface_energy", "weighted_work_function", "surface_anisotropy", "shape_factor", "has_reconstructed", "possible_species", "has_props", "theoretical", "database_IDs"]}