{"builder_meta": null, "nsites": null, "elements": null, "nelements": null, "composition": null, "composition_reduced": null, "formula_pretty": "Y3Ge", "formula_anonymous": "AB3", "chemsys": null, "volume": 208.38092503935275, "density": 5.408522581558198, "density_atomic": 26.047615629919093, "symmetry": null, "property_name": null, "material_id": "mp-1187802", "deprecated": null, "deprecation_reasons": null, "last_updated": null, "origins": null, "warnings": null, "structure": {"@module": "pymatgen.core.structure", "@class": "Structure", "charge": 0, "lattice": {"matrix": [[3.36272, -5.824402, 0.0], [3.36272, 5.824402, 0.0], [0.0, 0.0, 5.319685]], "pbc": [true, true, true], "a": 6.725440093852892, "b": 6.725440093852892, "c": 5.319685, "alpha": 90.0, "beta": 90.0, "gamma": 120.0000009232492, "volume": 208.38092503935275}, "properties": {}, "sites": [{"species": [{"element": "Y", "occu": 1}], "abc": [0.17394199999999901, 0.347883999999999, 0.25], "properties": {"magmom": 0.125}, "label": "Y", "xyz": [1.7547547267199932, 1.0131081326840001, 1.32992125]}, {"species": [{"element": "Y", "occu": 1}], "abc": [0.652115999999999, 0.826058, 0.25], "properties": {"magmom": 0.125}, "label": "Y", "xyz": [4.970685273279996, 1.013108132684005, 1.32992125]}, {"species": [{"element": "Y", "occu": 1}], "abc": [0.17394199999999901, 0.826058, 0.25], "properties": {"magmom": 0.125}, "label": "Y", "xyz": [3.3627199999999964, 3.798185734632005, 1.32992125]}, {"species": [{"element": "Y", "occu": 1}], "abc": [0.826058, 0.652115999999999, 0.75], "properties": {"magmom": 0.125}, "label": "Y", "xyz": [4.970685273279996, -1.013108132684005, 3.98976375]}, {"species": [{"element": "Y", "occu": 1}], "abc": [0.347883999999999, 0.17394199999999901, 0.75], "properties": {"magmom": 0.125}, "label": "Y", "xyz": [1.7547547267199932, -1.0131081326840001, 3.98976375]}, {"species": [{"element": "Y", "occu": 1}], "abc": [0.826058, 0.17394199999999901, 0.75], "properties": {"magmom": 0.125}, "label": "Y", "xyz": [3.3627199999999964, -3.798185734632005, 3.98976375]}, {"species": [{"element": "Ge", "occu": 1}], "abc": [0.333333, 0.666667, 0.75], "properties": {"magmom": -0.008}, "label": "Ge", "xyz": [3.36272, 1.9414712162680001, 3.98976375]}, {"species": [{"element": "Ge", "occu": 1}], "abc": [0.666667, 0.333333, 0.25], "properties": {"magmom": -0.008}, "label": "Ge", "xyz": [3.36272, -1.9414712162680001, 1.32992125]}]}, "task_ids": null, "uncorrected_energy_per_atom": null, "energy_per_atom": -19.065663928055557, "formation_energy_per_atom": -0.362468813055556, "energy_above_hull": 0.257048248194443, "is_stable": false, "equilibrium_reaction_energy_per_atom": null, "decomposes_to": null, "xas": null, "grain_boundaries": null, "band_gap": 0.0, "cbm": null, "vbm": null, "efermi": 4.39853733, "is_gap_direct": null, "is_metal": null, "es_source_calc_id": null, "bandstructure": null, "dos": null, "dos_energy_up": null, "dos_energy_down": null, "is_magnetic": null, "ordering": null, "total_magnetization": 1.2077357, "total_magnetization_normalized_vol": null, "total_magnetization_normalized_formula_units": null, "num_magnetic_sites": null, "num_unique_magnetic_sites": null, "types_of_magnetic_species": null, "bulk_modulus": null, "shear_modulus": null, "universal_anisotropy": null, "homogeneous_poisson": null, "e_total": null, "e_ionic": null, "e_electronic": null, "n": null, "e_ij_max": null, "weighted_surface_energy_EV_PER_ANG2": null, "weighted_surface_energy": null, "weighted_work_function": null, "surface_anisotropy": null, "shape_factor": null, "has_reconstructed": null, "possible_species": null, "has_props": null, "theoretical": null, "database_IDs": null, "fields_not_requested": ["builder_meta", "nsites", "elements", "nelements", "composition", "composition_reduced", "chemsys", "symmetry", "property_name", "deprecated", "deprecation_reasons", "last_updated", "origins", "warnings", "task_ids", "uncorrected_energy_per_atom", "equilibrium_reaction_energy_per_atom", "decomposes_to", "xas", "grain_boundaries", "cbm", "vbm", "is_gap_direct", "is_metal", "es_source_calc_id", "bandstructure", "dos", "dos_energy_up", "dos_energy_down", "is_magnetic", "ordering", "total_magnetization_normalized_vol", "total_magnetization_normalized_formula_units", "num_magnetic_sites", "num_unique_magnetic_sites", "types_of_magnetic_species", "bulk_modulus", "shear_modulus", "universal_anisotropy", "homogeneous_poisson", "e_total", "e_ionic", "e_electronic", "n", "e_ij_max", "weighted_surface_energy_EV_PER_ANG2", "weighted_surface_energy", "weighted_work_function", "surface_anisotropy", "shape_factor", "has_reconstructed", "possible_species", "has_props", "theoretical", "database_IDs"]}