{"builder_meta": null, "nsites": null, "elements": null, "nelements": null, "composition": null, "composition_reduced": null, "formula_pretty": "Y3Ge4", "formula_anonymous": "A3B4", "chemsys": null, "volume": 309.835984100435, "density": 5.973361327935154, "density_atomic": 22.13114172145964, "symmetry": null, "property_name": null, "material_id": "mp-17381", "deprecated": null, "deprecation_reasons": null, "last_updated": null, "origins": null, "warnings": null, "structure": {"@module": "pymatgen.core.structure", "@class": "Structure", "charge": 0, "lattice": {"matrix": [[4.07225758, -0.0, -0.0], [-2.0361293, 5.33335933, 0.0], [0.0, 0.0, 14.26578813]], "pbc": [true, true, true], "a": 4.07225758, "b": 5.708812859887469, "c": 14.26578813, "alpha": 90.0, "beta": 90.0, "gamma": 110.89547525464161, "volume": 309.835984100435}, "properties": {}, "sites": [{"species": [{"element": "Y", "occu": 1}], "abc": [0.9541277300000001, 0.90825446, 0.25], "properties": {"magmom": -0.0}, "label": "Y", "xyz": [2.0361303629190157, 4.844047398255112, 3.5664470325]}, {"species": [{"element": "Y", "occu": 1}], "abc": [0.04587227, 0.09174554, 0.75], "properties": {"magmom": -0.0}, "label": "Y", "xyz": [-2.082919015405915e-06, 0.48931193174488824, 10.6993410975]}, {"species": [{"element": "Y", "occu": 1}], "abc": [0.33068839, 0.66137779, 0.59640305], "properties": {"magmom": -0.0}, "label": "Y", "xyz": [-2.393792750687851e-06, 3.5273654069512808, 8.508159551385798]}, {"species": [{"element": "Y", "occu": 1}], "abc": [0.6693116100000001, 0.33862221000000003, 0.40359695], "properties": {"magmom": -0.0}, "label": "Y", "xyz": [2.0361306737927505, 1.8059939230487196, 5.757628578614204]}, {"species": [{"element": "Y", "occu": 1}], "abc": [0.6693116100000001, 0.33862221000000003, 0.09640305], "properties": {"magmom": -0.0}, "label": "Y", "xyz": [2.0361306737927505, 1.8059939230487196, 1.3752654863857967]}, {"species": [{"element": "Y", "occu": 1}], "abc": [0.33068839, 0.66137779, 0.9035969500000001], "properties": {"magmom": -0.0}, "label": "Y", "xyz": [-2.393792750687851e-06, 3.5273654069512808, 12.890522643614204]}, {"species": [{"element": "Ge", "occu": 1}], "abc": [0.22737644, 0.45475288, 0.25], "properties": {"magmom": 0.0}, "label": "Ge", "xyz": [-2.3192396880755695e-07, 2.4253605153923705, 3.5664470325]}, {"species": [{"element": "Ge", "occu": 1}], "abc": [0.77262356, 0.54524712, 0.75], "properties": {"magmom": 0.0}, "label": "Ge", "xyz": [2.0361285119239687, 2.90799881460763, 10.6993410975]}, {"species": [{"element": "Ge", "occu": 1}], "abc": [0.0, 0.0, 0.5], "properties": {"magmom": 0.0}, "label": "Ge", "xyz": [0.0, 0.0, 7.132894065]}, {"species": [{"element": "Ge", "occu": 1}], "abc": [0.0, 0.0, -0.0], "properties": {"magmom": 0.0}, "label": "Ge", "xyz": [0.0, 0.0, 0.0]}, {"species": [{"element": "Ge", "occu": 1}], "abc": [0.37996205, 0.75992509, 0.39095572], "properties": {"magmom": 0.0}, "label": "Ge", "xyz": [-2.403329297795409e-06, 4.0529535688525895, 5.577291469731604]}, {"species": [{"element": "Ge", "occu": 1}], "abc": [0.6200379500000001, 0.24007491, 0.60904328], "properties": {"magmom": 0.0}, "label": "Ge", "xyz": [2.036130683329298, 1.2804057611474104, 8.688482394480266]}, {"species": [{"element": "Ge", "occu": 1}], "abc": [0.37996205, 0.75992509, 0.10904328], "properties": {"magmom": 0.0}, "label": "Ge", "xyz": [-2.403329297795409e-06, 4.0529535688525895, 1.5555883294802666]}, {"species": [{"element": "Ge", "occu": 1}], "abc": [0.6200379500000001, 0.24007491, 0.89095672], "properties": {"magmom": 0.0}, "label": "Ge", "xyz": [2.036130683329298, 1.2804057611474104, 12.710199800519735]}]}, "task_ids": null, "uncorrected_energy_per_atom": null, "energy_per_atom": -17.502243342857145, "formation_energy_per_atom": -0.8695700285714311, "energy_above_hull": 0.0, "is_stable": true, "equilibrium_reaction_energy_per_atom": null, "decomposes_to": null, "xas": null, "grain_boundaries": null, "band_gap": 0.0, "cbm": null, "vbm": null, "efermi": 5.17782475, "is_gap_direct": null, "is_metal": null, "es_source_calc_id": null, "bandstructure": null, "dos": null, "dos_energy_up": null, "dos_energy_down": null, "is_magnetic": null, "ordering": null, "total_magnetization": 0.0, "total_magnetization_normalized_vol": null, "total_magnetization_normalized_formula_units": null, "num_magnetic_sites": null, "num_unique_magnetic_sites": null, "types_of_magnetic_species": null, "bulk_modulus": null, "shear_modulus": null, "universal_anisotropy": null, "homogeneous_poisson": null, "e_total": null, "e_ionic": null, "e_electronic": null, "n": null, "e_ij_max": null, "weighted_surface_energy_EV_PER_ANG2": null, "weighted_surface_energy": null, "weighted_work_function": null, "surface_anisotropy": null, "shape_factor": null, "has_reconstructed": null, "possible_species": null, "has_props": null, "theoretical": null, "database_IDs": null, "fields_not_requested": ["builder_meta", "nsites", "elements", "nelements", "composition", "composition_reduced", "chemsys", "symmetry", "property_name", "deprecated", "deprecation_reasons", "last_updated", "origins", "warnings", "task_ids", "uncorrected_energy_per_atom", "equilibrium_reaction_energy_per_atom", "decomposes_to", "xas", "grain_boundaries", "cbm", "vbm", "is_gap_direct", "is_metal", "es_source_calc_id", "bandstructure", "dos", "dos_energy_up", "dos_energy_down", "is_magnetic", "ordering", "total_magnetization_normalized_vol", "total_magnetization_normalized_formula_units", "num_magnetic_sites", "num_unique_magnetic_sites", "types_of_magnetic_species", "bulk_modulus", "shear_modulus", "universal_anisotropy", "homogeneous_poisson", "e_total", "e_ionic", "e_electronic", "n", "e_ij_max", "weighted_surface_energy_EV_PER_ANG2", "weighted_surface_energy", "weighted_work_function", "surface_anisotropy", "shape_factor", "has_reconstructed", "possible_species", "has_props", "theoretical", "database_IDs"]}