{"builder_meta": null, "nsites": null, "elements": null, "nelements": null, "composition": null, "composition_reduced": null, "formula_pretty": "Y3Ge5", "formula_anonymous": "A3B5", "chemsys": null, "volume": 344.1825517760494, "density": 6.078185515880337, "density_atomic": 21.51140948600309, "symmetry": null, "property_name": null, "material_id": "mp-17118", "deprecated": null, "deprecation_reasons": null, "last_updated": null, "origins": null, "warnings": null, "structure": {"@module": "pymatgen.core.structure", "@class": "Structure", "charge": 0, "lattice": {"matrix": [[5.47426176, -1e-08, 1.81989658], [2.73712986, 6.86991439, 0.9099488], [-0.00259321, 1e-08, 9.15105262]], "pbc": [true, true, true], "a": 5.768844371179898, "b": 7.4508798416733395, "c": 9.15105298742975, "alpha": 82.99117318269235, "beta": 71.62705468205748, "gamma": 67.22427773193698, "volume": 344.1825517760494}, "properties": {}, "sites": [{"species": [{"element": "Y", "occu": 1}], "abc": [0.745973, 0.508052, 0.5], "properties": {"magmom": 0.0}, "label": "Y", "xyz": [5.4729591625252, 3.4902737432085496, 6.39542132920994]}, {"species": [{"element": "Y", "occu": 1}], "abc": [0.495973, 0.008052, -0.0], "properties": {"magmom": 0.0}, "label": "Y", "xyz": [2.7371253975252, 0.05531654570855, 0.90994647420994]}, {"species": [{"element": "Y", "occu": 1}], "abc": [0.15654932, 0.99325523, 0.66576375], "properties": {"magmom": -0.0}, "label": "Y", "xyz": [3.5739340394500334, 6.823578402611903, 7.2811540854400745]}, {"species": [{"element": "Y", "occu": 1}], "abc": [0.85019545, 0.99325523, 0.33423625], "properties": {"magmom": -0.0}, "label": "Y", "xyz": [7.371994244309298, 6.823578392360168, 5.50969270768026]}, {"species": [{"element": "Y", "occu": 1}], "abc": [0.4344307, 0.49325523, 0.16576375000000002], "properties": {"magmom": -0.0}, "label": "Y", "xyz": [3.727861126800062, 3.38862119983309, 2.756368748547755]}, {"species": [{"element": "Y", "occu": 1}], "abc": [0.07231507, 0.49325523, 0.83423625], "properties": {"magmom": -0.0}, "label": "Y", "xyz": [1.7438118912210285, 3.388621210138971, 8.214582774469159]}, {"species": [{"element": "Ge", "occu": 1}], "abc": [0.40570818000000003, 0.6974005400000001, 0.87083266], "properties": {"magmom": 0.0}, "label": "Ge", "xyz": [4.127570365945083, 4.791082009991015, 9.341981208626946]}, {"species": [{"element": "Ge", "occu": 1}], "abc": [0.89689227, 0.6974005400000001, 0.12916734], "properties": {"magmom": 0.0}, "label": "Ge", "xyz": [6.818363940876958, 4.791081997662522, 3.44886708441922]}, {"species": [{"element": "Ge", "occu": 1}], "abc": [0.27605762, 0.19740054, 0.37083266], "properties": {"magmom": 0.0}, "label": "Ge", "xyz": [2.050560938174497, 1.356124811287521, 4.0755298878878605]}, {"species": [{"element": "Ge", "occu": 1}], "abc": [0.52654084, 0.19740054, 0.62916734], "properties": {"magmom": 0.0}, "label": "Ge", "xyz": [3.4211017348666415, 1.3561248113660358, 6.895417693564109]}, {"species": [{"element": "Ge", "occu": 1}], "abc": [0.66846254, 0.33564669, 0.82529672], "properties": {"magmom": -0.0}, "label": "Ge", "xyz": [4.575907330616364, 2.305864027155211, 9.074287705026991]}, {"species": [{"element": "Ge", "occu": 1}], "abc": [0.99589077, 0.33564669, 0.17470328000000002], "properties": {"magmom": -0.0}, "label": "Ge", "xyz": [6.37002229466439, 2.305864017374994, 3.7165584173326325]}, {"species": [{"element": "Ge", "occu": 1}], "abc": [0.93842846, 0.12314508, 0.0], "properties": {"magmom": -0.0}, "label": "Ge", "xyz": [5.474267108653779, 0.8459961477654167, 1.8198984627005708]}, {"species": [{"element": "Ge", "occu": 1}], "abc": [0.18842846, 0.62314508, 0.5], "properties": {"magmom": -0.0}, "label": "Ge", "xyz": [2.7358391136537787, 4.280953355265417, 5.485476737700571]}, {"species": [{"element": "Ge", "occu": 1}], "abc": [0.74375926, 0.83564669, 0.67470328], "properties": {"magmom": -0.0}, "label": "Ge", "xyz": [6.357056735980333, 5.74082121989631, 8.288205854573397]}, {"species": [{"element": "Ge", "occu": 1}], "abc": [0.42059505, 0.83564669, 0.32529672], "properties": {"magmom": -0.0}, "label": "Ge", "xyz": [4.588877343562181, 5.740821219633886, 4.502642597682807]}]}, "task_ids": null, "uncorrected_energy_per_atom": null, "energy_per_atom": -17.062905376875, "formation_energy_per_atom": -0.7753190293750051, "energy_above_hull": 0.0, "is_stable": true, "equilibrium_reaction_energy_per_atom": null, "decomposes_to": null, "xas": null, "grain_boundaries": null, "band_gap": 0.0, "cbm": null, "vbm": null, "efermi": 5.4681109900000004, "is_gap_direct": null, "is_metal": null, "es_source_calc_id": null, "bandstructure": null, "dos": null, "dos_energy_up": null, "dos_energy_down": null, "is_magnetic": null, "ordering": null, "total_magnetization": 6e-07, "total_magnetization_normalized_vol": null, "total_magnetization_normalized_formula_units": null, "num_magnetic_sites": null, "num_unique_magnetic_sites": null, "types_of_magnetic_species": null, "bulk_modulus": null, "shear_modulus": null, "universal_anisotropy": null, "homogeneous_poisson": null, "e_total": null, "e_ionic": null, "e_electronic": null, "n": null, "e_ij_max": null, "weighted_surface_energy_EV_PER_ANG2": null, "weighted_surface_energy": null, "weighted_work_function": null, "surface_anisotropy": null, "shape_factor": null, "has_reconstructed": null, "possible_species": null, "has_props": null, "theoretical": null, "database_IDs": null, "fields_not_requested": ["builder_meta", "nsites", "elements", "nelements", "composition", "composition_reduced", "chemsys", "symmetry", "property_name", "deprecated", "deprecation_reasons", "last_updated", "origins", "warnings", "task_ids", "uncorrected_energy_per_atom", "equilibrium_reaction_energy_per_atom", "decomposes_to", "xas", "grain_boundaries", "cbm", "vbm", "is_gap_direct", "is_metal", "es_source_calc_id", "bandstructure", "dos", "dos_energy_up", "dos_energy_down", "is_magnetic", "ordering", "total_magnetization_normalized_vol", "total_magnetization_normalized_formula_units", "num_magnetic_sites", "num_unique_magnetic_sites", "types_of_magnetic_species", "bulk_modulus", "shear_modulus", "universal_anisotropy", "homogeneous_poisson", "e_total", "e_ionic", "e_electronic", "n", "e_ij_max", "weighted_surface_energy_EV_PER_ANG2", "weighted_surface_energy", "weighted_work_function", "surface_anisotropy", "shape_factor", "has_reconstructed", "possible_species", "has_props", "theoretical", "database_IDs"]}