{
  "builder_meta": null,
  "nsites": null,
  "elements": null,
  "nelements": null,
  "composition": null,
  "composition_reduced": null,
  "formula_pretty": "Y3H",
  "formula_anonymous": "AB3",
  "chemsys": null,
  "volume": 410.02961080152846,
  "density": 4.336941757943599,
  "density_atomic": 25.62685067509553,
  "symmetry": null,
  "property_name": null,
  "material_id": "mp-1205301",
  "deprecated": null,
  "deprecation_reasons": null,
  "last_updated": null,
  "origins": null,
  "warnings": null,
  "structure": {
    "@module": "pymatgen.core.structure",
    "@class": "Structure",
    "charge": 0,
    "lattice": {
      "matrix": [
        [3.68261143, 0.0, 0.0],
        [0.0, 6.34993332, 0.0],
        [0.0, 0.0, 17.53436971]
      ],
      "pbc": [true, true, true],
      "a": 3.68261143,
      "b": 6.34993332,
      "c": 17.53436971,
      "alpha": 90.0,
      "beta": 90.0,
      "gamma": 90.0,
      "volume": 410.02961080152846
    },
    "properties": {},
    "sites": [
      {
        "species": [{ "element": "Y", "occu": 1 }],
        "abc": [0.0, 0.6647866100000001, 0.40922571],
        "properties": { "magmom": -0.032 },
        "label": "Y",
        "xyz": [0.0, 4.221350645528846, 7.175514893977245]
      },
      {
        "species": [{ "element": "Y", "occu": 1 }],
        "abc": [0.0, 0.33521339, 0.59077429],
        "properties": { "magmom": -0.032 },
        "label": "Y",
        "xyz": [0.0, 2.1285826744711547, 10.358854816022756]
      },
      {
        "species": [{ "element": "Y", "occu": 1 }],
        "abc": [-0.0, 0.6647866100000001, 0.09077429000000001],
        "properties": { "magmom": -0.032 },
        "label": "Y",
        "xyz": [0.0, 4.221350645528846, 1.591669961022756]
      },
      {
        "species": [{ "element": "Y", "occu": 1 }],
        "abc": [-0.0, 0.33521339, 0.90922571],
        "properties": { "magmom": -0.032 },
        "label": "Y",
        "xyz": [0.0, 2.1285826744711547, 15.942699748977244]
      },
      {
        "species": [{ "element": "Y", "occu": 1 }],
        "abc": [0.0, 0.32677154, 0.25],
        "properties": { "magmom": 0.23 },
        "label": "Y",
        "xyz": [0.0, 2.0749774898737128, 4.3835924275]
      },
      {
        "species": [{ "element": "Y", "occu": 1 }],
        "abc": [0.0, 0.67322846, 0.75],
        "properties": { "magmom": 0.23 },
        "label": "Y",
        "xyz": [0.0, 4.274955830126287, 13.1507772825]
      },
      {
        "species": [{ "element": "Y", "occu": 1 }],
        "abc": [0.5, 0.17354686, 0.41823717],
        "properties": { "magmom": -0.036000000000000004 },
        "label": "Y",
        "xyz": [1.841305715, 1.102010988895375, 7.3335251652441205]
      },
      {
        "species": [{ "element": "Y", "occu": 1 }],
        "abc": [0.5, 0.82645314, 0.5817628300000001],
        "properties": { "magmom": -0.036000000000000004 },
        "label": "Y",
        "xyz": [1.841305715, 5.247922331104625, 10.20084454475588]
      },
      {
        "species": [{ "element": "Y", "occu": 1 }],
        "abc": [0.5, 0.17354686, 0.08176283000000001],
        "properties": { "magmom": -0.036000000000000004 },
        "label": "Y",
        "xyz": [1.841305715, 1.102010988895375, 1.4336596897558795]
      },
      {
        "species": [{ "element": "Y", "occu": 1 }],
        "abc": [0.5, 0.82645314, 0.91823717],
        "properties": { "magmom": -0.036000000000000004 },
        "label": "Y",
        "xyz": [1.841305715, 5.247922331104625, 16.100710020244122]
      },
      {
        "species": [{ "element": "Y", "occu": 1 }],
        "abc": [0.5, 0.83563361, 0.25],
        "properties": { "magmom": 0.248 },
        "label": "Y",
        "xyz": [1.841305715, 5.306217703450885, 4.3835924275]
      },
      {
        "species": [{ "element": "Y", "occu": 1 }],
        "abc": [0.5, 0.16436639, 0.75],
        "properties": { "magmom": 0.248 },
        "label": "Y",
        "xyz": [1.841305715, 1.0437156165491148, 13.1507772825]
      },
      {
        "species": [{ "element": "H", "occu": 1 }],
        "abc": [0.0, 0.33032465, 0.37969983],
        "properties": { "magmom": 0.001 },
        "label": "H",
        "xyz": [0.0, 2.097539501452338, 6.6577971980441495]
      },
      {
        "species": [{ "element": "H", "occu": 1 }],
        "abc": [0.0, 0.66967535, 0.62030017],
        "properties": { "magmom": 0.001 },
        "label": "H",
        "xyz": [0.0, 4.252393818547662, 10.876572511955851]
      },
      {
        "species": [{ "element": "H", "occu": 1 }],
        "abc": [0.0, 0.33032465, 0.12030017],
        "properties": { "magmom": 0.001 },
        "label": "H",
        "xyz": [0.0, 2.097539501452338, 2.1093876569558505]
      },
      {
        "species": [{ "element": "H", "occu": 1 }],
        "abc": [0.0, 0.66967535, 0.8796998300000001],
        "properties": { "magmom": 0.001 },
        "label": "H",
        "xyz": [0.0, 4.252393818547662, 15.42498205304415]
      }
    ]
  },
  "task_ids": null,
  "uncorrected_energy_per_atom": null,
  "energy_per_atom": -16.380586365,
  "formation_energy_per_atom": -0.28160754468749905,
  "energy_above_hull": 0.018253704999999003,
  "is_stable": false,
  "equilibrium_reaction_energy_per_atom": null,
  "decomposes_to": null,
  "xas": null,
  "grain_boundaries": null,
  "band_gap": 0.0,
  "cbm": null,
  "vbm": null,
  "efermi": 3.01604299,
  "is_gap_direct": null,
  "is_metal": null,
  "es_source_calc_id": null,
  "bandstructure": null,
  "dos": null,
  "dos_energy_up": null,
  "dos_energy_down": null,
  "is_magnetic": null,
  "ordering": null,
  "total_magnetization": 1.1544745,
  "total_magnetization_normalized_vol": null,
  "total_magnetization_normalized_formula_units": null,
  "num_magnetic_sites": null,
  "num_unique_magnetic_sites": null,
  "types_of_magnetic_species": null,
  "bulk_modulus": null,
  "shear_modulus": null,
  "universal_anisotropy": null,
  "homogeneous_poisson": null,
  "e_total": null,
  "e_ionic": null,
  "e_electronic": null,
  "n": null,
  "e_ij_max": null,
  "weighted_surface_energy_EV_PER_ANG2": null,
  "weighted_surface_energy": null,
  "weighted_work_function": null,
  "surface_anisotropy": null,
  "shape_factor": null,
  "has_reconstructed": null,
  "possible_species": null,
  "has_props": null,
  "theoretical": null,
  "database_IDs": null,
  "fields_not_requested": [
    "builder_meta",
    "nsites",
    "elements",
    "nelements",
    "composition",
    "composition_reduced",
    "chemsys",
    "symmetry",
    "property_name",
    "deprecated",
    "deprecation_reasons",
    "last_updated",
    "origins",
    "warnings",
    "task_ids",
    "uncorrected_energy_per_atom",
    "equilibrium_reaction_energy_per_atom",
    "decomposes_to",
    "xas",
    "grain_boundaries",
    "cbm",
    "vbm",
    "is_gap_direct",
    "is_metal",
    "es_source_calc_id",
    "bandstructure",
    "dos",
    "dos_energy_up",
    "dos_energy_down",
    "is_magnetic",
    "ordering",
    "total_magnetization_normalized_vol",
    "total_magnetization_normalized_formula_units",
    "num_magnetic_sites",
    "num_unique_magnetic_sites",
    "types_of_magnetic_species",
    "bulk_modulus",
    "shear_modulus",
    "universal_anisotropy",
    "homogeneous_poisson",
    "e_total",
    "e_ionic",
    "e_electronic",
    "n",
    "e_ij_max",
    "weighted_surface_energy_EV_PER_ANG2",
    "weighted_surface_energy",
    "weighted_work_function",
    "surface_anisotropy",
    "shape_factor",
    "has_reconstructed",
    "possible_species",
    "has_props",
    "theoretical",
    "database_IDs"
  ]
}
