{"builder_meta": null, "nsites": null, "elements": null, "nelements": null, "composition": null, "composition_reduced": null, "formula_pretty": "Y3H2", "formula_anonymous": "A2B3", "chemsys": null, "volume": 207.02528523111116, "density": 4.3109937853075, "density_atomic": 20.702528523111116, "symmetry": null, "property_name": null, "material_id": "mp-569037", "deprecated": null, "deprecation_reasons": null, "last_updated": null, "origins": null, "warnings": null, "structure": {"@module": "pymatgen.core.structure", "@class": "Structure", "charge": 0, "lattice": {"matrix": [[1.85049197, -3.20514743, -0.0], [1.85049197, 3.20514743, 0.0], [-0.0, -0.0, 17.45252144]], "pbc": [true, true, true], "a": 3.7009850822544643, "b": 3.7009850822544643, "c": 17.45252144, "alpha": 90.0, "beta": 90.0, "gamma": 120.00002041914288, "volume": 207.02528523111116}, "properties": {}, "sites": [{"species": [{"element": "Y", "occu": 1}], "abc": [0.666667, 0.333333, 0.41154807], "properties": {"magmom": -0.0}, "label": "Y", "xyz": [1.8504919699999998, -1.06838461343162, 7.182551515265621]}, {"species": [{"element": "Y", "occu": 1}], "abc": [0.333333, 0.666667, 0.91154807], "properties": {"magmom": -0.0}, "label": "Y", "xyz": [1.8504919699999998, 1.06838461343162, 15.908812235265623]}, {"species": [{"element": "Y", "occu": 1}], "abc": [0.333333, 0.666667, 0.25], "properties": {"magmom": -0.0}, "label": "Y", "xyz": [1.8504919699999998, 1.06838461343162, 4.36313036]}, {"species": [{"element": "Y", "occu": 1}], "abc": [0.666667, 0.333333, 0.08845193], "properties": {"magmom": -0.0}, "label": "Y", "xyz": [1.8504919699999998, -1.06838461343162, 1.5437092047343792]}, {"species": [{"element": "Y", "occu": 1}], "abc": [0.333333, 0.666667, 0.5884519300000001], "properties": {"magmom": -0.0}, "label": "Y", "xyz": [1.8504919699999998, 1.06838461343162, 10.269969924734381]}, {"species": [{"element": "Y", "occu": 1}], "abc": [0.666667, 0.333333, 0.75], "properties": {"magmom": -0.0}, "label": "Y", "xyz": [1.8504919699999998, -1.06838461343162, 13.089391080000002]}, {"species": [{"element": "H", "occu": 1}], "abc": [0.333333, 0.666667, 0.11995383], "properties": {"magmom": 0.0}, "label": "H", "xyz": [1.8504919699999998, 1.06838461343162, 2.0934967898851156]}, {"species": [{"element": "H", "occu": 1}], "abc": [0.333333, 0.666667, 0.38004617], "properties": {"magmom": 0.0}, "label": "H", "xyz": [1.8504919699999998, 1.06838461343162, 6.632763930114885]}, {"species": [{"element": "H", "occu": 1}], "abc": [0.666667, 0.333333, 0.8800461700000001], "properties": {"magmom": 0.0}, "label": "H", "xyz": [1.8504919699999998, -1.06838461343162, 15.359024650114888]}, {"species": [{"element": "H", "occu": 1}], "abc": [0.666667, 0.333333, 0.61995383], "properties": {"magmom": 0.0}, "label": "H", "xyz": [1.8504919699999998, -1.06838461343162, 10.819757509885116]}]}, "task_ids": null, "uncorrected_energy_per_atom": null, "energy_per_atom": -14.031476547, "formation_energy_per_atom": -0.461271010500001, "energy_above_hull": 0.018506988999996, "is_stable": false, "equilibrium_reaction_energy_per_atom": null, "decomposes_to": null, "xas": null, "grain_boundaries": null, "band_gap": 0.0, "cbm": null, "vbm": null, "efermi": 3.167320499999999, "is_gap_direct": null, "is_metal": null, "es_source_calc_id": null, "bandstructure": null, "dos": null, "dos_energy_up": null, "dos_energy_down": null, "is_magnetic": null, "ordering": null, "total_magnetization": 6.3e-06, "total_magnetization_normalized_vol": null, "total_magnetization_normalized_formula_units": null, "num_magnetic_sites": null, "num_unique_magnetic_sites": null, "types_of_magnetic_species": null, "bulk_modulus": null, "shear_modulus": null, "universal_anisotropy": null, "homogeneous_poisson": null, "e_total": null, "e_ionic": null, "e_electronic": null, "n": null, "e_ij_max": null, "weighted_surface_energy_EV_PER_ANG2": null, "weighted_surface_energy": null, "weighted_work_function": null, "surface_anisotropy": null, "shape_factor": null, "has_reconstructed": null, "possible_species": null, "has_props": null, "theoretical": null, "database_IDs": null, "fields_not_requested": ["builder_meta", "nsites", "elements", "nelements", "composition", "composition_reduced", "chemsys", "symmetry", "property_name", "deprecated", "deprecation_reasons", "last_updated", "origins", "warnings", "task_ids", "uncorrected_energy_per_atom", "equilibrium_reaction_energy_per_atom", "decomposes_to", "xas", "grain_boundaries", "cbm", "vbm", "is_gap_direct", "is_metal", "es_source_calc_id", "bandstructure", "dos", "dos_energy_up", "dos_energy_down", "is_magnetic", "ordering", "total_magnetization_normalized_vol", "total_magnetization_normalized_formula_units", "num_magnetic_sites", "num_unique_magnetic_sites", "types_of_magnetic_species", "bulk_modulus", "shear_modulus", "universal_anisotropy", "homogeneous_poisson", "e_total", "e_ionic", "e_electronic", "n", "e_ij_max", "weighted_surface_energy_EV_PER_ANG2", "weighted_surface_energy", "weighted_work_function", "surface_anisotropy", "shape_factor", "has_reconstructed", "possible_species", "has_props", "theoretical", "database_IDs"]}