{"builder_meta": null, "nsites": null, "elements": null, "nelements": null, "composition": null, "composition_reduced": null, "formula_pretty": "Y3In5", "formula_anonymous": "A3B5", "chemsys": null, "volume": 412.8945088337338, "density": 6.762956418146302, "density_atomic": 25.805906802108364, "symmetry": null, "property_name": null, "material_id": "mp-1105835", "deprecated": null, "deprecation_reasons": null, "last_updated": null, "origins": null, "warnings": null, "structure": {"@module": "pymatgen.core.structure", "@class": "Structure", "charge": 0, "lattice": {"matrix": [[4.93589647, 4.03311208, -0.0], [-4.93589647, 4.03311208, -0.0], [0.0, 0.0, 10.37057361]], "pbc": [true, true, true], "a": 6.374093426707864, "b": 6.374093426707864, "c": 10.37057361, "alpha": 90.0, "beta": 90.0, "gamma": 101.49560751303542, "volume": 412.8945088337338}, "properties": {}, "sites": [{"species": [{"element": "Y", "occu": 1}], "abc": [0.62526484, 0.62526484, 0.25], "properties": {"magmom": -0.0}, "label": "Y", "xyz": [0.0, 5.0435263588065355, 2.5926434025]}, {"species": [{"element": "Y", "occu": 1}], "abc": [0.37473516, 0.37473516, 0.75], "properties": {"magmom": -0.0}, "label": "Y", "xyz": [0.0, 3.022697801193466, 7.777930207499999]}, {"species": [{"element": "Y", "occu": 1}], "abc": [0.796930399999999, 0.2030696, 0.5], "properties": {"magmom": -0.0}, "label": "Y", "xyz": [2.9312354263913716, 4.033112079999996, 5.185286805]}, {"species": [{"element": "Y", "occu": 1}], "abc": [0.796930399999999, 0.2030696, -0.0], "properties": {"magmom": -0.0}, "label": "Y", "xyz": [2.9312354263913716, 4.033112079999996, 0.0]}, {"species": [{"element": "Y", "occu": 1}], "abc": [0.2030696, 0.796930399999999, 0.5], "properties": {"magmom": -0.0}, "label": "Y", "xyz": [-2.9312354263913716, 4.033112079999996, 5.185286805]}, {"species": [{"element": "Y", "occu": 1}], "abc": [0.2030696, 0.796930399999999, -0.0], "properties": {"magmom": -0.0}, "label": "Y", "xyz": [-2.9312354263913716, 4.033112079999996, 0.0]}, {"species": [{"element": "In", "occu": 1}], "abc": [0.00932412, 0.00932412, 0.25], "properties": {"magmom": -0.0}, "label": "In", "xyz": [0.0, 0.07521044201473921, 2.5926434025]}, {"species": [{"element": "In", "occu": 1}], "abc": [0.9906758800000001, 0.9906758800000001, 0.75], "properties": {"magmom": -0.0}, "label": "In", "xyz": [0.0, 7.991013717985262, 7.777930207499999]}, {"species": [{"element": "In", "occu": 1}], "abc": [0.30940538, 0.30940538, 0.04619101], "properties": {"magmom": 0.0}, "label": "In", "xyz": [0.0, 2.495733151389981, 0.47902726932524603]}, {"species": [{"element": "In", "occu": 1}], "abc": [0.69059462, 0.69059462, 0.95380899], "properties": {"magmom": 0.0}, "label": "In", "xyz": [0.0, 5.57049100861002, 9.891546340674752]}, {"species": [{"element": "In", "occu": 1}], "abc": [0.30940538, 0.30940538, 0.45380899], "properties": {"magmom": 0.0}, "label": "In", "xyz": [0.0, 2.495733151389981, 4.706259535674754]}, {"species": [{"element": "In", "occu": 1}], "abc": [0.69059462, 0.69059462, 0.54619101], "properties": {"magmom": 0.0}, "label": "In", "xyz": [0.0, 5.57049100861002, 5.664314074325246]}, {"species": [{"element": "In", "occu": 1}], "abc": [0.07692782000000001, 0.50810225, 0.25], "properties": {"magmom": 0.0}, "label": "In", "xyz": [-2.128232346991262, 2.359491842480246, 2.5926434025]}, {"species": [{"element": "In", "occu": 1}], "abc": [0.49189775, 0.92307218, 0.75], "properties": {"magmom": 0.0}, "label": "In", "xyz": [-2.1282323469912625, 5.706732317519755, 7.777930207499999]}, {"species": [{"element": "In", "occu": 1}], "abc": [0.92307218, 0.49189775, 0.75], "properties": {"magmom": 0.0}, "label": "In", "xyz": [2.1282323469912625, 5.706732317519755, 7.777930207499999]}, {"species": [{"element": "In", "occu": 1}], "abc": [0.50810225, 0.07692782000000001, 0.25], "properties": {"magmom": 0.0}, "label": "In", "xyz": [2.128232346991262, 2.359491842480246, 2.5926434025]}]}, "task_ids": null, "uncorrected_energy_per_atom": null, "energy_per_atom": -22.3441500025, "formation_energy_per_atom": -0.6149306550000021, "energy_above_hull": 0.0, "is_stable": true, "equilibrium_reaction_energy_per_atom": null, "decomposes_to": null, "xas": null, "grain_boundaries": null, "band_gap": 0.0, "cbm": null, "vbm": null, "efermi": 6.37115092, "is_gap_direct": null, "is_metal": null, "es_source_calc_id": null, "bandstructure": null, "dos": null, "dos_energy_up": null, "dos_energy_down": null, "is_magnetic": null, "ordering": null, "total_magnetization": 4e-07, "total_magnetization_normalized_vol": null, "total_magnetization_normalized_formula_units": null, "num_magnetic_sites": null, "num_unique_magnetic_sites": null, "types_of_magnetic_species": null, "bulk_modulus": null, "shear_modulus": null, "universal_anisotropy": null, "homogeneous_poisson": null, "e_total": null, "e_ionic": null, "e_electronic": null, "n": null, "e_ij_max": null, "weighted_surface_energy_EV_PER_ANG2": null, "weighted_surface_energy": null, "weighted_work_function": null, "surface_anisotropy": null, "shape_factor": null, "has_reconstructed": null, "possible_species": null, "has_props": null, "theoretical": null, "database_IDs": null, "fields_not_requested": ["builder_meta", "nsites", "elements", "nelements", "composition", "composition_reduced", "chemsys", "symmetry", "property_name", "deprecated", "deprecation_reasons", "last_updated", "origins", "warnings", "task_ids", "uncorrected_energy_per_atom", "equilibrium_reaction_energy_per_atom", "decomposes_to", "xas", "grain_boundaries", "cbm", "vbm", "is_gap_direct", "is_metal", "es_source_calc_id", "bandstructure", "dos", "dos_energy_up", "dos_energy_down", "is_magnetic", "ordering", "total_magnetization_normalized_vol", "total_magnetization_normalized_formula_units", "num_magnetic_sites", "num_unique_magnetic_sites", "types_of_magnetic_species", "bulk_modulus", "shear_modulus", "universal_anisotropy", "homogeneous_poisson", "e_total", "e_ionic", "e_electronic", "n", "e_ij_max", "weighted_surface_energy_EV_PER_ANG2", "weighted_surface_energy", "weighted_work_function", "surface_anisotropy", "shape_factor", "has_reconstructed", "possible_species", "has_props", "theoretical", "database_IDs"]}