{
  "builder_meta": null,
  "nsites": null,
  "elements": null,
  "nelements": null,
  "composition": null,
  "composition_reduced": null,
  "formula_pretty": "Y3Ir",
  "formula_anonymous": "AB3",
  "chemsys": null,
  "volume": 435.4065992209914,
  "density": 7.001076700729533,
  "density_atomic": 27.21291245131196,
  "symmetry": null,
  "property_name": null,
  "material_id": "mp-1207785",
  "deprecated": null,
  "deprecation_reasons": null,
  "last_updated": null,
  "origins": null,
  "warnings": null,
  "structure": {
    "@module": "pymatgen.core.structure",
    "@class": "Structure",
    "charge": 0,
    "lattice": {
      "matrix": [
        [-0.0, 0.0, 6.4582236],
        [7.26137832, 0.0, 0.0],
        [0.0, 9.28459289, 0.0]
      ],
      "pbc": [true, true, true],
      "a": 6.4582236,
      "b": 7.26137832,
      "c": 9.28459289,
      "alpha": 90.0,
      "beta": 90.0,
      "gamma": 90.0,
      "volume": 435.4065992209914
    },
    "properties": {},
    "sites": [
      {
        "species": [{ "element": "Y", "occu": 1 }],
        "abc": [0.63074853, 0.0382539, 0.25],
        "properties": { "magmom": -0.0 },
        "label": "Y",
        "xyz": [0.27777604011544804, 2.3211482225, 4.073515042111308]
      },
      {
        "species": [{ "element": "Y", "occu": 1 }],
        "abc": [0.36925147, 0.961746099999999, 0.75],
        "properties": { "magmom": -0.0 },
        "label": "Y",
        "xyz": [6.983602279884545, 6.963444667500001, 2.3847085578886924]
      },
      {
        "species": [{ "element": "Y", "occu": 1 }],
        "abc": [0.13074853, 0.4617461, 0.75],
        "properties": { "magmom": -0.0 },
        "label": "Y",
        "xyz": [3.352913119884552, 6.963444667500001, 0.844403242111308]
      },
      {
        "species": [{ "element": "Y", "occu": 1 }],
        "abc": [0.86925147, 0.5382539, 0.25],
        "properties": { "magmom": -0.0 },
        "label": "Y",
        "xyz": [3.908465200115448, 2.3211482225, 5.6138203578886925]
      },
      {
        "species": [{ "element": "Y", "occu": 1 }],
        "abc": [0.17675846, 0.174094, 0.06460048],
        "properties": { "magmom": -0.0 },
        "label": "Y",
        "xyz": [1.2641623972420801, 0.5997891572985873, 1.141545657871656]
      },
      {
        "species": [{ "element": "Y", "occu": 1 }],
        "abc": [0.82324154, 0.825905999999999, 0.93539952],
        "properties": { "magmom": -0.0 },
        "label": "Y",
        "xyz": [5.997215922757913, 8.684803732701415, 5.3166779421283445]
      },
      {
        "species": [{ "element": "Y", "occu": 1 }],
        "abc": [0.6767584600000001, 0.325906, 0.93539952],
        "properties": { "magmom": -0.0 },
        "label": "Y",
        "xyz": [2.36652676275792, 8.684803732701415, 4.370657457871657]
      },
      {
        "species": [{ "element": "Y", "occu": 1 }],
        "abc": [0.82324154, 0.825905999999999, 0.56460048],
        "properties": { "magmom": -0.0 },
        "label": "Y",
        "xyz": [5.997215922757913, 5.242085602298587, 5.3166779421283445]
      },
      {
        "species": [{ "element": "Y", "occu": 1 }],
        "abc": [0.32324154, 0.674094, 0.06460048],
        "properties": { "magmom": -0.0 },
        "label": "Y",
        "xyz": [4.89485155724208, 0.5997891572985873, 2.087566142128344]
      },
      {
        "species": [{ "element": "Y", "occu": 1 }],
        "abc": [0.17675846, 0.174094, 0.43539952],
        "properties": { "magmom": -0.0 },
        "label": "Y",
        "xyz": [1.2641623972420801, 4.0425072877014125, 1.141545657871656]
      },
      {
        "species": [{ "element": "Y", "occu": 1 }],
        "abc": [0.32324154, 0.674094, 0.43539952],
        "properties": { "magmom": -0.0 },
        "label": "Y",
        "xyz": [4.89485155724208, 4.0425072877014125, 2.087566142128344]
      },
      {
        "species": [{ "element": "Y", "occu": 1 }],
        "abc": [0.6767584600000001, 0.325906, 0.56460048],
        "properties": { "magmom": -0.0 },
        "label": "Y",
        "xyz": [2.36652676275792, 5.242085602298587, 4.370657457871657]
      },
      {
        "species": [{ "element": "Ir", "occu": 1 }],
        "abc": [0.46145489, 0.38516253, 0.25],
        "properties": { "magmom": -0.0 },
        "label": "Ir",
        "xyz": [2.7968108450183498, 2.3211482225, 2.980178860933404]
      },
      {
        "species": [{ "element": "Ir", "occu": 1 }],
        "abc": [0.53854511, 0.61483747, 0.75],
        "properties": { "magmom": -0.0 },
        "label": "Ir",
        "xyz": [4.46456747498165, 6.963444667500001, 3.4780447390665965]
      },
      {
        "species": [{ "element": "Ir", "occu": 1 }],
        "abc": [0.9614548900000001, 0.11483747, 0.75],
        "properties": { "magmom": -0.0 },
        "label": "Ir",
        "xyz": [0.8338783149816504, 6.963444667500001, 6.209290660933404]
      },
      {
        "species": [{ "element": "Ir", "occu": 1 }],
        "abc": [0.03854511, 0.88516253, 0.25],
        "properties": { "magmom": -0.0 },
        "label": "Ir",
        "xyz": [6.42750000501835, 2.3211482225, 0.248932939066596]
      }
    ]
  },
  "task_ids": null,
  "uncorrected_energy_per_atom": null,
  "energy_per_atom": -7.628281854375,
  "formation_energy_per_atom": -0.5368546843750001,
  "energy_above_hull": 0.0,
  "is_stable": true,
  "equilibrium_reaction_energy_per_atom": null,
  "decomposes_to": null,
  "xas": null,
  "grain_boundaries": null,
  "band_gap": 0.0,
  "cbm": null,
  "vbm": null,
  "efermi": 4.12486131,
  "is_gap_direct": null,
  "is_metal": null,
  "es_source_calc_id": null,
  "bandstructure": null,
  "dos": null,
  "dos_energy_up": null,
  "dos_energy_down": null,
  "is_magnetic": null,
  "ordering": null,
  "total_magnetization": 0.00024219999999900002,
  "total_magnetization_normalized_vol": null,
  "total_magnetization_normalized_formula_units": null,
  "num_magnetic_sites": null,
  "num_unique_magnetic_sites": null,
  "types_of_magnetic_species": null,
  "bulk_modulus": null,
  "shear_modulus": null,
  "universal_anisotropy": null,
  "homogeneous_poisson": null,
  "e_total": null,
  "e_ionic": null,
  "e_electronic": null,
  "n": null,
  "e_ij_max": null,
  "weighted_surface_energy_EV_PER_ANG2": null,
  "weighted_surface_energy": null,
  "weighted_work_function": null,
  "surface_anisotropy": null,
  "shape_factor": null,
  "has_reconstructed": null,
  "possible_species": null,
  "has_props": null,
  "theoretical": null,
  "database_IDs": null,
  "fields_not_requested": [
    "builder_meta",
    "nsites",
    "elements",
    "nelements",
    "composition",
    "composition_reduced",
    "chemsys",
    "symmetry",
    "property_name",
    "deprecated",
    "deprecation_reasons",
    "last_updated",
    "origins",
    "warnings",
    "task_ids",
    "uncorrected_energy_per_atom",
    "equilibrium_reaction_energy_per_atom",
    "decomposes_to",
    "xas",
    "grain_boundaries",
    "cbm",
    "vbm",
    "is_gap_direct",
    "is_metal",
    "es_source_calc_id",
    "bandstructure",
    "dos",
    "dos_energy_up",
    "dos_energy_down",
    "is_magnetic",
    "ordering",
    "total_magnetization_normalized_vol",
    "total_magnetization_normalized_formula_units",
    "num_magnetic_sites",
    "num_unique_magnetic_sites",
    "types_of_magnetic_species",
    "bulk_modulus",
    "shear_modulus",
    "universal_anisotropy",
    "homogeneous_poisson",
    "e_total",
    "e_ionic",
    "e_electronic",
    "n",
    "e_ij_max",
    "weighted_surface_energy_EV_PER_ANG2",
    "weighted_surface_energy",
    "weighted_work_function",
    "surface_anisotropy",
    "shape_factor",
    "has_reconstructed",
    "possible_species",
    "has_props",
    "theoretical",
    "database_IDs"
  ]
}
