{"builder_meta": null, "nsites": null, "elements": null, "nelements": null, "composition": null, "composition_reduced": null, "formula_pretty": "Y3Ir2", "formula_anonymous": "A2B3", "chemsys": null, "volume": 1614.6448256601384, "density": 9.375235951684328, "density_atomic": 23.066354652287693, "symmetry": null, "property_name": null, "material_id": "mp-1204272", "deprecated": null, "deprecation_reasons": null, "last_updated": null, "origins": null, "warnings": null, "structure": {"@module": "pymatgen.core.structure", "@class": "Structure", "charge": 0, "lattice": {"matrix": [[-5.651246, 5.651246, 12.639462], [5.651246, -5.651246, 12.639462], [5.651246, 5.651246, -12.639462]], "pbc": [true, true, true], "a": 14.95423559913632, "b": 14.95423559913632, "c": 14.95423559913632, "alpha": 135.59233720859257, "beta": 135.59233720859257, "gamma": 64.61122186928128, "volume": 1614.6448256601384}, "properties": {}, "sites": [{"species": [{"element": "Y", "occu": 1}], "abc": [0.632191, 0.503579, 0.27931], "properties": {"magmom": 0.0}, "label": "Y", "xyz": [0.8516314697080005, 2.305267570812, 10.82519362452]}, {"species": [{"element": "Y", "occu": 1}], "abc": [0.22427000000000002, 0.352882, 0.72069], "properties": {"magmom": 0.0}, "label": "Y", "xyz": [4.799614530292001, 3.3459784291880013, -1.8142430965560008]}, {"species": [{"element": "Y", "occu": 1}], "abc": [0.132191, 0.852881999999999, 0.128612], "properties": {"magmom": 0.0}, "label": "Y", "xyz": [4.799620181537994, -3.3459840804339946, 10.825206263981988]}, {"species": [{"element": "Y", "occu": 1}], "abc": [0.7242700000000001, 0.003578999999999, 0.871387999999999], "properties": {"magmom": 0.0}, "label": "Y", "xyz": [0.8516258184619891, 8.997230080434, -1.8142557360179996]}, {"species": [{"element": "Y", "occu": 1}], "abc": [0.352882, 0.632191, 0.128612], "properties": {"magmom": 0.0}, "label": "Y", "xyz": [2.305261919566, -0.851625818462, 10.825206263981999]}, {"species": [{"element": "Y", "occu": 1}], "abc": [0.503579, 0.22427000000000002, 0.871387999999999], "properties": {"magmom": 0.0}, "label": "Y", "xyz": [3.345984080433995, 6.502871818461996, -1.8142557360179872]}, {"species": [{"element": "Y", "occu": 1}], "abc": [0.003578999999999, 0.132191, 0.27931], "properties": {"magmom": 0.0}, "label": "Y", "xyz": [2.305267570812006, 0.8516314697079944, -1.8142683754800129]}, {"species": [{"element": "Y", "occu": 1}], "abc": [0.852881999999999, 0.7242700000000001, 0.72069], "properties": {"magmom": 0.0}, "label": "Y", "xyz": [3.3459784291880066, 4.799614530291995, 10.825218903443988]}, {"species": [{"element": "Y", "occu": 1}], "abc": [0.367809, 0.496421, 0.72069], "properties": {"magmom": 0.0}, "label": "Y", "xyz": [4.799614530292001, 3.3459784291880013, 1.8142683754799993]}, {"species": [{"element": "Y", "occu": 1}], "abc": [0.77573, 0.647118, 0.27931], "properties": {"magmom": 0.0}, "label": "Y", "xyz": [0.8516314697079996, 2.305267570812001, 14.453705096556003]}, {"species": [{"element": "Y", "occu": 1}], "abc": [0.867808999999999, 0.147118, 0.871387999999999], "properties": {"magmom": 0.0}, "label": "Y", "xyz": [0.8516258184620007, 8.99723008043399, 1.8142557360179996]}, {"species": [{"element": "Y", "occu": 1}], "abc": [0.27573000000000003, 0.996421, 0.128612], "properties": {"magmom": 0.0}, "label": "Y", "xyz": [4.799620181538, -3.345984080434, 14.453717736018001]}, {"species": [{"element": "Y", "occu": 1}], "abc": [0.647118, 0.367809, 0.871387999999999], "properties": {"magmom": 0.0}, "label": "Y", "xyz": [3.3459840804339955, 6.502871818461996, 1.8142557360180138]}, {"species": [{"element": "Y", "occu": 1}], "abc": [0.496421, 0.77573, 0.128612], "properties": {"magmom": 0.0}, "label": "Y", "xyz": [2.305261919566001, -0.8516258184620007, 14.453717736018001]}, {"species": [{"element": "Y", "occu": 1}], "abc": [0.996421, 0.867808999999999, 0.72069], "properties": {"magmom": 0.0}, "label": "Y", "xyz": [3.345978429187995, 4.799614530292007, 14.453730375479987]}, {"species": [{"element": "Y", "occu": 1}], "abc": [0.147118, 0.27573000000000003, 0.27931], "properties": {"magmom": 0.0}, "label": "Y", "xyz": [2.3052675708120005, 0.8516314697079999, 1.8142430965560008]}, {"species": [{"element": "Y", "occu": 1}], "abc": [0.385745, 0.517057, 0.290639], "properties": {"magmom": -0.0}, "label": "Y", "xyz": [2.384548900946, 0.9003960714420003, 7.737410976306]}, {"species": [{"element": "Y", "occu": 1}], "abc": [0.226417999999999, 0.095105, 0.709361], "properties": {"magmom": -0.0}, "label": "Y", "xyz": [3.2666914478080056, 4.750855579803995, -4.902063663156014]}, {"species": [{"element": "Y", "occu": 1}], "abc": [0.885745, 0.595105, 0.868688], "properties": {"magmom": -0.0}, "label": "Y", "xyz": [3.2666914478080007, 6.551647722688001, 7.737398336843999]}, {"species": [{"element": "Y", "occu": 1}], "abc": [0.726418, 0.017057, 0.131311999999999], "properties": {"magmom": -0.0}, "label": "Y", "xyz": [-3.2666970990540056, 4.750849928557995, 7.737410976306013]}, {"species": [{"element": "Y", "occu": 1}], "abc": [0.095105, 0.385745, 0.868688], "properties": {"magmom": -0.0}, "label": "Y", "xyz": [6.551647722688001, 3.2666914478080002, -4.902063663156]}, {"species": [{"element": "Y", "occu": 1}], "abc": [0.517057, 0.226417999999999, 0.131311999999999], "properties": {"magmom": -0.0}, "label": "Y", "xyz": [-0.9003960714420112, 2.384548900946, 7.737410976306]}, {"species": [{"element": "Y", "occu": 1}], "abc": [0.017057, 0.885745, 0.290639], "properties": {"magmom": -0.0}, "label": "Y", "xyz": [6.551642071442, -3.2666970990539994, 7.737410976306]}, {"species": [{"element": "Y", "occu": 1}], "abc": [0.595105, 0.726418, 0.709361], "properties": {"magmom": -0.0}, "label": "Y", "xyz": [4.750855579804, 3.266691447808, 7.737398336843999]}, {"species": [{"element": "Y", "occu": 1}], "abc": [0.614255, 0.482942999999999, 0.709361], "properties": {"magmom": -0.0}, "label": "Y", "xyz": [3.2666970990539945, 4.750849928558006, 4.902051023693986]}, {"species": [{"element": "Y", "occu": 1}], "abc": [0.773582, 0.904895, 0.290639], "properties": {"magmom": -0.0}, "label": "Y", "xyz": [2.384554552192, 0.9003904201960002, 17.541525663155998]}, {"species": [{"element": "Y", "occu": 1}], "abc": [0.114255, 0.404895, 0.131311999999999], "properties": {"magmom": -0.0}, "label": "Y", "xyz": [2.384554552191995, -0.9004017226880059, 4.902063663156013]}, {"species": [{"element": "Y", "occu": 1}], "abc": [0.273582, 0.9829429999999991, 0.868688], "properties": {"magmom": -0.0}, "label": "Y", "xyz": [8.917943099053996, 0.900396071442005, 4.902051023693989]}, {"species": [{"element": "Y", "occu": 1}], "abc": [0.904895, 0.614255, 0.131311999999999], "properties": {"magmom": -0.0}, "label": "Y", "xyz": [-0.9004017226880054, 2.3845545521919944, 17.541525663156012]}, {"species": [{"element": "Y", "occu": 1}], "abc": [0.482942999999999, 0.773582, 0.868688], "properties": {"magmom": -0.0}, "label": "Y", "xyz": [6.551642071442006, 3.266697099053995, 4.902051023693987]}, {"species": [{"element": "Y", "occu": 1}], "abc": [0.9829429999999991, 0.114255, 0.709361], "properties": {"magmom": -0.0}, "label": "Y", "xyz": [-0.9003960714419952, 8.917943099053996, 4.902051023693989]}, {"species": [{"element": "Y", "occu": 1}], "abc": [0.404895, 0.273582, 0.290639], "properties": {"magmom": -0.0}, "label": "Y", "xyz": [0.9003904201959998, 2.384554552192, 4.902063663156001]}, {"species": [{"element": "Y", "occu": 1}], "abc": [0.850741, 0.350740999999999, 0.201481], "properties": {"magmom": 0.0}, "label": "Y", "xyz": [-1.6870043046740055, 3.9642416953260056, 12.639474639461989]}, {"species": [{"element": "Y", "occu": 1}], "abc": [0.149259, 0.649258999999999, 0.798519], "properties": {"magmom": 0.0}, "label": "Y", "xyz": [7.338250304673995, 1.687004304674005, -1.263946201213173e-05]}, {"species": [{"element": "Y", "occu": 1}], "abc": [0.350740999999999, 0.149259, 0.5], "properties": {"magmom": 0.0}, "label": "Y", "xyz": [1.6869986534280057, 3.9642473465719945, -1.2434497875801753e-14]}, {"species": [{"element": "Y", "occu": 1}], "abc": [0.649258999999999, 0.850741, 0.5], "properties": {"magmom": 0.0}, "label": "Y", "xyz": [3.9642473465720056, 1.6869986534279948, 12.639461999999988]}, {"species": [{"element": "Y", "occu": 1}], "abc": [0.387472999999999, 0.887473, 0.5], "properties": {"magmom": 0.0}, "label": "Y", "xyz": [5.651246000000006, -5.773159728050814e-15, 9.794900519051986]}, {"species": [{"element": "Y", "occu": 1}], "abc": [0.887473, 0.387472999999999, 0.5], "properties": {"magmom": 0.0}, "label": "Y", "xyz": [-5.773159728050814e-15, 5.651246000000006, 9.794900519051986]}, {"species": [{"element": "Y", "occu": 1}], "abc": [0.612526999999999, 0.112526999999999, 0.5], "properties": {"magmom": 0.0}, "label": "Y", "xyz": [0.0, 5.651246, 2.8445614809479745]}, {"species": [{"element": "Y", "occu": 1}], "abc": [0.112526999999999, 0.612526999999999, 0.5], "properties": {"magmom": 0.0}, "label": "Y", "xyz": [5.651246, 0.0, 2.8445614809479745]}, {"species": [{"element": "Y", "occu": 1}], "abc": [0.25, 0.75, 0.5], "properties": {"magmom": -0.0}, "label": "Y", "xyz": [5.651246, 0.0, 6.319731]}, {"species": [{"element": "Y", "occu": 1}], "abc": [0.75, 0.25, 0.5], "properties": {"magmom": -0.0}, "label": "Y", "xyz": [0.0, 5.651246, 6.319731]}, {"species": [{"element": "Ir", "occu": 1}], "abc": [0.714341999999999, 0.214341999999999, 0.141179], "properties": {"magmom": -0.0}, "label": "Ir", "xyz": [-2.0277857409660003, 3.623460259034, 9.953639522309976]}, {"species": [{"element": "Ir", "occu": 1}], "abc": [0.073161999999999, 0.573162, 0.858821], "properties": {"magmom": -0.0}, "label": "Ir", "xyz": [7.679031740966006, 2.027785740965995, -2.685847756614013]}, {"species": [{"element": "Ir", "occu": 1}], "abc": [0.214341999999999, 0.073161999999999, 0.5], "properties": {"magmom": -0.0}, "label": "Ir", "xyz": [2.0277800897200002, 3.62346591028, -2.685835117152025]}, {"species": [{"element": "Ir", "occu": 1}], "abc": [0.573162, 0.714341999999999, 0.5], "properties": {"magmom": -0.0}, "label": "Ir", "xyz": [3.6234659102799953, 2.027780089720005, 9.953626882847988]}, {"species": [{"element": "Ir", "occu": 1}], "abc": [0.285657999999999, 0.785658, 0.858821], "properties": {"magmom": -0.0}, "label": "Ir", "xyz": [7.679031740966006, 2.027785740965995, 2.685822477689989]}, {"species": [{"element": "Ir", "occu": 1}], "abc": [0.926837999999999, 0.426838, 0.141179], "properties": {"magmom": -0.0}, "label": "Ir", "xyz": [-2.027785740965995, 3.623460259033995, 15.325309756613988]}, {"species": [{"element": "Ir", "occu": 1}], "abc": [0.785658, 0.926837999999999, 0.5], "properties": {"magmom": -0.0}, "label": "Ir", "xyz": [3.623465910279995, 2.0277800897200056, 15.325297117151987]}, {"species": [{"element": "Ir", "occu": 1}], "abc": [0.426838, 0.285657999999999, 0.5], "properties": {"magmom": -0.0}, "label": "Ir", "xyz": [2.027780089719995, 3.6234659102800055, 2.6858351171519876]}, {"species": [{"element": "Ir", "occu": 1}], "abc": [0.465362, 0.965361999999999, 0.808098], "properties": {"magmom": 0.0}, "label": "Ir", "xyz": [7.392383590107995, 1.7411375901080048, 7.869657667211987]}, {"species": [{"element": "Ir", "occu": 1}], "abc": [0.157264, 0.657264, 0.191902], "properties": {"magmom": 0.0}, "label": "Ir", "xyz": [3.9101084098919996, -1.7411375901079997, 7.8696576672119996]}, {"species": [{"element": "Ir", "occu": 1}], "abc": [0.965361999999999, 0.157264, 0.5], "properties": {"magmom": 0.0}, "label": "Ir", "xyz": [-1.7411375901079955, 7.392383590107996, 7.869657667211986]}, {"species": [{"element": "Ir", "occu": 1}], "abc": [0.657264, 0.465362, 0.5], "properties": {"magmom": 0.0}, "label": "Ir", "xyz": [1.7411375901080004, 3.910108409892, 7.869657667212]}, {"species": [{"element": "Ir", "occu": 1}], "abc": [0.534638, 0.034637999999999, 0.191902], "properties": {"magmom": 0.0}, "label": "Ir", "xyz": [-1.7411375901080055, 3.910108409892006, 4.769804332787986]}, {"species": [{"element": "Ir", "occu": 1}], "abc": [0.842735999999999, 0.342736, 0.808098], "properties": {"magmom": 0.0}, "label": "Ir", "xyz": [1.7411375901080057, 7.392383590107995, 4.769804332787988]}, {"species": [{"element": "Ir", "occu": 1}], "abc": [0.034637999999999, 0.842735999999999, 0.5], "properties": {"magmom": 0.0}, "label": "Ir", "xyz": [7.392383590108, -1.741137590108, 4.769804332787976]}, {"species": [{"element": "Ir", "occu": 1}], "abc": [0.342736, 0.534638, 0.5], "properties": {"magmom": 0.0}, "label": "Ir", "xyz": [3.910108409892, 1.7411375901080004, 4.7698043327879995]}, {"species": [{"element": "Ir", "occu": 1}], "abc": [0.596541, 0.096541, 0.693083], "properties": {"magmom": -0.0}, "label": "Ir", "xyz": [1.0911595314180005, 6.742405531418, -1.2639461999697232e-05]}, {"species": [{"element": "Ir", "occu": 1}], "abc": [0.403458999999999, 0.903459, 0.306917], "properties": {"magmom": -0.0}, "label": "Ir", "xyz": [4.560086468582006, -1.0911595314180058, 12.639474639461987]}, {"species": [{"element": "Ir", "occu": 1}], "abc": [0.096541, 0.403458999999999, 0.5], "properties": {"magmom": -0.0}, "label": "Ir", "xyz": [4.560092119827995, 1.0911538801720058, -1.3322676295501878e-14]}, {"species": [{"element": "Ir", "occu": 1}], "abc": [0.903459, 0.596541, 0.5], "properties": {"magmom": -0.0}, "label": "Ir", "xyz": [1.0911538801719995, 4.560092119828001, 12.639461999999998]}, {"species": [{"element": "Ir", "occu": 1}], "abc": [0.365629, 0.365629, 0.0], "properties": {"magmom": 0.0}, "label": "Ir", "xyz": [0.0, 0.0, 9.242707703196]}, {"species": [{"element": "Ir", "occu": 1}], "abc": [0.865629, 0.865629, 0.0], "properties": {"magmom": 0.0}, "label": "Ir", "xyz": [0.0, 0.0, 21.882169703196]}, {"species": [{"element": "Ir", "occu": 1}], "abc": [0.634371, 0.634371, 0.0], "properties": {"magmom": 0.0}, "label": "Ir", "xyz": [0.0, 0.0, 16.036216296804]}, {"species": [{"element": "Ir", "occu": 1}], "abc": [0.134371, 0.134371, 0.0], "properties": {"magmom": 0.0}, "label": "Ir", "xyz": [0.0, 0.0, 3.3967542968039997]}, {"species": [{"element": "Ir", "occu": 1}], "abc": [0.5, 0.5, 0.0], "properties": {"magmom": -0.0}, "label": "Ir", "xyz": [0.0, 0.0, 12.639462]}, {"species": [{"element": "Ir", "occu": 1}], "abc": [0.0, 0.0, 0.0], "properties": {"magmom": -0.0}, "label": "Ir", "xyz": [0.0, 0.0, 0.0]}, {"species": [{"element": "Ir", "occu": 1}], "abc": [0.25, 0.25, 0.0], "properties": {"magmom": 0.0}, "label": "Ir", "xyz": [0.0, 0.0, 6.319731]}, {"species": [{"element": "Ir", "occu": 1}], "abc": [0.75, 0.75, 0.0], "properties": {"magmom": 0.0}, "label": "Ir", "xyz": [0.0, 0.0, 18.959193]}]}, "task_ids": null, "uncorrected_energy_per_atom": null, "energy_per_atom": -8.185995497428571, "formation_energy_per_atom": -0.7451669254285711, "energy_above_hull": 0.016821361321429, "is_stable": false, "equilibrium_reaction_energy_per_atom": null, "decomposes_to": null, "xas": null, "grain_boundaries": null, "band_gap": 0.0, "cbm": null, "vbm": null, "efermi": 5.04641891, "is_gap_direct": null, "is_metal": null, "es_source_calc_id": null, "bandstructure": null, "dos": null, "dos_energy_up": null, "dos_energy_down": null, "is_magnetic": null, "ordering": null, "total_magnetization": 0.0079445, "total_magnetization_normalized_vol": null, "total_magnetization_normalized_formula_units": null, "num_magnetic_sites": null, "num_unique_magnetic_sites": null, "types_of_magnetic_species": null, "bulk_modulus": null, "shear_modulus": null, "universal_anisotropy": null, "homogeneous_poisson": null, "e_total": null, "e_ionic": null, "e_electronic": null, "n": null, "e_ij_max": null, "weighted_surface_energy_EV_PER_ANG2": null, "weighted_surface_energy": null, "weighted_work_function": null, "surface_anisotropy": null, "shape_factor": null, "has_reconstructed": null, "possible_species": null, "has_props": null, "theoretical": null, "database_IDs": null, "fields_not_requested": ["builder_meta", "nsites", "elements", "nelements", "composition", "composition_reduced", "chemsys", "symmetry", "property_name", "deprecated", "deprecation_reasons", "last_updated", "origins", "warnings", "task_ids", "uncorrected_energy_per_atom", "equilibrium_reaction_energy_per_atom", "decomposes_to", "xas", "grain_boundaries", "cbm", "vbm", "is_gap_direct", "is_metal", "es_source_calc_id", "bandstructure", "dos", "dos_energy_up", "dos_energy_down", "is_magnetic", "ordering", "total_magnetization_normalized_vol", "total_magnetization_normalized_formula_units", "num_magnetic_sites", "num_unique_magnetic_sites", "types_of_magnetic_species", "bulk_modulus", "shear_modulus", "universal_anisotropy", "homogeneous_poisson", "e_total", "e_ionic", "e_electronic", "n", "e_ij_max", "weighted_surface_energy_EV_PER_ANG2", "weighted_surface_energy", "weighted_work_function", "surface_anisotropy", "shape_factor", "has_reconstructed", "possible_species", "has_props", "theoretical", "database_IDs"]}