{"builder_meta": null, "nsites": null, "elements": null, "nelements": null, "composition": null, "composition_reduced": null, "formula_pretty": "Y3Mg", "formula_anonymous": "AB3", "chemsys": null, "volume": 122.04807291400634, "density": 3.9595407121015933, "density_atomic": 30.512018228501585, "symmetry": null, "property_name": null, "material_id": "mp-2038455", "deprecated": null, "deprecation_reasons": null, "last_updated": null, "origins": null, "warnings": null, "structure": {"@module": "pymatgen.core.structure", "@class": "Structure", "charge": 0, "lattice": {"matrix": [[-1.94145614, 2.72268811, 5.7709716], [1.94145614, -2.72379492, 5.77119104], [1.94145614, 2.72379492, -5.77119104]], "pbc": [true, true, true], "a": 6.669812268413979, "b": 6.670454012279658, "c": 6.670454012279658, "alpha": 146.1579750080622, "beta": 131.80709579994016, "gamma": 60.18608431386141, "volume": 122.04807291400634}, "properties": {}, "sites": [{"species": [{"element": "Y", "occu": 1}], "abc": [0.9145686, 0.5000376, 0.41453099], "properties": {"magmom": -0.0}, "label": "Y", "xyz": [-1.941456140297504e-08, 2.2571825830549246, 5.771424398344534]}, {"species": [{"element": "Y", "occu": 1}], "abc": [0.19500759, 0.27542347, 0.91958513], "properties": {"magmom": -0.0}, "label": "Y", "xyz": [1.9414581008707015, 2.285509103819522, -2.5921967368290826]}, {"species": [{"element": "Y", "occu": 1}], "abc": [0.64443704, 0.72460265, 0.91983439], "properties": {"magmom": 0.0}, "label": "Y", "xyz": [1.9414561399999999, 2.2863722880863557, 2.592308187216455]}, {"species": [{"element": "Mg", "occu": 1}], "abc": [0.41265378, -6.272000000000002e-05, 0.41271649], "properties": {"magmom": -0.0}, "label": "Mg", "xyz": [-1.941456151399734e-08, 2.2478534556321694, -0.0008144332376298635]}]}, "task_ids": null, "uncorrected_energy_per_atom": null, "energy_per_atom": -16.29512251, "formation_energy_per_atom": -0.017595893750002003, "energy_above_hull": 0.037102652499999, "is_stable": false, "equilibrium_reaction_energy_per_atom": null, "decomposes_to": null, "xas": null, "grain_boundaries": null, "band_gap": 0.0, "cbm": null, "vbm": null, "efermi": 2.80028866, "is_gap_direct": null, "is_metal": null, "es_source_calc_id": null, "bandstructure": null, "dos": null, "dos_energy_up": null, "dos_energy_down": null, "is_magnetic": null, "ordering": null, "total_magnetization": 1e-07, "total_magnetization_normalized_vol": null, "total_magnetization_normalized_formula_units": null, "num_magnetic_sites": null, "num_unique_magnetic_sites": null, "types_of_magnetic_species": null, "bulk_modulus": null, "shear_modulus": null, "universal_anisotropy": null, "homogeneous_poisson": null, "e_total": null, "e_ionic": null, "e_electronic": null, "n": null, "e_ij_max": null, "weighted_surface_energy_EV_PER_ANG2": null, "weighted_surface_energy": null, "weighted_work_function": null, "surface_anisotropy": null, "shape_factor": null, "has_reconstructed": null, "possible_species": null, "has_props": null, "theoretical": null, "database_IDs": null, "fields_not_requested": ["builder_meta", "nsites", "elements", "nelements", "composition", "composition_reduced", "chemsys", "symmetry", "property_name", "deprecated", "deprecation_reasons", "last_updated", "origins", "warnings", "task_ids", "uncorrected_energy_per_atom", "equilibrium_reaction_energy_per_atom", "decomposes_to", "xas", "grain_boundaries", "cbm", "vbm", "is_gap_direct", "is_metal", "es_source_calc_id", "bandstructure", "dos", "dos_energy_up", "dos_energy_down", "is_magnetic", "ordering", "total_magnetization_normalized_vol", "total_magnetization_normalized_formula_units", "num_magnetic_sites", "num_unique_magnetic_sites", "types_of_magnetic_species", "bulk_modulus", "shear_modulus", "universal_anisotropy", "homogeneous_poisson", "e_total", "e_ionic", "e_electronic", "n", "e_ij_max", "weighted_surface_energy_EV_PER_ANG2", "weighted_surface_energy", "weighted_work_function", "surface_anisotropy", "shape_factor", "has_reconstructed", "possible_species", "has_props", "theoretical", "database_IDs"]}