{
  "builder_meta": null,
  "nsites": null,
  "elements": null,
  "nelements": null,
  "composition": null,
  "composition_reduced": null,
  "formula_pretty": "Y3Ni",
  "formula_anonymous": "AB3",
  "chemsys": null,
  "volume": 426.7787005446632,
  "density": 5.064522615442659,
  "density_atomic": 26.67366878404145,
  "symmetry": null,
  "property_name": null,
  "material_id": "mp-1105633",
  "deprecated": null,
  "deprecation_reasons": null,
  "last_updated": null,
  "origins": null,
  "warnings": null,
  "structure": {
    "@module": "pymatgen.core.structure",
    "@class": "Structure",
    "charge": 0,
    "lattice": {
      "matrix": [
        [0.0, 0.0, 6.32817879],
        [6.8725971900000005, 0.0, 0.0],
        [0.0, 9.81302953, 0.0]
      ],
      "pbc": [true, true, true],
      "a": 6.32817879,
      "b": 6.8725971900000005,
      "c": 9.81302953,
      "alpha": 90.0,
      "beta": 90.0,
      "gamma": 90.0,
      "volume": 426.77870054466325
    },
    "properties": {},
    "sites": [
      {
        "species": [{ "element": "Y", "occu": 1 }],
        "abc": [0.3197775, 0.67042151, 0.06850899],
        "properties": { "magmom": 0.126 },
        "label": "Y",
        "xyz": [4.607536985741557, 0.6722807419404747, 2.023609193019225]
      },
      {
        "species": [{ "element": "Y", "occu": 1 }],
        "abc": [0.180222499999999, 0.17042151, 0.43149101],
        "properties": { "magmom": 0.126 },
        "label": "Y",
        "xyz": [1.171238390741557, 4.234234023059526, 1.1404802019807687]
      },
      {
        "species": [{ "element": "Y", "occu": 1 }],
        "abc": [0.6802225, 0.32957849, 0.56850899],
        "properties": { "magmom": 0.126 },
        "label": "Y",
        "xyz": [2.265060204258443, 5.578795506940474, 4.304569596980775]
      },
      {
        "species": [{ "element": "Y", "occu": 1 }],
        "abc": [0.819777499999999, 0.8295784900000001, 0.93149101],
        "properties": { "magmom": 0.126 },
        "label": "Y",
        "xyz": [5.701358799258444, 9.140748788059526, 5.187698588019219]
      },
      {
        "species": [{ "element": "Y", "occu": 1 }],
        "abc": [0.6802225, 0.32957849, 0.93149101],
        "properties": { "magmom": 0.126 },
        "label": "Y",
        "xyz": [2.265060204258443, 9.140748788059526, 4.304569596980775]
      },
      {
        "species": [{ "element": "Y", "occu": 1 }],
        "abc": [0.819777499999999, 0.8295784900000001, 0.56850899],
        "properties": { "magmom": 0.126 },
        "label": "Y",
        "xyz": [5.701358799258444, 5.578795506940474, 5.187698588019219]
      },
      {
        "species": [{ "element": "Y", "occu": 1 }],
        "abc": [0.3197775, 0.67042151, 0.43149101],
        "properties": { "magmom": 0.126 },
        "label": "Y",
        "xyz": [4.607536985741557, 4.234234023059526, 2.023609193019225]
      },
      {
        "species": [{ "element": "Y", "occu": 1 }],
        "abc": [0.180222499999999, 0.17042151, 0.06850899],
        "properties": { "magmom": 0.126 },
        "label": "Y",
        "xyz": [1.171238390741557, 0.6722807419404747, 1.1404802019807687]
      },
      {
        "species": [{ "element": "Y", "occu": 1 }],
        "abc": [0.8533460900000001, 0.5385303300000001, 0.25],
        "properties": { "magmom": 0.128 },
        "label": "Y",
        "xyz": [3.7011020326877735, 2.4532573825, 5.400126627267431]
      },
      {
        "species": [{ "element": "Y", "occu": 1 }],
        "abc": [0.64665391, 0.03853033, 0.25],
        "properties": { "magmom": 0.128 },
        "label": "Y",
        "xyz": [0.2648034376877727, 2.4532573825, 4.092141557732569]
      },
      {
        "species": [{ "element": "Y", "occu": 1 }],
        "abc": [0.14665391, 0.46146967, 0.75],
        "properties": { "magmom": 0.128 },
        "label": "Y",
        "xyz": [3.1714951573122274, 7.359772147499999, 0.9280521627325689]
      },
      {
        "species": [{ "element": "Y", "occu": 1 }],
        "abc": [0.35334609, 0.96146967, 0.75],
        "properties": { "magmom": 0.128 },
        "label": "Y",
        "xyz": [6.6077937523122285, 7.359772147499999, 2.236037232267431]
      },
      {
        "species": [{ "element": "Ni", "occu": 1 }],
        "abc": [0.05635821, 0.8841, 0.25],
        "properties": { "magmom": 0.09 },
        "label": "Ni",
        "xyz": [6.076063175679001, 2.4532573825, 0.3566448291643659]
      },
      {
        "species": [{ "element": "Ni", "occu": 1 }],
        "abc": [0.44364179000000004, 0.3841, 0.25],
        "properties": { "magmom": 0.09 },
        "label": "Ni",
        "xyz": [2.639764580679, 2.4532573825, 2.807444565835634]
      },
      {
        "species": [{ "element": "Ni", "occu": 1 }],
        "abc": [0.94364179, 0.1159, 0.75],
        "properties": { "magmom": 0.09 },
        "label": "Ni",
        "xyz": [0.7965340143210001, 7.359772147499999, 5.971533960835634]
      },
      {
        "species": [{ "element": "Ni", "occu": 1 }],
        "abc": [0.55635821, 0.6159, 0.75],
        "properties": { "magmom": 0.09 },
        "label": "Ni",
        "xyz": [4.232832609321, 7.359772147499999, 3.5207342241643658]
      }
    ]
  },
  "task_ids": null,
  "uncorrected_energy_per_atom": null,
  "energy_per_atom": -6.534222859374999,
  "formation_energy_per_atom": -0.20737006437499803,
  "energy_above_hull": 0.0,
  "is_stable": true,
  "equilibrium_reaction_energy_per_atom": null,
  "decomposes_to": null,
  "xas": null,
  "grain_boundaries": null,
  "band_gap": 0.0,
  "cbm": null,
  "vbm": null,
  "efermi": 3.72943363,
  "is_gap_direct": null,
  "is_metal": null,
  "es_source_calc_id": null,
  "bandstructure": null,
  "dos": null,
  "dos_energy_up": null,
  "dos_energy_down": null,
  "is_magnetic": null,
  "ordering": null,
  "total_magnetization": 3.0276855,
  "total_magnetization_normalized_vol": null,
  "total_magnetization_normalized_formula_units": null,
  "num_magnetic_sites": null,
  "num_unique_magnetic_sites": null,
  "types_of_magnetic_species": null,
  "bulk_modulus": null,
  "shear_modulus": null,
  "universal_anisotropy": null,
  "homogeneous_poisson": null,
  "e_total": null,
  "e_ionic": null,
  "e_electronic": null,
  "n": null,
  "e_ij_max": null,
  "weighted_surface_energy_EV_PER_ANG2": null,
  "weighted_surface_energy": null,
  "weighted_work_function": null,
  "surface_anisotropy": null,
  "shape_factor": null,
  "has_reconstructed": null,
  "possible_species": null,
  "has_props": null,
  "theoretical": null,
  "database_IDs": null,
  "fields_not_requested": [
    "builder_meta",
    "nsites",
    "elements",
    "nelements",
    "composition",
    "composition_reduced",
    "chemsys",
    "symmetry",
    "property_name",
    "deprecated",
    "deprecation_reasons",
    "last_updated",
    "origins",
    "warnings",
    "task_ids",
    "uncorrected_energy_per_atom",
    "equilibrium_reaction_energy_per_atom",
    "decomposes_to",
    "xas",
    "grain_boundaries",
    "cbm",
    "vbm",
    "is_gap_direct",
    "is_metal",
    "es_source_calc_id",
    "bandstructure",
    "dos",
    "dos_energy_up",
    "dos_energy_down",
    "is_magnetic",
    "ordering",
    "total_magnetization_normalized_vol",
    "total_magnetization_normalized_formula_units",
    "num_magnetic_sites",
    "num_unique_magnetic_sites",
    "types_of_magnetic_species",
    "bulk_modulus",
    "shear_modulus",
    "universal_anisotropy",
    "homogeneous_poisson",
    "e_total",
    "e_ionic",
    "e_electronic",
    "n",
    "e_ij_max",
    "weighted_surface_energy_EV_PER_ANG2",
    "weighted_surface_energy",
    "weighted_work_function",
    "surface_anisotropy",
    "shape_factor",
    "has_reconstructed",
    "possible_species",
    "has_props",
    "theoretical",
    "database_IDs"
  ]
}
