{"builder_meta": null, "nsites": null, "elements": null, "nelements": null, "composition": null, "composition_reduced": null, "formula_pretty": "Y3Ni2", "formula_anonymous": "A2B3", "chemsys": null, "volume": 1834.4839150155633, "density": 5.562940278562986, "density_atomic": 22.93104893769454, "symmetry": null, "property_name": null, "material_id": "mp-582134", "deprecated": null, "deprecation_reasons": null, "last_updated": null, "origins": null, "warnings": null, "structure": {"@module": "pymatgen.core.structure", "@class": "Structure", "charge": 0, "lattice": {"matrix": [[7.070963, 0.0, 0.0], [0.0, 7.070963, 0.0], [0.0, 0.0, 36.690765999999996]], "pbc": [true, true, true], "a": 7.070963, "b": 7.070963, "c": 36.690765999999996, "alpha": 90.0, "beta": 90.0, "gamma": 90.0, "volume": 1834.4839150155628}, "properties": {}, "sites": [{"species": [{"element": "Y", "occu": 1}], "abc": [0.836322999999999, 0.988885999999999, 0.410686], "properties": {"magmom": -0.0}, "label": "Y", "xyz": [5.913608989048993, 6.992376317217993, 15.068383925475999]}, {"species": [{"element": "Y", "occu": 1}], "abc": [0.9393900000000001, 0.692004, 0.7644500000000001], "properties": {"magmom": 0.0}, "label": "Y", "xyz": [6.642391932570001, 4.8931346798519995, 28.0482560687]}, {"species": [{"element": "Y", "occu": 1}], "abc": [0.840244, 0.664281999999999, 0.318613], "properties": {"magmom": -0.0}, "label": "Y", "xyz": [5.9413342349719995, 4.697113443565993, 11.690155027557998]}, {"species": [{"element": "Y", "occu": 1}], "abc": [0.818357999999999, 0.181642, 0.75], "properties": {"magmom": -0.0}, "label": "Y", "xyz": [5.786579138753993, 1.284383861246, 27.518074499999997]}, {"species": [{"element": "Y", "occu": 1}], "abc": [0.534748, 0.465252, 0.25], "properties": {"magmom": -0.0}, "label": "Y", "xyz": [3.781183322324, 3.289779677676, 9.172691499999999]}, {"species": [{"element": "Y", "occu": 1}], "abc": [0.708872, 0.484863, 0.407383], "properties": {"magmom": -0.0}, "label": "Y", "xyz": [5.012407683736, 3.428448333069, 14.947194325377998]}, {"species": [{"element": "Y", "occu": 1}], "abc": [0.835718, 0.340244, 0.568612999999999], "properties": {"magmom": -0.0}, "label": "Y", "xyz": [5.909331056434, 2.405852734972, 20.862846527557963]}, {"species": [{"element": "Y", "occu": 1}], "abc": [0.681642, 0.681642, 0.5], "properties": {"magmom": -0.0}, "label": "Y", "xyz": [4.819865361245999, 4.819865361245999, 18.345382999999998]}, {"species": [{"element": "Y", "occu": 1}], "abc": [0.488886, 0.663677, 0.160686], "properties": {"magmom": -0.0}, "label": "Y", "xyz": [3.456894817218, 4.692835510950999, 5.895692425476]}, {"species": [{"element": "Y", "occu": 1}], "abc": [0.659756, 0.164281999999999, 0.931387], "properties": {"magmom": -0.0}, "label": "Y", "xyz": [4.665110265028, 1.161631943565993, 34.173302472441996]}, {"species": [{"element": "Y", "occu": 1}], "abc": [0.988885999999999, 0.836322999999999, 0.589314], "properties": {"magmom": -0.0}, "label": "Y", "xyz": [6.992376317217993, 5.913608989048993, 21.622382074523998]}, {"species": [{"element": "Y", "occu": 1}], "abc": [0.3065, 0.856904, 0.825797], "properties": {"magmom": -0.0}, "label": "Y", "xyz": [2.1672501595, 6.059136478552, 30.299124490501995]}, {"species": [{"element": "Y", "occu": 1}], "abc": [0.336323, 0.511114, 0.339314], "properties": {"magmom": -0.0}, "label": "Y", "xyz": [2.3781274890489996, 3.614068182782, 12.449690574523999]}, {"species": [{"element": "Y", "occu": 1}], "abc": [0.664281999999999, 0.840244, 0.681387], "properties": {"magmom": -0.0}, "label": "Y", "xyz": [4.697113443565993, 5.9413342349719995, 25.000610972441997]}, {"species": [{"element": "Y", "occu": 1}], "abc": [0.208872, 0.015137, 0.342617], "properties": {"magmom": -0.0}, "label": "Y", "xyz": [1.476926183736, 0.107033166931, 12.570880174622]}, {"species": [{"element": "Y", "occu": 1}], "abc": [0.692004, 0.9393900000000001, 0.23555], "properties": {"magmom": -0.0}, "label": "Y", "xyz": [4.8931346798519995, 6.642391932570001, 8.6425099313]}, {"species": [{"element": "Y", "occu": 1}], "abc": [0.663677, 0.488886, 0.839314], "properties": {"magmom": -0.0}, "label": "Y", "xyz": [4.692835510950999, 3.456894817218, 30.795073574523997]}, {"species": [{"element": "Y", "occu": 1}], "abc": [0.143096, 0.6935, 0.674203], "properties": {"magmom": -0.0}, "label": "Y", "xyz": [1.011826521448, 4.9037128405, 24.737024509498]}, {"species": [{"element": "Y", "occu": 1}], "abc": [0.164281999999999, 0.659756, 0.068613], "properties": {"magmom": -0.0}, "label": "Y", "xyz": [1.161631943565993, 4.665110265028, 2.5174635275579997]}, {"species": [{"element": "Y", "occu": 1}], "abc": [0.465252, 0.534748, 0.75], "properties": {"magmom": -0.0}, "label": "Y", "xyz": [3.289779677676, 3.781183322324, 27.518074499999997]}, {"species": [{"element": "Y", "occu": 1}], "abc": [0.8065, 0.643096, 0.924203], "properties": {"magmom": -0.0}, "label": "Y", "xyz": [5.7027316594999995, 4.547308021448, 33.909716009498]}, {"species": [{"element": "Y", "occu": 1}], "abc": [0.515137, 0.291128, 0.092616999999999], "properties": {"magmom": -0.0}, "label": "Y", "xyz": [3.6425146669309996, 2.058555316264, 3.3981886746219634]}, {"species": [{"element": "Y", "occu": 1}], "abc": [0.163677, 0.011113999999999001, 0.910686], "properties": {"magmom": -0.0}, "label": "Y", "xyz": [1.1573540109509999, 0.07858668278199293, 33.413766925476]}, {"species": [{"element": "Y", "occu": 1}], "abc": [0.807995999999999, 0.43939000000000006, 0.014450000000000001], "properties": {"magmom": -0.0}, "label": "Y", "xyz": [5.713309820147993, 3.1069104325700003, 0.5301815687]}, {"species": [{"element": "Y", "occu": 1}], "abc": [0.965252, 0.965252, 0.0], "properties": {"magmom": -0.0}, "label": "Y", "xyz": [6.8252611776759995, 6.8252611776759995, 0.0]}, {"species": [{"element": "Y", "occu": 1}], "abc": [0.015137, 0.208872, 0.657382999999999], "properties": {"magmom": -0.0}, "label": "Y", "xyz": [0.107033166931, 1.476926183736, 24.119885825377963]}, {"species": [{"element": "Y", "occu": 1}], "abc": [0.356904, 0.1935, 0.575797], "properties": {"magmom": -0.0}, "label": "Y", "xyz": [2.523654978552, 1.3682313405, 21.126432990501996]}, {"species": [{"element": "Y", "occu": 1}], "abc": [0.159755999999999, 0.335717999999999, 0.818612999999999], "properties": {"magmom": -0.0}, "label": "Y", "xyz": [1.129628765027993, 2.373849556433993, 30.035538027557962]}, {"species": [{"element": "Y", "occu": 1}], "abc": [0.318358, 0.318358, 0.0], "properties": {"magmom": -0.0}, "label": "Y", "xyz": [2.2510976387539996, 2.2510976387539996, 0.0]}, {"species": [{"element": "Y", "occu": 1}], "abc": [0.060610000000000004, 0.307996, 0.26445], "properties": {"magmom": 0.0}, "label": "Y", "xyz": [0.42857106743, 2.177828320148, 9.702873068699999]}, {"species": [{"element": "Y", "occu": 1}], "abc": [0.340244, 0.835718, 0.431386999999999], "properties": {"magmom": -0.0}, "label": "Y", "xyz": [2.405852734972, 5.909331056434, 15.827919472441963]}, {"species": [{"element": "Y", "occu": 1}], "abc": [0.181642, 0.818357999999999, 0.25], "properties": {"magmom": 0.0}, "label": "Y", "xyz": [1.284383861246, 5.786579138753993, 9.172691499999999]}, {"species": [{"element": "Y", "occu": 1}], "abc": [0.034748, 0.034748, 0.5], "properties": {"magmom": -0.0}, "label": "Y", "xyz": [0.245701822324, 0.245701822324, 18.345382999999998]}, {"species": [{"element": "Y", "occu": 1}], "abc": [0.307996, 0.060610000000000004, 0.73555], "properties": {"magmom": -0.0}, "label": "Y", "xyz": [2.177828320148, 0.42857106743, 26.9878929313]}, {"species": [{"element": "Y", "occu": 1}], "abc": [0.6935, 0.143096, 0.325797], "properties": {"magmom": -0.0}, "label": "Y", "xyz": [4.9037128405, 1.011826521448, 11.953741490501999]}, {"species": [{"element": "Y", "occu": 1}], "abc": [0.335717999999999, 0.159755999999999, 0.181387], "properties": {"magmom": -0.0}, "label": "Y", "xyz": [2.373849556433993, 1.129628765027993, 6.655227972441999]}, {"species": [{"element": "Y", "occu": 1}], "abc": [0.43939000000000006, 0.807995999999999, 0.98555], "properties": {"magmom": -0.0}, "label": "Y", "xyz": [3.1069104325700003, 5.713309820147993, 36.160584431299995]}, {"species": [{"element": "Y", "occu": 1}], "abc": [0.484863, 0.708872, 0.592617], "properties": {"magmom": -0.0}, "label": "Y", "xyz": [3.428448333069, 5.012407683736, 21.743571674621997]}, {"species": [{"element": "Y", "occu": 1}], "abc": [0.56061, 0.192003999999999, 0.48555000000000004], "properties": {"magmom": -0.0}, "label": "Y", "xyz": [3.9640525674300005, 1.357653179851993, 17.8152014313]}, {"species": [{"element": "Y", "occu": 1}], "abc": [0.192003999999999, 0.56061, 0.5144500000000001], "properties": {"magmom": -0.0}, "label": "Y", "xyz": [1.357653179851993, 3.9640525674300005, 18.8755645687]}, {"species": [{"element": "Y", "occu": 1}], "abc": [0.643096, 0.8065, 0.075797], "properties": {"magmom": -0.0}, "label": "Y", "xyz": [4.547308021448, 5.7027316594999995, 2.781049990502]}, {"species": [{"element": "Y", "occu": 1}], "abc": [0.011113999999999001, 0.163677, 0.089313999999999], "properties": {"magmom": -0.0}, "label": "Y", "xyz": [0.07858668278199293, 1.1573540109509999, 3.276999074523963]}, {"species": [{"element": "Y", "occu": 1}], "abc": [0.511114, 0.336323, 0.660686], "properties": {"magmom": -0.0}, "label": "Y", "xyz": [3.614068182782, 2.3781274890489996, 24.241075425475998]}, {"species": [{"element": "Y", "occu": 1}], "abc": [0.984862999999999, 0.791127999999999, 0.157383], "properties": {"magmom": -0.0}, "label": "Y", "xyz": [6.963929833068993, 5.594036816263993, 5.774502825377999]}, {"species": [{"element": "Y", "occu": 1}], "abc": [0.291128, 0.515137, 0.907382999999999], "properties": {"magmom": -0.0}, "label": "Y", "xyz": [2.058555316264, 3.6425146669309996, 33.29257732537796]}, {"species": [{"element": "Y", "occu": 1}], "abc": [0.791127999999999, 0.984862999999999, 0.842617], "properties": {"magmom": -0.0}, "label": "Y", "xyz": [5.594036816263993, 6.963929833068993, 30.916263174621996]}, {"species": [{"element": "Y", "occu": 1}], "abc": [0.1935, 0.356904, 0.424203], "properties": {"magmom": -0.0}, "label": "Y", "xyz": [1.3682313405, 2.523654978552, 15.564333009497998]}, {"species": [{"element": "Y", "occu": 1}], "abc": [0.856904, 0.3065, 0.174203], "properties": {"magmom": -0.0}, "label": "Y", "xyz": [6.059136478552, 2.1672501595, 6.391641509497999]}, {"species": [{"element": "Ni", "occu": 1}], "abc": [0.011734, 0.653534, 0.855881999999999], "properties": {"magmom": 0.0}, "label": "Ni", "xyz": [0.082970679842, 4.621114733242, 31.402966185611962]}, {"species": [{"element": "Ni", "occu": 1}], "abc": [0.102896999999999, 0.625807999999999, 0.9763179999999991], "properties": {"magmom": 0.0}, "label": "Ni", "xyz": [0.727580879810993, 4.425065213103993, 35.821855279587965]}, {"species": [{"element": "Ni", "occu": 1}], "abc": [0.125808, 0.397103, 0.726318], "properties": {"magmom": 0.0}, "label": "Ni", "xyz": [0.889583713104, 2.8079006201889998, 26.649163779587997]}, {"species": [{"element": "Ni", "occu": 1}], "abc": [0.153534, 0.488266, 0.605881999999999], "properties": {"magmom": 0.0}, "label": "Ni", "xyz": [1.085633233242, 3.452510820158, 22.230274685611963]}, {"species": [{"element": "Ni", "occu": 1}], "abc": [0.511384, 0.190837999999999, 0.798661], "properties": {"magmom": 0.0}, "label": "Ni", "xyz": [3.6159773427919997, 1.349408436993993, 29.303483864325994]}, {"species": [{"element": "Ni", "occu": 1}], "abc": [0.988615999999999, 0.690838, 0.451339], "properties": {"magmom": -0.0}, "label": "Ni", "xyz": [6.990467157207993, 4.884889936994, 16.559973635673998]}, {"species": [{"element": "Ni", "occu": 1}], "abc": [0.488266, 0.153534, 0.394117999999999], "properties": {"magmom": -0.0}, "label": "Ni", "xyz": [3.452510820158, 1.085633233242, 14.460491314387962]}, {"species": [{"element": "Ni", "occu": 1}], "abc": [0.011384, 0.309162, 0.951338999999999], "properties": {"magmom": -0.0}, "label": "Ni", "xyz": [0.080495842792, 2.186073063006, 34.90535663567396]}, {"species": [{"element": "Ni", "occu": 1}], "abc": [0.625807999999999, 0.102896999999999, 0.023681999999999002], "properties": {"magmom": 0.0}, "label": "Ni", "xyz": [4.425065213103993, 0.727580879810993, 0.8689107204119633]}, {"species": [{"element": "Ni", "occu": 1}], "abc": [0.511734, 0.846465999999999, 0.894118], "properties": {"magmom": -0.0}, "label": "Ni", "xyz": [3.618452179842, 5.985329766757993, 32.80587431438799]}, {"species": [{"element": "Ni", "occu": 1}], "abc": [0.988266, 0.346466, 0.355882], "properties": {"magmom": 0.0}, "label": "Ni", "xyz": [6.987992320158, 2.449848266758, 13.057583185611998]}, {"species": [{"element": "Ni", "occu": 1}], "abc": [0.190837999999999, 0.511384, 0.201339], "properties": {"magmom": 0.0}, "label": "Ni", "xyz": [1.349408436993993, 3.6159773427919997, 7.387282135673999]}, {"species": [{"element": "Ni", "occu": 1}], "abc": [0.809161999999999, 0.488616, 0.701338999999999], "properties": {"magmom": 0.0}, "label": "Ni", "xyz": [5.721554563005993, 3.4549856572079998, 25.73266513567396]}, {"species": [{"element": "Ni", "occu": 1}], "abc": [0.653534, 0.011734, 0.144118], "properties": {"magmom": 0.0}, "label": "Ni", "xyz": [4.621114733242, 0.082970679842, 5.287799814387999]}, {"species": [{"element": "Ni", "occu": 1}], "abc": [0.945186, 0.319148999999999, 0.883992999999999], "properties": {"magmom": 0.0}, "label": "Ni", "xyz": [6.6833752341179995, 2.256690770486993, 32.43438030863796]}, {"species": [{"element": "Ni", "occu": 1}], "abc": [0.397103, 0.125808, 0.273682], "properties": {"magmom": 0.0}, "label": "Ni", "xyz": [2.8079006201889998, 0.889583713104, 10.041602220411999]}, {"species": [{"element": "Ni", "occu": 1}], "abc": [0.488616, 0.809161999999999, 0.298661], "properties": {"magmom": 0.0}, "label": "Ni", "xyz": [3.4549856572079998, 5.721554563005993, 10.958100864326]}, {"species": [{"element": "Ni", "occu": 1}], "abc": [0.054813999999999, 0.680851, 0.383993], "properties": {"magmom": 0.0}, "label": "Ni", "xyz": [0.38758776588199295, 4.814272229513, 14.088997308637998]}, {"species": [{"element": "Ni", "occu": 1}], "abc": [0.897103, 0.374191999999999, 0.476317999999999], "properties": {"magmom": 0.0}, "label": "Ni", "xyz": [6.343382120189, 2.645897786895993, 17.476472279587963]}, {"species": [{"element": "Ni", "occu": 1}], "abc": [0.690838, 0.988615999999999, 0.548661], "properties": {"magmom": -0.0}, "label": "Ni", "xyz": [4.884889936994, 6.990467157207993, 20.130792364325995]}, {"species": [{"element": "Ni", "occu": 1}], "abc": [0.602897, 0.874192, 0.773682], "properties": {"magmom": 0.0}, "label": "Ni", "xyz": [4.263062379811, 6.181379286896, 28.386985220411997]}, {"species": [{"element": "Ni", "occu": 1}], "abc": [0.346466, 0.988266, 0.644118], "properties": {"magmom": 0.0}, "label": "Ni", "xyz": [2.449848266758, 6.987992320158, 23.633182814387997]}, {"species": [{"element": "Ni", "occu": 1}], "abc": [0.819149, 0.554814, 0.633992999999999], "properties": {"magmom": 0.0}, "label": "Ni", "xyz": [5.792172270487, 3.9230692658820003, 23.261688808637963]}, {"species": [{"element": "Ni", "occu": 1}], "abc": [0.319148999999999, 0.945186, 0.116007], "properties": {"magmom": 0.0}, "label": "Ni", "xyz": [2.256690770486993, 6.6833752341179995, 4.2563856913619995]}, {"species": [{"element": "Ni", "occu": 1}], "abc": [0.680851, 0.054813999999999, 0.616007], "properties": {"magmom": 0.0}, "label": "Ni", "xyz": [4.814272229513, 0.38758776588199295, 22.601768691361997]}, {"species": [{"element": "Ni", "occu": 1}], "abc": [0.374191999999999, 0.897103, 0.523682], "properties": {"magmom": 0.0}, "label": "Ni", "xyz": [2.645897786895993, 6.343382120189, 19.214293720411998]}, {"species": [{"element": "Ni", "occu": 1}], "abc": [0.554814, 0.819149, 0.366006999999999], "properties": {"magmom": 0.0}, "label": "Ni", "xyz": [3.9230692658820003, 5.792172270487, 13.429077191361962]}, {"species": [{"element": "Ni", "occu": 1}], "abc": [0.180850999999999, 0.445185999999999, 0.133993], "properties": {"magmom": 0.0}, "label": "Ni", "xyz": [1.278790729512993, 3.147893734117993, 4.916305808638]}, {"species": [{"element": "Ni", "occu": 1}], "abc": [0.309162, 0.011384, 0.048660999999999004], "properties": {"magmom": 0.0}, "label": "Ni", "xyz": [2.186073063006, 0.080495842792, 1.7854093643259632]}, {"species": [{"element": "Ni", "occu": 1}], "abc": [0.445185999999999, 0.180850999999999, 0.866007], "properties": {"magmom": 0.0}, "label": "Ni", "xyz": [3.147893734117993, 1.278790729512993, 31.774460191361996]}, {"species": [{"element": "Ni", "occu": 1}], "abc": [0.874192, 0.602897, 0.226318], "properties": {"magmom": 0.0}, "label": "Ni", "xyz": [6.181379286896, 4.263062379811, 8.303780779588]}, {"species": [{"element": "Ni", "occu": 1}], "abc": [0.846465999999999, 0.511734, 0.105881999999999], "properties": {"magmom": 0.0}, "label": "Ni", "xyz": [5.985329766757993, 3.618452179842, 3.8848916856119633]}]}, "task_ids": null, "uncorrected_energy_per_atom": null, "energy_per_atom": -6.54789969775, "formation_energy_per_atom": -0.33039012575000004, "energy_above_hull": 0.0, "is_stable": true, "equilibrium_reaction_energy_per_atom": null, "decomposes_to": null, "xas": null, "grain_boundaries": null, "band_gap": 0.0, "cbm": null, "vbm": null, "efermi": 4.21167675, "is_gap_direct": null, "is_metal": null, "es_source_calc_id": null, "bandstructure": null, "dos": null, "dos_energy_up": null, "dos_energy_down": null, "is_magnetic": null, "ordering": null, "total_magnetization": 0.0128492, "total_magnetization_normalized_vol": null, "total_magnetization_normalized_formula_units": null, "num_magnetic_sites": null, "num_unique_magnetic_sites": null, "types_of_magnetic_species": null, "bulk_modulus": null, "shear_modulus": null, "universal_anisotropy": null, "homogeneous_poisson": null, "e_total": null, "e_ionic": null, "e_electronic": null, "n": null, "e_ij_max": null, "weighted_surface_energy_EV_PER_ANG2": null, "weighted_surface_energy": null, "weighted_work_function": null, "surface_anisotropy": null, "shape_factor": null, "has_reconstructed": null, "possible_species": null, "has_props": null, "theoretical": null, "database_IDs": null, "fields_not_requested": ["builder_meta", "nsites", "elements", "nelements", "composition", "composition_reduced", "chemsys", "symmetry", "property_name", "deprecated", "deprecation_reasons", "last_updated", "origins", "warnings", "task_ids", "uncorrected_energy_per_atom", "equilibrium_reaction_energy_per_atom", "decomposes_to", "xas", "grain_boundaries", "cbm", "vbm", "is_gap_direct", "is_metal", "es_source_calc_id", "bandstructure", "dos", "dos_energy_up", "dos_energy_down", "is_magnetic", "ordering", "total_magnetization_normalized_vol", "total_magnetization_normalized_formula_units", "num_magnetic_sites", "num_unique_magnetic_sites", "types_of_magnetic_species", "bulk_modulus", "shear_modulus", "universal_anisotropy", "homogeneous_poisson", "e_total", "e_ionic", "e_electronic", "n", "e_ij_max", "weighted_surface_energy_EV_PER_ANG2", "weighted_surface_energy", "weighted_work_function", "surface_anisotropy", "shape_factor", "has_reconstructed", "possible_species", "has_props", "theoretical", "database_IDs"]}