{"builder_meta": null, "nsites": null, "elements": null, "nelements": null, "composition": null, "composition_reduced": null, "formula_pretty": "Y3Os", "formula_anonymous": "AB3", "chemsys": null, "volume": 429.6982595076385, "density": 7.063368225243354, "density_atomic": 26.856141219227407, "symmetry": null, "property_name": null, "material_id": "mp-1188757", "deprecated": null, "deprecation_reasons": null, "last_updated": null, "origins": null, "warnings": null, "structure": {"@module": "pymatgen.core.structure", "@class": "Structure", "charge": 0, "lattice": {"matrix": [[-0.0, 0.0, 6.38559307], [7.4039912900000004, 0.0, 0.0], [0.0, 9.08858883, 0.0]], "pbc": [true, true, true], "a": 6.38559307, "b": 7.4039912900000004, "c": 9.08858883, "alpha": 90.0, "beta": 90.0, "gamma": 90.0, "volume": 429.69825950763857}, "properties": {}, "sites": [{"species": [{"element": "Y", "occu": 1}], "abc": [0.33060202, 0.6724883700000001, 0.06397013], "properties": {"magmom": -0.0}, "label": "Y", "xyz": [4.979098034106298, 0.581398208971648, 2.1110899678400012]}, {"species": [{"element": "Y", "occu": 1}], "abc": [0.16939798, 0.17248837, 0.43602987], "properties": {"magmom": -0.0}, "label": "Y", "xyz": [1.2771023891062974, 3.9628962060283524, 1.0817065671599986]}, {"species": [{"element": "Y", "occu": 1}], "abc": [0.6693979800000001, 0.32751163, 0.56397013], "properties": {"magmom": -0.0}, "label": "Y", "xyz": [2.4248932558937026, 5.125692623971648, 4.274503102159999]}, {"species": [{"element": "Y", "occu": 1}], "abc": [0.83060202, 0.82751163, 0.93602987], "properties": {"magmom": -0.0}, "label": "Y", "xyz": [6.126888900893704, 8.507190621028354, 5.303886502840001]}, {"species": [{"element": "Y", "occu": 1}], "abc": [0.6693979800000001, 0.32751163, 0.93602987], "properties": {"magmom": -0.0}, "label": "Y", "xyz": [2.4248932558937026, 8.507190621028354, 4.274503102159999]}, {"species": [{"element": "Y", "occu": 1}], "abc": [0.83060202, 0.82751163, 0.56397013], "properties": {"magmom": -0.0}, "label": "Y", "xyz": [6.126888900893704, 5.125692623971648, 5.303886502840001]}, {"species": [{"element": "Y", "occu": 1}], "abc": [0.33060202, 0.6724883700000001, 0.43602987], "properties": {"magmom": -0.0}, "label": "Y", "xyz": [4.979098034106298, 3.9628962060283524, 2.1110899678400012]}, {"species": [{"element": "Y", "occu": 1}], "abc": [0.16939798, 0.17248837, 0.06397013], "properties": {"magmom": -0.0}, "label": "Y", "xyz": [1.2771023891062974, 0.581398208971648, 1.0817065671599986]}, {"species": [{"element": "Y", "occu": 1}], "abc": [0.87087049, 0.54312099, 0.25], "properties": {"magmom": 0.0}, "label": "Y", "xyz": [4.021263079376178, 2.2721472075, 5.561024565811504]}, {"species": [{"element": "Y", "occu": 1}], "abc": [0.6291295100000001, 0.04312099, 0.25], "properties": {"magmom": 0.0}, "label": "Y", "xyz": [0.3192674343761771, 2.2721472075, 4.017365039188496]}, {"species": [{"element": "Y", "occu": 1}], "abc": [0.12912951, 0.45687901000000003, 0.75], "properties": {"magmom": 0.0}, "label": "Y", "xyz": [3.3827282106238235, 6.816441622500001, 0.8245685041884957]}, {"species": [{"element": "Y", "occu": 1}], "abc": [0.37087049, 0.95687901, 0.75], "properties": {"magmom": 0.0}, "label": "Y", "xyz": [7.084723855623823, 6.816441622500001, 2.3682280308115042]}, {"species": [{"element": "Os", "occu": 1}], "abc": [0.03463255, 0.883390399999999, 0.25], "properties": {"magmom": 0.0}, "label": "Os", "xyz": [6.540614827269609, 2.2721472075, 0.22114937127642847]}, {"species": [{"element": "Os", "occu": 1}], "abc": [0.46536745, 0.383390399999999, 0.25], "properties": {"magmom": 0.0}, "label": "Os", "xyz": [2.8386191822696087, 2.2721472075, 2.9716471637235715]}, {"species": [{"element": "Os", "occu": 1}], "abc": [0.96536745, 0.1166096, 0.75], "properties": {"magmom": 0.0}, "label": "Os", "xyz": [0.863376462730384, 6.816441622500001, 6.164443698723571]}, {"species": [{"element": "Os", "occu": 1}], "abc": [0.53463255, 0.6166096, 0.75], "properties": {"magmom": 0.0}, "label": "Os", "xyz": [4.565372107730384, 6.816441622500001, 3.413945906276428]}]}, "task_ids": null, "uncorrected_energy_per_atom": null, "energy_per_atom": -28.742897946875, "formation_energy_per_atom": -0.26139001437500303, "energy_above_hull": 0.0, "is_stable": true, "equilibrium_reaction_energy_per_atom": null, "decomposes_to": null, "xas": null, "grain_boundaries": null, "band_gap": 0.0, "cbm": null, "vbm": null, "efermi": 3.86652801, "is_gap_direct": null, "is_metal": null, "es_source_calc_id": null, "bandstructure": null, "dos": null, "dos_energy_up": null, "dos_energy_down": null, "is_magnetic": null, "ordering": null, "total_magnetization": 0.0, "total_magnetization_normalized_vol": null, "total_magnetization_normalized_formula_units": null, "num_magnetic_sites": null, "num_unique_magnetic_sites": null, "types_of_magnetic_species": null, "bulk_modulus": null, "shear_modulus": null, "universal_anisotropy": null, "homogeneous_poisson": null, "e_total": null, "e_ionic": null, "e_electronic": null, "n": null, "e_ij_max": null, "weighted_surface_energy_EV_PER_ANG2": null, "weighted_surface_energy": null, "weighted_work_function": null, "surface_anisotropy": null, "shape_factor": null, "has_reconstructed": null, "possible_species": null, "has_props": null, "theoretical": null, "database_IDs": null, "fields_not_requested": ["builder_meta", "nsites", "elements", "nelements", "composition", "composition_reduced", "chemsys", "symmetry", "property_name", "deprecated", "deprecation_reasons", "last_updated", "origins", "warnings", "task_ids", "uncorrected_energy_per_atom", "equilibrium_reaction_energy_per_atom", "decomposes_to", "xas", "grain_boundaries", "cbm", "vbm", "is_gap_direct", "is_metal", "es_source_calc_id", "bandstructure", "dos", "dos_energy_up", "dos_energy_down", "is_magnetic", "ordering", "total_magnetization_normalized_vol", "total_magnetization_normalized_formula_units", "num_magnetic_sites", "num_unique_magnetic_sites", "types_of_magnetic_species", "bulk_modulus", "shear_modulus", "universal_anisotropy", "homogeneous_poisson", "e_total", "e_ionic", "e_electronic", "n", "e_ij_max", "weighted_surface_energy_EV_PER_ANG2", "weighted_surface_energy", "weighted_work_function", "surface_anisotropy", "shape_factor", "has_reconstructed", "possible_species", "has_props", "theoretical", "database_IDs"]}