{
  "builder_meta": null,
  "nsites": null,
  "elements": null,
  "nelements": null,
  "composition": null,
  "composition_reduced": null,
  "formula_pretty": "Y3Pd2",
  "formula_anonymous": "A2B3",
  "chemsys": null,
  "volume": 368.4701745324196,
  "density": 6.483488500542819,
  "density_atomic": 24.564678302161308,
  "symmetry": null,
  "property_name": null,
  "material_id": "mp-1104388",
  "deprecated": null,
  "deprecation_reasons": null,
  "last_updated": null,
  "origins": null,
  "warnings": null,
  "structure": {
    "@module": "pymatgen.core.structure",
    "@class": "Structure",
    "charge": 0,
    "lattice": {
      "matrix": [
        [6.07869462, -4.38757265, 0.0185138],
        [6.07873638, 4.38762331, 0.01851697],
        [2.89066328, 2.4770000000000002e-5, 6.91650845]
      ],
      "pbc": [true, true, true],
      "a": 7.496776961003669,
      "b": 7.496840478906353,
      "c": 7.496267293651909,
      "alpha": 71.64209657780856,
      "beta": 71.64232220130137,
      "gamma": 71.6430160096634,
      "volume": 368.4701745324196
    },
    "properties": {},
    "sites": [
      {
        "species": [{ "element": "Y", "occu": 1 }],
        "abc": [0.0, -0.0, -0.0],
        "properties": { "magmom": 0.0 },
        "label": "Y",
        "xyz": [0.0, 0.0, 0.0]
      },
      {
        "species": [{ "element": "Y", "occu": 1 }],
        "abc": [0.79475944, 0.79479021, 0.794836],
        "properties": { "magmom": 0.0 },
        "label": "Y",
        "xyz": [11.960023334939134, 0.00019495777019949527, 5.5269210341593356]
      },
      {
        "species": [{ "element": "Y", "occu": 1 }],
        "abc": [0.20524056000000002, 0.20520979, 0.205163999999999],
        "properties": { "magmom": 0.0 },
        "label": "Y",
        "xyz": [3.0880709450608643, -0.00011952777019907103, 1.4266181858406575]
      },
      {
        "species": [{ "element": "Y", "occu": 1 }],
        "abc": [0.34167287, 0.60705714, 0.82892116],
        "properties": { "magmom": 0.0 },
        "label": "Y",
        "xyz": [8.163197317552719, 1.1644440506840614, 5.750806729554075]
      },
      {
        "species": [{ "element": "Y", "occu": 1 }],
        "abc": [0.82884743, 0.34165161, 0.60709902],
        "properties": { "magmom": 0.0 },
        "label": "Y",
        "xyz": [8.870039328972386, -2.1375747091130353, 4.220676969979075]
      },
      {
        "species": [{ "element": "Y", "occu": 1 }],
        "abc": [0.60705482, 0.82889673, 0.34161416],
        "properties": { "magmom": 0.0 },
        "label": "Y",
        "xyz": [9.71623708453315, 0.9733979506308466, 2.389364771688676]
      },
      {
        "species": [{ "element": "Y", "occu": 1 }],
        "abc": [0.65832713, 0.39294286, 0.17107884],
        "properties": { "magmom": 0.0 },
        "label": "Y",
        "xyz": [6.884896962447283, -1.1643686206840609, 1.2027324904459264]
      },
      {
        "species": [{ "element": "Y", "occu": 1 }],
        "abc": [0.17115257, 0.65834839, 0.39290098],
        "properties": { "magmom": 0.0 },
        "label": "Y",
        "xyz": [6.178054951027616, 2.137650139113035, 2.7328622500209256]
      },
      {
        "species": [{ "element": "Y", "occu": 1 }],
        "abc": [0.39294518, 0.17110327, 0.65838584],
        "properties": { "magmom": 0.0 },
        "label": "Y",
        "xyz": [5.331857195466849, -0.9733225206308463, 4.5641744483113245]
      },
      {
        "species": [{ "element": "Pd", "occu": 1 }],
        "abc": [0.1572864, 0.95769835, 0.58993861],
        "properties": { "magmom": 0.0 },
        "label": "Pd",
        "xyz": [8.483005672071382, 3.511928710330949, 4.100961021614574]
      },
      {
        "species": [{ "element": "Pd", "occu": 1 }],
        "abc": [0.58991865, 0.15729074, 0.95770805],
        "properties": { "magmom": 0.0 },
        "label": "Pd",
        "xyz": [7.310475760563189, -1.8981546947653745, 6.637830004274251]
      },
      {
        "species": [{ "element": "Pd", "occu": 1 }],
        "abc": [0.9577092500000001, 0.58994843, 0.15723282],
        "properties": { "magmom": 0.0 },
        "label": "Pd",
        "xyz": [9.862270188448969, -1.6135435341291584, 1.116157023039836]
      },
      {
        "species": [{ "element": "Pd", "occu": 1 }],
        "abc": [0.8427136, 0.04230165, 0.41006139],
        "properties": { "magmom": 0.0 },
        "label": "Pd",
        "xyz": [6.565088607928618, -3.5118532803309477, 2.852578198385426]
      },
      {
        "species": [{ "element": "Pd", "occu": 1 }],
        "abc": [0.41008135, 0.84270926, 0.04229195],
        "properties": { "magmom": 0.0 },
        "label": "Pd",
        "xyz": [7.737618519436812, 1.898230124765375, 0.3157092157257497]
      },
      {
        "species": [{ "element": "Pd", "occu": 1 }],
        "abc": [0.04229075, 0.41005157000000003, 0.8427671800000001],
        "properties": { "magmom": 0.0 },
        "label": "Pd",
        "xyz": [5.185824091551032, 1.613618964129158, 5.8373821969601645]
      }
    ]
  },
  "task_ids": null,
  "uncorrected_energy_per_atom": null,
  "energy_per_atom": -22.108206254666666,
  "formation_energy_per_atom": -0.7358642346666671,
  "energy_above_hull": 0.012317507583336001,
  "is_stable": false,
  "equilibrium_reaction_energy_per_atom": null,
  "decomposes_to": null,
  "xas": null,
  "grain_boundaries": null,
  "band_gap": 0.0,
  "cbm": null,
  "vbm": null,
  "efermi": 4.01842392,
  "is_gap_direct": null,
  "is_metal": null,
  "es_source_calc_id": null,
  "bandstructure": null,
  "dos": null,
  "dos_energy_up": null,
  "dos_energy_down": null,
  "is_magnetic": null,
  "ordering": null,
  "total_magnetization": 2.2000000000000003e-5,
  "total_magnetization_normalized_vol": null,
  "total_magnetization_normalized_formula_units": null,
  "num_magnetic_sites": null,
  "num_unique_magnetic_sites": null,
  "types_of_magnetic_species": null,
  "bulk_modulus": null,
  "shear_modulus": null,
  "universal_anisotropy": null,
  "homogeneous_poisson": null,
  "e_total": null,
  "e_ionic": null,
  "e_electronic": null,
  "n": null,
  "e_ij_max": null,
  "weighted_surface_energy_EV_PER_ANG2": null,
  "weighted_surface_energy": null,
  "weighted_work_function": null,
  "surface_anisotropy": null,
  "shape_factor": null,
  "has_reconstructed": null,
  "possible_species": null,
  "has_props": null,
  "theoretical": null,
  "database_IDs": null,
  "fields_not_requested": [
    "builder_meta",
    "nsites",
    "elements",
    "nelements",
    "composition",
    "composition_reduced",
    "chemsys",
    "symmetry",
    "property_name",
    "deprecated",
    "deprecation_reasons",
    "last_updated",
    "origins",
    "warnings",
    "task_ids",
    "uncorrected_energy_per_atom",
    "equilibrium_reaction_energy_per_atom",
    "decomposes_to",
    "xas",
    "grain_boundaries",
    "cbm",
    "vbm",
    "is_gap_direct",
    "is_metal",
    "es_source_calc_id",
    "bandstructure",
    "dos",
    "dos_energy_up",
    "dos_energy_down",
    "is_magnetic",
    "ordering",
    "total_magnetization_normalized_vol",
    "total_magnetization_normalized_formula_units",
    "num_magnetic_sites",
    "num_unique_magnetic_sites",
    "types_of_magnetic_species",
    "bulk_modulus",
    "shear_modulus",
    "universal_anisotropy",
    "homogeneous_poisson",
    "e_total",
    "e_ionic",
    "e_electronic",
    "n",
    "e_ij_max",
    "weighted_surface_energy_EV_PER_ANG2",
    "weighted_surface_energy",
    "weighted_work_function",
    "surface_anisotropy",
    "shape_factor",
    "has_reconstructed",
    "possible_species",
    "has_props",
    "theoretical",
    "database_IDs"
  ]
}
