{
  "builder_meta": null,
  "nsites": null,
  "elements": null,
  "nelements": null,
  "composition": null,
  "composition_reduced": null,
  "formula_pretty": "Y3Pd4",
  "formula_anonymous": "A3B4",
  "chemsys": null,
  "volume": 288.8023897498448,
  "density": 7.962213764152168,
  "density_atomic": 20.628742124988914,
  "symmetry": null,
  "property_name": null,
  "material_id": "mp-1104019",
  "deprecated": null,
  "deprecation_reasons": null,
  "last_updated": null,
  "origins": null,
  "warnings": null,
  "structure": {
    "@module": "pymatgen.core.structure",
    "@class": "Structure",
    "charge": 0,
    "lattice": {
      "matrix": [
        [0.0, 0.0, -5.72939065],
        [0.00023493, -7.62923219, 1.9097972200000002],
        [-6.60722712, 3.81441301, 1.9097972200000002]
      ],
      "pbc": [true, true, true],
      "a": 5.72939065,
      "b": 7.864636627692599,
      "c": 7.864637451760919,
      "alpha": 114.30210491557946,
      "beta": 104.05383473993984,
      "gamma": 104.0538362427827,
      "volume": 288.8023897498448
    },
    "properties": {},
    "sites": [
      {
        "species": [{ "element": "Y", "occu": 1 }],
        "abc": [0.40583676, 0.1277842, 0.37895256],
        "properties": { "magmom": 0.0 },
        "label": "Y",
        "xyz": [-2.503795611283321, 0.4705862430234077, -1.357432882650487]
      },
      {
        "species": [{ "element": "Y", "occu": 1 }],
        "abc": [0.026885199999999002, 0.62104744, 0.74883164],
        "properties": { "magmom": 0.0 },
        "label": "Y",
        "xyz": [-4.947554817446997, -1.8817619708494573, 2.4621554452167835]
      },
      {
        "species": [{ "element": "Y", "occu": 1 }],
        "abc": [0.27805256, 0.25116836, 0.8722158],
        "properties": { "magmom": 0.0 },
        "label": "Y",
        "xyz": [-5.762868881269681, 1.4107695578260497, 0.5523642082874713]
      },
      {
        "species": [{ "element": "Y", "occu": 1 }],
        "abc": [0.59416324, 0.8722158, 0.62104744],
        "properties": { "magmom": 0.0 },
        "label": "Y",
        "xyz": [-4.103196578716679, -4.285405423023407, -0.5523633273495128]
      },
      {
        "species": [{ "element": "Y", "occu": 1 }],
        "abc": [0.9731148, 0.37895256, 0.25116836],
        "properties": { "magmom": 0.0 },
        "label": "Y",
        "xyz": [-1.6594373725530023, -1.9330572091505427, -4.371951655216777]
      },
      {
        "species": [{ "element": "Y", "occu": 1 }],
        "abc": [0.72194744, 0.74883164, 0.1277842],
        "properties": { "magmom": 0.0 },
        "label": "Y",
        "xyz": [-0.8441233087303187, -5.22558873782605, -2.462160418287471]
      },
      {
        "species": [{ "element": "Pd", "occu": 1 }],
        "abc": [0.0, 0.0, 0.0],
        "properties": { "magmom": -0.0 },
        "label": "Pd",
        "xyz": [0.0, 0.0, 0.0]
      },
      {
        "species": [{ "element": "Pd", "occu": 1 }],
        "abc": [0.5, 0.0, 0.0],
        "properties": { "magmom": 0.0 },
        "label": "Pd",
        "xyz": [0.0, 0.0, -2.864695325]
      },
      {
        "species": [{ "element": "Pd", "occu": 1 }],
        "abc": [0.22546027000000002, 0.67615741, 0.16567126000000001],
        "properties": { "magmom": -0.0 },
        "label": "Pd",
        "xyz": [-1.09446879241624, -4.526623268351934, 0.31597209079782207]
      },
      {
        "species": [{ "element": "Pd", "occu": 1 }],
        "abc": [0.059790010000000005, 0.83432874, 0.51048615],
        "properties": { "magmom": -0.0 },
        "label": "Pd",
        "xyz": [-3.3727019258134994, -4.4180826682653285, 2.2257634140791995]
      },
      {
        "species": [{ "element": "Pd", "occu": 1 }],
        "abc": [0.54930386, 0.48951385000000003, 0.32384259],
        "properties": { "magmom": -0.0 },
        "label": "Pd",
        "xyz": [-2.1395865417702606, -2.499345433382736, -1.593830531511812]
      },
      {
        "species": [{ "element": "Pd", "occu": 1 }],
        "abc": [0.77453973, 0.32384259, 0.83432874],
        "properties": { "magmom": -0.0 },
        "label": "Pd",
        "xyz": [-5.5125233975837595, 0.7118040883519354, -2.2257683007978217]
      },
      {
        "species": [{ "element": "Pd", "occu": 1 }],
        "abc": [0.94020999, 0.16567126000000001, 0.48951385000000003],
        "properties": { "magmom": -0.0 },
        "label": "Pd",
        "xyz": [-3.234290264186501, 0.6032634882653292, -4.1355596240792]
      },
      {
        "species": [{ "element": "Pd", "occu": 1 }],
        "abc": [0.45069614, 0.51048615, 0.67615741],
        "properties": { "magmom": -0.0 },
        "label": "Pd",
        "xyz": [-4.4674056482297395, -1.3154737466172644, -0.3159656784881877]
      }
    ]
  },
  "task_ids": null,
  "uncorrected_energy_per_atom": null,
  "energy_per_atom": -22.761168055000002,
  "formation_energy_per_atom": -0.9350798664285741,
  "energy_above_hull": 0.0,
  "is_stable": true,
  "equilibrium_reaction_energy_per_atom": null,
  "decomposes_to": null,
  "xas": null,
  "grain_boundaries": null,
  "band_gap": 0.0,
  "cbm": null,
  "vbm": null,
  "efermi": 4.51149385,
  "is_gap_direct": null,
  "is_metal": null,
  "es_source_calc_id": null,
  "bandstructure": null,
  "dos": null,
  "dos_energy_up": null,
  "dos_energy_down": null,
  "is_magnetic": null,
  "ordering": null,
  "total_magnetization": 1.5e-6,
  "total_magnetization_normalized_vol": null,
  "total_magnetization_normalized_formula_units": null,
  "num_magnetic_sites": null,
  "num_unique_magnetic_sites": null,
  "types_of_magnetic_species": null,
  "bulk_modulus": null,
  "shear_modulus": null,
  "universal_anisotropy": null,
  "homogeneous_poisson": null,
  "e_total": null,
  "e_ionic": null,
  "e_electronic": null,
  "n": null,
  "e_ij_max": null,
  "weighted_surface_energy_EV_PER_ANG2": null,
  "weighted_surface_energy": null,
  "weighted_work_function": null,
  "surface_anisotropy": null,
  "shape_factor": null,
  "has_reconstructed": null,
  "possible_species": null,
  "has_props": null,
  "theoretical": null,
  "database_IDs": null,
  "fields_not_requested": [
    "builder_meta",
    "nsites",
    "elements",
    "nelements",
    "composition",
    "composition_reduced",
    "chemsys",
    "symmetry",
    "property_name",
    "deprecated",
    "deprecation_reasons",
    "last_updated",
    "origins",
    "warnings",
    "task_ids",
    "uncorrected_energy_per_atom",
    "equilibrium_reaction_energy_per_atom",
    "decomposes_to",
    "xas",
    "grain_boundaries",
    "cbm",
    "vbm",
    "is_gap_direct",
    "is_metal",
    "es_source_calc_id",
    "bandstructure",
    "dos",
    "dos_energy_up",
    "dos_energy_down",
    "is_magnetic",
    "ordering",
    "total_magnetization_normalized_vol",
    "total_magnetization_normalized_formula_units",
    "num_magnetic_sites",
    "num_unique_magnetic_sites",
    "types_of_magnetic_species",
    "bulk_modulus",
    "shear_modulus",
    "universal_anisotropy",
    "homogeneous_poisson",
    "e_total",
    "e_ionic",
    "e_electronic",
    "n",
    "e_ij_max",
    "weighted_surface_energy_EV_PER_ANG2",
    "weighted_surface_energy",
    "weighted_work_function",
    "surface_anisotropy",
    "shape_factor",
    "has_reconstructed",
    "possible_species",
    "has_props",
    "theoretical",
    "database_IDs"
  ]
}
