{
  "builder_meta": null,
  "nsites": null,
  "elements": null,
  "nelements": null,
  "composition": null,
  "composition_reduced": null,
  "formula_pretty": "Y3Pd",
  "formula_anonymous": "AB3",
  "chemsys": null,
  "volume": 452.06055051936556,
  "density": 5.482535277883025,
  "density_atomic": 28.253784407460348,
  "symmetry": null,
  "property_name": null,
  "material_id": "mp-1207777",
  "deprecated": null,
  "deprecation_reasons": null,
  "last_updated": null,
  "origins": null,
  "warnings": null,
  "structure": {
    "@module": "pymatgen.core.structure",
    "@class": "Structure",
    "charge": 0,
    "lattice": {
      "matrix": [
        [2.408e-5, 9.958e-5, 6.46481736],
        [7.08078101, -0.00018202, 2.8380000000000003e-5],
        [-0.00026125, 9.87550213, 0.0001501]
      ],
      "pbc": [true, true, true],
      "a": 6.46481736081178,
      "b": 7.080781012396395,
      "c": 9.875502134596301,
      "alpha": 90.00298857616006,
      "beta": 89.99824660575581,
      "gamma": 89.99955696536908,
      "volume": 452.06055051936556
    },
    "properties": {},
    "sites": [
      {
        "species": [{ "element": "Y", "occu": 1 }],
        "abc": [0.63846655, 0.03034769, 0.24993134],
        "properties": { "magmom": -0.115 },
        "label": "Y",
        "xyz": [0.2148354267613159, 2.468255535136269, 4.127608012180884]
      },
      {
        "species": [{ "element": "Y", "occu": 1 }],
        "abc": [0.36153866, 0.96971345, 0.75006456],
        "properties": { "magmom": -0.114 },
        "label": "Y",
        "xyz": [6.866141333386216, 7.407123654695106, 2.3374215106373044]
      },
      {
        "species": [{ "element": "Y", "occu": 1 }],
        "abc": [0.13845603, 0.46970572, 0.7500636900000001],
        "properties": { "magmom": -0.114 },
        "label": "Y",
        "xyz": [3.325690722346567, 7.407183859846973, 0.8952188611488834]
      },
      {
        "species": [{ "element": "Y", "occu": 1 }],
        "abc": [0.86153014, 0.53035013, 0.24993028],
        "properties": { "magmom": -0.115 },
        "label": "Y",
        "xyz": [3.7552485805151523, 2.468176269332175, 5.569687571106948]
      },
      {
        "species": [{ "element": "Y", "occu": 1 }],
        "abc": [0.17734032, 0.175503599999999, 0.06299783],
        "properties": { "magmom": -0.117 },
        "label": "Y",
        "xyz": [1.242690370238447, 0.6221209187341715, 1.146487216130406]
      },
      {
        "species": [{ "element": "Y", "occu": 1 }],
        "abc": [0.822653499999999, 0.82446341, 0.93703404],
        "properties": { "magmom": -0.117 },
        "label": "Y",
        "xyz": [5.837619866321174, 9.253613508908145, 5.318468675145732]
      },
      {
        "species": [{ "element": "Y", "occu": 1 }],
        "abc": [0.67734721, 0.32445932, 0.93702918],
        "properties": { "magmom": -0.117 },
        "label": "Y",
        "xyz": [2.297196903221055, 9.253642055111898, 4.379075858190984]
      },
      {
        "species": [{ "element": "Y", "occu": 1 }],
        "abc": [0.82263153, 0.8244805, 0.56304919],
        "properties": { "magmom": -0.117 },
        "label": "Y",
        "xyz": [5.83783857988166, 5.560325320846921, 5.31827050846737]
      },
      {
        "species": [{ "element": "Y", "occu": 1 }],
        "abc": [0.32266989, 0.67549285, 0.06299477],
        "properties": { "magmom": -0.117 },
        "label": "Y",
        "xyz": [4.783008257178068, 0.6220141635729494, 2.086030532423351]
      },
      {
        "species": [{ "element": "Y", "occu": 1 }],
        "abc": [0.17736912, 0.17549927, 0.4369147],
        "properties": { "magmom": -0.117 },
        "label": "Y",
        "xyz": [1.2425620253678975, 4.314737768518155, 1.1467295276696756]
      },
      {
        "species": [{ "element": "Y", "occu": 1 }],
        "abc": [0.32264808, 0.67547524, 0.436912099999999],
        "properties": { "magmom": -0.117 },
        "label": "Y",
        "xyz": [4.782785878196834, 4.314635553465385, 2.08594565924819]
      },
      {
        "species": [{ "element": "Y", "occu": 1 }],
        "abc": [0.6773653, 0.32447751, 0.56305865],
        "properties": { "magmom": -0.117 },
        "label": "Y",
        "xyz": [2.297423402864197, 5.560495288030128, 4.3791366742767055]
      },
      {
        "species": [{ "element": "Pd", "occu": 1 }],
        "abc": [0.44308836, 0.38552397, 0.24989768],
        "properties": { "magmom": -0.01 },
        "label": "Pd",
        "xyz": [2.7297561894746187, 2.4678390207879275, 2.8645337725539664]
      },
      {
        "species": [{ "element": "Pd", "occu": 1 }],
        "abc": [0.5567314, 0.61447059, 0.75010089],
        "properties": { "magmom": -0.01 },
        "label": "Pd",
        "xyz": [4.350749127110095, 7.407566530285916, 3.5992968483960373]
      },
      {
        "species": [{ "element": "Pd", "occu": 1 }],
        "abc": [0.94326239, 0.11450862, 0.75010067],
        "properties": { "magmom": -0.01 },
        "label": "Pd",
        "xyz": [0.8106372119356199, 7.407693851509211, 6.098134913772292]
      },
      {
        "species": [{ "element": "Pd", "occu": 1 }],
        "abc": [0.0569015, 0.88552413, 0.24991942],
        "properties": { "magmom": -0.01 },
        "label": "Pd",
        "xyz": [6.270138522340416, 2.4679242476875918, 0.36792044908979143]
      }
    ]
  },
  "task_ids": null,
  "uncorrected_energy_per_atom": null,
  "energy_per_atom": -21.458519484375,
  "formation_energy_per_atom": -0.483205361875,
  "energy_above_hull": 0.0,
  "is_stable": true,
  "equilibrium_reaction_energy_per_atom": null,
  "decomposes_to": null,
  "xas": null,
  "grain_boundaries": null,
  "band_gap": 0.0,
  "cbm": null,
  "vbm": null,
  "efermi": 3.53363957,
  "is_gap_direct": null,
  "is_metal": null,
  "es_source_calc_id": null,
  "bandstructure": null,
  "dos": null,
  "dos_energy_up": null,
  "dos_energy_down": null,
  "is_magnetic": null,
  "ordering": null,
  "total_magnetization": 2.648410799999999,
  "total_magnetization_normalized_vol": null,
  "total_magnetization_normalized_formula_units": null,
  "num_magnetic_sites": null,
  "num_unique_magnetic_sites": null,
  "types_of_magnetic_species": null,
  "bulk_modulus": null,
  "shear_modulus": null,
  "universal_anisotropy": null,
  "homogeneous_poisson": null,
  "e_total": null,
  "e_ionic": null,
  "e_electronic": null,
  "n": null,
  "e_ij_max": null,
  "weighted_surface_energy_EV_PER_ANG2": null,
  "weighted_surface_energy": null,
  "weighted_work_function": null,
  "surface_anisotropy": null,
  "shape_factor": null,
  "has_reconstructed": null,
  "possible_species": null,
  "has_props": null,
  "theoretical": null,
  "database_IDs": null,
  "fields_not_requested": [
    "builder_meta",
    "nsites",
    "elements",
    "nelements",
    "composition",
    "composition_reduced",
    "chemsys",
    "symmetry",
    "property_name",
    "deprecated",
    "deprecation_reasons",
    "last_updated",
    "origins",
    "warnings",
    "task_ids",
    "uncorrected_energy_per_atom",
    "equilibrium_reaction_energy_per_atom",
    "decomposes_to",
    "xas",
    "grain_boundaries",
    "cbm",
    "vbm",
    "is_gap_direct",
    "is_metal",
    "es_source_calc_id",
    "bandstructure",
    "dos",
    "dos_energy_up",
    "dos_energy_down",
    "is_magnetic",
    "ordering",
    "total_magnetization_normalized_vol",
    "total_magnetization_normalized_formula_units",
    "num_magnetic_sites",
    "num_unique_magnetic_sites",
    "types_of_magnetic_species",
    "bulk_modulus",
    "shear_modulus",
    "universal_anisotropy",
    "homogeneous_poisson",
    "e_total",
    "e_ionic",
    "e_electronic",
    "n",
    "e_ij_max",
    "weighted_surface_energy_EV_PER_ANG2",
    "weighted_surface_energy",
    "weighted_work_function",
    "surface_anisotropy",
    "shape_factor",
    "has_reconstructed",
    "possible_species",
    "has_props",
    "theoretical",
    "database_IDs"
  ]
}
