{"builder_meta": null, "nsites": null, "elements": null, "nelements": null, "composition": null, "composition_reduced": null, "formula_pretty": "Y3Pt", "formula_anonymous": "AB3", "chemsys": null, "volume": 448.7462527241544, "density": 6.835395372206588, "density_atomic": 28.04664079525965, "symmetry": null, "property_name": null, "material_id": "mp-7343", "deprecated": null, "deprecation_reasons": null, "last_updated": null, "origins": null, "warnings": null, "structure": {"@module": "pymatgen.core.structure", "@class": "Structure", "charge": 0, "lattice": {"matrix": [[6.49194349, 0.0, 0.0], [-0.0, 7.08438453, 0.0], [0.0, 0.0, 9.757172390000001]], "pbc": [true, true, true], "a": 6.49194349, "b": 7.08438453, "c": 9.757172390000001, "alpha": 90.0, "beta": 90.0, "gamma": 90.0, "volume": 448.7462527241545}, "properties": {}, "sites": [{"species": [{"element": "Y", "occu": 1}], "abc": [0.13821588, 0.03053731, 0.25], "properties": {"magmom": -0.091}, "label": "Y", "xyz": [0.8972896823806212, 0.21633804655181432, 2.4392930975000002]}, {"species": [{"element": "Y", "occu": 1}], "abc": [0.6382158800000001, 0.46946269, 0.75], "properties": {"magmom": -0.091}, "label": "Y", "xyz": [4.143261427380621, 3.325854218448186, 7.317879292500001]}, {"species": [{"element": "Y", "occu": 1}], "abc": [0.36178412, 0.53053731, 0.25], "properties": {"magmom": -0.091}, "label": "Y", "xyz": [2.3486820626193787, 3.758530311551815, 2.4392930975000002]}, {"species": [{"element": "Y", "occu": 1}], "abc": [0.86178412, 0.9694626900000001, 0.75], "properties": {"magmom": -0.091}, "label": "Y", "xyz": [5.594653807619379, 6.868046483448187, 7.317879292500001]}, {"species": [{"element": "Y", "occu": 1}], "abc": [0.67999767, 0.17350194, 0.06374037], "properties": {"magmom": -0.093}, "label": "Y", "xyz": [4.414506446971668, 1.2291544596609882, 0.6219257782923844]}, {"species": [{"element": "Y", "occu": 1}], "abc": [0.17999767, 0.32649806000000003, 0.93625963], "properties": {"magmom": -0.093}, "label": "Y", "xyz": [1.1685347019716683, 2.3130378053390124, 9.135246611707617]}, {"species": [{"element": "Y", "occu": 1}], "abc": [0.82000233, 0.67350194, 0.43625963], "properties": {"magmom": -0.093}, "label": "Y", "xyz": [5.323408788028331, 4.771346724660988, 4.256660416707616]}, {"species": [{"element": "Y", "occu": 1}], "abc": [0.32000233, 0.82649806, 0.56374037], "properties": {"magmom": -0.093}, "label": "Y", "xyz": [2.0774370430283318, 5.8552300703390125, 5.500511973292385]}, {"species": [{"element": "Y", "occu": 1}], "abc": [0.32000233, 0.82649806, 0.93625963], "properties": {"magmom": -0.093}, "label": "Y", "xyz": [2.0774370430283318, 5.8552300703390125, 9.135246611707617]}, {"species": [{"element": "Y", "occu": 1}], "abc": [0.82000233, 0.67350194, 0.06374037], "properties": {"magmom": -0.093}, "label": "Y", "xyz": [5.323408788028331, 4.771346724660988, 0.6219257782923844]}, {"species": [{"element": "Y", "occu": 1}], "abc": [0.17999767, 0.32649806000000003, 0.56374037], "properties": {"magmom": -0.093}, "label": "Y", "xyz": [1.1685347019716683, 2.3130378053390124, 5.500511973292385]}, {"species": [{"element": "Y", "occu": 1}], "abc": [0.67999767, 0.17350194, 0.43625963], "properties": {"magmom": -0.093}, "label": "Y", "xyz": [4.414506446971668, 1.2291544596609882, 4.256660416707616]}, {"species": [{"element": "Pt", "occu": 1}], "abc": [0.94766848, 0.38316226000000003, 0.25], "properties": {"magmom": -0.003}, "label": "Pt", "xyz": [6.152210219414195, 2.714468787223838, 2.4392930975000002]}, {"species": [{"element": "Pt", "occu": 1}], "abc": [0.44766848000000004, 0.11683774000000001, 0.75], "properties": {"magmom": -0.003}, "label": "Pt", "xyz": [2.906238474414195, 0.8277234777761623, 7.317879292500001]}, {"species": [{"element": "Pt", "occu": 1}], "abc": [0.55233152, 0.88316226, 0.25], "properties": {"magmom": -0.003}, "label": "Pt", "xyz": [3.5857050155858046, 6.256661052223838, 2.4392930975000002]}, {"species": [{"element": "Pt", "occu": 1}], "abc": [0.05233152, 0.61683774, 0.75], "properties": {"magmom": -0.003}, "label": "Pt", "xyz": [0.33973327058580477, 4.369915742776163, 7.317879292500001]}]}, "task_ids": null, "uncorrected_energy_per_atom": null, "energy_per_atom": -28.871717415, "formation_energy_per_atom": -0.764587470000002, "energy_above_hull": 0.0, "is_stable": true, "equilibrium_reaction_energy_per_atom": null, "decomposes_to": null, "xas": null, "grain_boundaries": null, "band_gap": 0.0, "cbm": null, "vbm": null, "efermi": 3.9113995, "is_gap_direct": null, "is_metal": null, "es_source_calc_id": null, "bandstructure": null, "dos": null, "dos_energy_up": null, "dos_energy_down": null, "is_magnetic": null, "ordering": null, "total_magnetization": 2.118492, "total_magnetization_normalized_vol": null, "total_magnetization_normalized_formula_units": null, "num_magnetic_sites": null, "num_unique_magnetic_sites": null, "types_of_magnetic_species": null, "bulk_modulus": null, "shear_modulus": null, "universal_anisotropy": null, "homogeneous_poisson": null, "e_total": null, "e_ionic": null, "e_electronic": null, "n": null, "e_ij_max": null, "weighted_surface_energy_EV_PER_ANG2": null, "weighted_surface_energy": null, "weighted_work_function": null, "surface_anisotropy": null, "shape_factor": null, "has_reconstructed": null, "possible_species": null, "has_props": null, "theoretical": null, "database_IDs": null, "fields_not_requested": ["builder_meta", "nsites", "elements", "nelements", "composition", "composition_reduced", "chemsys", "symmetry", "property_name", "deprecated", "deprecation_reasons", "last_updated", "origins", "warnings", "task_ids", "uncorrected_energy_per_atom", "equilibrium_reaction_energy_per_atom", "decomposes_to", "xas", "grain_boundaries", "cbm", "vbm", "is_gap_direct", "is_metal", "es_source_calc_id", "bandstructure", "dos", "dos_energy_up", "dos_energy_down", "is_magnetic", "ordering", "total_magnetization_normalized_vol", "total_magnetization_normalized_formula_units", "num_magnetic_sites", "num_unique_magnetic_sites", "types_of_magnetic_species", "bulk_modulus", "shear_modulus", "universal_anisotropy", "homogeneous_poisson", "e_total", "e_ionic", "e_electronic", "n", "e_ij_max", "weighted_surface_energy_EV_PER_ANG2", "weighted_surface_energy", "weighted_work_function", "surface_anisotropy", "shape_factor", "has_reconstructed", "possible_species", "has_props", "theoretical", "database_IDs"]}