{
  "builder_meta": null,
  "nsites": null,
  "elements": null,
  "nelements": null,
  "composition": null,
  "composition_reduced": null,
  "formula_pretty": "Y3Pu",
  "formula_anonymous": "AB3",
  "chemsys": null,
  "volume": 246.14228147369434,
  "density": 6.89086359885612,
  "density_atomic": 30.767785184211792,
  "symmetry": null,
  "property_name": null,
  "material_id": "mp-1188047",
  "deprecated": null,
  "deprecation_reasons": null,
  "last_updated": null,
  "origins": null,
  "warnings": null,
  "structure": {
    "@module": "pymatgen.core.structure",
    "@class": "Structure",
    "charge": 0,
    "lattice": {
      "matrix": [
        [3.600324999999999, -6.235946, 0.0],
        [3.600324999999999, 6.235946, 0.0],
        [0.0, 0.0, 5.481661]
      ],
      "pbc": [true, true, true],
      "a": 7.200650152627956,
      "b": 7.200650152627956,
      "c": 5.481661,
      "alpha": 90.0,
      "beta": 90.0,
      "gamma": 120.00000140234343,
      "volume": 246.14228147369423
    },
    "properties": {},
    "sites": [
      {
        "species": [{ "element": "Y", "occu": 1 }],
        "abc": [0.168357999999999, 0.336715, 0.25],
        "properties": { "magmom": 0.078 },
        "label": "Y",
        "xyz": [1.8184269487249958, 1.0498651607220062, 1.37041525]
      },
      {
        "species": [{ "element": "Y", "occu": 1 }],
        "abc": [0.663285, 0.831642, 0.25],
        "properties": { "magmom": 0.078 },
        "label": "Y",
        "xyz": [5.382223051274998, 1.0498651607219998, 1.37041525]
      },
      {
        "species": [{ "element": "Y", "occu": 1 }],
        "abc": [0.168357999999999, 0.831642, 0.25],
        "properties": { "magmom": 0.078 },
        "label": "Y",
        "xyz": [3.6003249999999953, 4.136203206664006, 1.37041525]
      },
      {
        "species": [{ "element": "Y", "occu": 1 }],
        "abc": [0.831642, 0.663285, 0.75],
        "properties": { "magmom": 0.078 },
        "label": "Y",
        "xyz": [5.382223051274998, -1.0498651607219998, 4.11124575]
      },
      {
        "species": [{ "element": "Y", "occu": 1 }],
        "abc": [0.336715, 0.168357999999999, 0.75],
        "properties": { "magmom": 0.078 },
        "label": "Y",
        "xyz": [1.8184269487249958, -1.0498651607220062, 4.11124575]
      },
      {
        "species": [{ "element": "Y", "occu": 1 }],
        "abc": [0.831642, 0.168357999999999, 0.75],
        "properties": { "magmom": 0.078 },
        "label": "Y",
        "xyz": [3.6003249999999953, -4.136203206664006, 4.11124575]
      },
      {
        "species": [{ "element": "Pu", "occu": 1 }],
        "abc": [0.333333, 0.666667, 0.75],
        "properties": { "magmom": 5.434 },
        "label": "Pu",
        "xyz": [3.600324999999999, 2.0786528239640005, 4.11124575]
      },
      {
        "species": [{ "element": "Pu", "occu": 1 }],
        "abc": [0.666667, 0.333333, 0.25],
        "properties": { "magmom": 5.434 },
        "label": "Pu",
        "xyz": [3.600324999999999, -2.0786528239640005, 1.37041525]
      }
    ]
  },
  "task_ids": null,
  "uncorrected_energy_per_atom": null,
  "energy_per_atom": -36.6960594603125,
  "formation_energy_per_atom": 0.128228297500001,
  "energy_above_hull": 0.128228297500001,
  "is_stable": false,
  "equilibrium_reaction_energy_per_atom": null,
  "decomposes_to": null,
  "xas": null,
  "grain_boundaries": null,
  "band_gap": 0.0,
  "cbm": null,
  "vbm": null,
  "efermi": 5.23120854,
  "is_gap_direct": null,
  "is_metal": null,
  "es_source_calc_id": null,
  "bandstructure": null,
  "dos": null,
  "dos_energy_up": null,
  "dos_energy_down": null,
  "is_magnetic": null,
  "ordering": null,
  "total_magnetization": 12.4006247,
  "total_magnetization_normalized_vol": null,
  "total_magnetization_normalized_formula_units": null,
  "num_magnetic_sites": null,
  "num_unique_magnetic_sites": null,
  "types_of_magnetic_species": null,
  "bulk_modulus": null,
  "shear_modulus": null,
  "universal_anisotropy": null,
  "homogeneous_poisson": null,
  "e_total": null,
  "e_ionic": null,
  "e_electronic": null,
  "n": null,
  "e_ij_max": null,
  "weighted_surface_energy_EV_PER_ANG2": null,
  "weighted_surface_energy": null,
  "weighted_work_function": null,
  "surface_anisotropy": null,
  "shape_factor": null,
  "has_reconstructed": null,
  "possible_species": null,
  "has_props": null,
  "theoretical": null,
  "database_IDs": null,
  "fields_not_requested": [
    "builder_meta",
    "nsites",
    "elements",
    "nelements",
    "composition",
    "composition_reduced",
    "chemsys",
    "symmetry",
    "property_name",
    "deprecated",
    "deprecation_reasons",
    "last_updated",
    "origins",
    "warnings",
    "task_ids",
    "uncorrected_energy_per_atom",
    "equilibrium_reaction_energy_per_atom",
    "decomposes_to",
    "xas",
    "grain_boundaries",
    "cbm",
    "vbm",
    "is_gap_direct",
    "is_metal",
    "es_source_calc_id",
    "bandstructure",
    "dos",
    "dos_energy_up",
    "dos_energy_down",
    "is_magnetic",
    "ordering",
    "total_magnetization_normalized_vol",
    "total_magnetization_normalized_formula_units",
    "num_magnetic_sites",
    "num_unique_magnetic_sites",
    "types_of_magnetic_species",
    "bulk_modulus",
    "shear_modulus",
    "universal_anisotropy",
    "homogeneous_poisson",
    "e_total",
    "e_ionic",
    "e_electronic",
    "n",
    "e_ij_max",
    "weighted_surface_energy_EV_PER_ANG2",
    "weighted_surface_energy",
    "weighted_work_function",
    "surface_anisotropy",
    "shape_factor",
    "has_reconstructed",
    "possible_species",
    "has_props",
    "theoretical",
    "database_IDs"
  ]
}
