{"builder_meta": null, "nsites": null, "elements": null, "nelements": null, "composition": null, "composition_reduced": null, "formula_pretty": "Y3Rh2", "formula_anonymous": "A2B3", "chemsys": null, "volume": 1579.666508527901, "density": 6.954081499936981, "density_atomic": 22.566664407541438, "symmetry": null, "property_name": null, "material_id": "mp-1196999", "deprecated": null, "deprecation_reasons": null, "last_updated": null, "origins": null, "warnings": null, "structure": {"@module": "pymatgen.core.structure", "@class": "Structure", "charge": 0, "lattice": {"matrix": [[11.22114612, -0.0, 0.0], [-0.0, 11.22114612, 0.0], [-5.61057356, -5.61057356, 12.54558667]], "pbc": [true, true, true], "a": 11.22114612, "b": 11.22114612, "c": 14.844150909998989, "alpha": 112.20770384413858, "beta": 112.20770384413858, "gamma": 90.0, "volume": 1579.666508527901}, "properties": {}, "sites": [{"species": [{"element": "Y", "occu": 1}], "abc": [0.75, 0.25, 0.5], "properties": {"magmom": -0.0}, "label": "Y", "xyz": [5.610572810000001, -2.499999998128999e-07, 6.272793335]}, {"species": [{"element": "Y", "occu": 1}], "abc": [0.25, 0.75, 0.5], "properties": {"magmom": -0.0}, "label": "Y", "xyz": [-2.499999998128999e-07, 5.610572810000001, 6.272793335]}, {"species": [{"element": "Y", "occu": 1}], "abc": [0.88731937, 0.38731937, 0.77463973], "properties": {"magmom": 0.0}, "label": "Y", "xyz": [5.610567118212806, -5.941787193819437e-06, 9.718309870740399]}, {"species": [{"element": "Y", "occu": 1}], "abc": [0.38731937, 0.88731937, 0.77463973], "properties": {"magmom": 0.0}, "label": "Y", "xyz": [-5.941787193819437e-06, 5.610567118212806, 9.718309870740399]}, {"species": [{"element": "Y", "occu": 1}], "abc": [0.11268063, 0.6126806300000001, 0.22536027], "properties": {"magmom": 0.0}, "label": "Y", "xyz": [5.4417871944156815e-06, 5.610578501787195, 2.827276799259601]}, {"species": [{"element": "Y", "occu": 1}], "abc": [0.6126806300000001, 0.11268063, 0.22536027], "properties": {"magmom": 0.0}, "label": "Y", "xyz": [5.610578501787195, 5.4417871944156815e-06, 2.827276799259601]}, {"species": [{"element": "Y", "occu": 1}], "abc": [0.35226105, 0.85226105, 0.0], "properties": {"magmom": -0.0}, "label": "Y", "xyz": [3.9527727144346265, 9.563345774434627, 0.0]}, {"species": [{"element": "Y", "occu": 1}], "abc": [0.64773895, 0.14773895, -0.0], "properties": {"magmom": -0.0}, "label": "Y", "xyz": [7.268373405565375, 1.657800345565374, 0.0]}, {"species": [{"element": "Y", "occu": 1}], "abc": [0.14773895, 0.35226105, 0.0], "properties": {"magmom": -0.0}, "label": "Y", "xyz": [1.657800345565374, 3.9527727144346265, 0.0]}, {"species": [{"element": "Y", "occu": 1}], "abc": [0.85226105, 0.64773895, 0.0], "properties": {"magmom": -0.0}, "label": "Y", "xyz": [9.563345774434627, 7.268373405565375, 0.0]}, {"species": [{"element": "Y", "occu": 1}], "abc": [0.51645053, 0.38752055, 0.61313047], "properties": {"magmom": 0.0}, "label": "Y", "xyz": [2.3551532570690705, 0.9084111122403931, 7.692081451402835]}, {"species": [{"element": "Y", "occu": 1}], "abc": [0.09667994, 0.22560992, 0.61313047], "properties": {"magmom": 0.0}, "label": "Y", "xyz": [-2.35515387019954, -0.9084117253708626, 7.692081451402835]}, {"species": [{"element": "Y", "occu": 1}], "abc": [0.59667994, 0.88752055, 0.61313047], "properties": {"magmom": 0.0}, "label": "Y", "xyz": [3.2554191898004605, 6.518984172240392, 7.692081451402835]}, {"species": [{"element": "Y", "occu": 1}], "abc": [0.01645053, 0.72560992, 0.61313047], "properties": {"magmom": 0.0}, "label": "Y", "xyz": [-3.2554198029309296, 4.702161334629137, 7.692081451402835]}, {"species": [{"element": "Y", "occu": 1}], "abc": [0.38752055, 0.09667994, 0.61313047], "properties": {"magmom": 0.0}, "label": "Y", "xyz": [0.9084111122403931, -2.35515387019954, 7.692081451402835]}, {"species": [{"element": "Y", "occu": 1}], "abc": [0.22560992, 0.51645053, 0.61313047], "properties": {"magmom": 0.0}, "label": "Y", "xyz": [-0.9084117253708626, 2.3551532570690705, 7.692081451402835]}, {"species": [{"element": "Y", "occu": 1}], "abc": [0.88752055, 0.01645053, 0.61313047], "properties": {"magmom": 0.0}, "label": "Y", "xyz": [6.518984172240392, -3.2554198029309296, 7.692081451402835]}, {"species": [{"element": "Y", "occu": 1}], "abc": [0.72560992, 0.59667994, 0.61313047], "properties": {"magmom": 0.0}, "label": "Y", "xyz": [4.702161334629137, 3.2554191898004605, 7.692081451402835]}, {"species": [{"element": "Y", "occu": 1}], "abc": [0.48354947000000004, 0.61247945, 0.38686953], "properties": {"magmom": 0.0}, "label": "Y", "xyz": [3.25541930293093, 4.702161447759607, 4.853505218597165]}, {"species": [{"element": "Y", "occu": 1}], "abc": [0.90332006, 0.77439008, 0.38686953], "properties": {"magmom": 0.0}, "label": "Y", "xyz": [7.965726430199541, 6.5189842853708635, 4.853505218597165]}, {"species": [{"element": "Y", "occu": 1}], "abc": [0.40332006000000004, 0.11247945000000001, 0.38686953], "properties": {"magmom": 0.0}, "label": "Y", "xyz": [2.355153370199541, -0.9084116122403927, 4.853505218597165]}, {"species": [{"element": "Y", "occu": 1}], "abc": [0.98354947, 0.27439008, 0.38686953], "properties": {"magmom": 0.0}, "label": "Y", "xyz": [8.865992362930932, 0.9084112253708625, 4.853505218597165]}, {"species": [{"element": "Y", "occu": 1}], "abc": [0.61247945, 0.90332006, 0.38686953], "properties": {"magmom": 0.0}, "label": "Y", "xyz": [4.702161447759607, 7.965726430199541, 4.853505218597165]}, {"species": [{"element": "Y", "occu": 1}], "abc": [0.77439008, 0.48354947000000004, 0.38686953], "properties": {"magmom": 0.0}, "label": "Y", "xyz": [6.5189842853708635, 3.25541930293093, 4.853505218597165]}, {"species": [{"element": "Y", "occu": 1}], "abc": [0.11247945000000001, 0.98354947, 0.38686953], "properties": {"magmom": 0.0}, "label": "Y", "xyz": [-0.9084116122403927, 8.865992362930932, 4.853505218597165]}, {"species": [{"element": "Y", "occu": 1}], "abc": [0.27439008, 0.40332006000000004, 0.38686953], "properties": {"magmom": 0.0}, "label": "Y", "xyz": [0.9084112253708625, 2.355153370199541, 4.853505218597165]}, {"species": [{"element": "Y", "occu": 1}], "abc": [0.50455582, 0.6318800800000001, 0.85674014], "properties": {"magmom": 0.0}, "label": "Y", "xyz": [0.8548910046417202, 2.283615130722593, 10.748307680037934]}, {"species": [{"element": "Y", "occu": 1}], "abc": [0.35218332, 0.22486006, 0.85674014], "properties": {"magmom": 0.0}, "label": "Y", "xyz": [-0.8549030825279789, -2.2836159874627304, 10.748307680037934]}, {"species": [{"element": "Y", "occu": 1}], "abc": [0.85218332, 0.13188008, 0.85674014], "properties": {"magmom": 0.0}, "label": "Y", "xyz": [4.755669977472021, -3.326957929277408, 10.748307680037934]}, {"species": [{"element": "Y", "occu": 1}], "abc": [0.00455582, 0.72486006, 0.85674014], "properties": {"magmom": 0.0}, "label": "Y", "xyz": [-4.755682055358279, 3.3269570725372706, 10.748307680037934]}, {"species": [{"element": "Y", "occu": 1}], "abc": [0.6318800800000001, 0.35218332, 0.85674014], "properties": {"magmom": 0.0}, "label": "Y", "xyz": [2.283615130722593, -0.8549030825279789, 10.748307680037934]}, {"species": [{"element": "Y", "occu": 1}], "abc": [0.22486006, 0.50455582, 0.85674014], "properties": {"magmom": 0.0}, "label": "Y", "xyz": [-2.2836159874627304, 0.8548910046417202, 10.748307680037934]}, {"species": [{"element": "Y", "occu": 1}], "abc": [0.13188008, 0.00455582, 0.85674014], "properties": {"magmom": 0.0}, "label": "Y", "xyz": [-3.326957929277408, -4.755682055358279, 10.748307680037934]}, {"species": [{"element": "Y", "occu": 1}], "abc": [0.72486006, 0.85218332, 0.85674014], "properties": {"magmom": 0.0}, "label": "Y", "xyz": [3.3269570725372706, 4.755669977472021, 10.748307680037934]}, {"species": [{"element": "Y", "occu": 1}], "abc": [0.49544418, 0.36811992, 0.14325986000000002], "properties": {"magmom": 0.0}, "label": "Y", "xyz": [4.75568155535828, 3.326957429277409, 1.7972789899620665]}, {"species": [{"element": "Y", "occu": 1}], "abc": [0.64781668, 0.77513994, 0.14325986000000002], "properties": {"magmom": 0.0}, "label": "Y", "xyz": [6.46547564252798, 7.89418854746273, 1.7972789899620665]}, {"species": [{"element": "Y", "occu": 1}], "abc": [0.14781668, 0.86811992, 0.14325986000000002], "properties": {"magmom": 0.0}, "label": "Y", "xyz": [0.85490258252798, 8.93753048927741, 1.7972789899620665]}, {"species": [{"element": "Y", "occu": 1}], "abc": [0.99544418, 0.27513994, 0.14325986000000002], "properties": {"magmom": 0.0}, "label": "Y", "xyz": [10.366254615358281, 2.2836154874627317, 1.7972789899620665]}, {"species": [{"element": "Y", "occu": 1}], "abc": [0.36811992, 0.64781668, 0.14325986000000002], "properties": {"magmom": 0.0}, "label": "Y", "xyz": [3.326957429277409, 6.46547564252798, 1.7972789899620665]}, {"species": [{"element": "Y", "occu": 1}], "abc": [0.77513994, 0.49544418, 0.14325986000000002], "properties": {"magmom": 0.0}, "label": "Y", "xyz": [7.89418854746273, 4.75568155535828, 1.7972789899620665]}, {"species": [{"element": "Y", "occu": 1}], "abc": [0.86811992, 0.99544418, 0.14325986000000002], "properties": {"magmom": 0.0}, "label": "Y", "xyz": [8.93753048927741, 10.366254615358281, 1.7972789899620665]}, {"species": [{"element": "Y", "occu": 1}], "abc": [0.27513994, 0.14781668, 0.14325986000000002], "properties": {"magmom": 0.0}, "label": "Y", "xyz": [2.2836154874627317, 0.85490258252798, 1.7972789899620665]}, {"species": [{"element": "Rh", "occu": 1}], "abc": [0.25, 0.25, 0.5], "properties": {"magmom": -0.0}, "label": "Rh", "xyz": [-2.499999998128999e-07, -2.499999998128999e-07, 6.272793335]}, {"species": [{"element": "Rh", "occu": 1}], "abc": [0.75, 0.75, 0.5], "properties": {"magmom": -0.0}, "label": "Rh", "xyz": [5.610572810000001, 5.610572810000001, 6.272793335]}, {"species": [{"element": "Rh", "occu": 1}], "abc": [0.5, 0.5, 0.0], "properties": {"magmom": -0.0}, "label": "Rh", "xyz": [5.61057306, 5.61057306, 0.0]}, {"species": [{"element": "Rh", "occu": 1}], "abc": [0.0, -0.0, 0.0], "properties": {"magmom": -0.0}, "label": "Rh", "xyz": [0.0, 0.0, 0.0]}, {"species": [{"element": "Rh", "occu": 1}], "abc": [0.36680021, 0.36680021, 0.73359943], "properties": {"magmom": -0.0}, "label": "Rh", "xyz": [5.187667614592328e-06, 5.187667614592328e-06, 9.2034352301276]}, {"species": [{"element": "Rh", "occu": 1}], "abc": [0.8668002100000001, 0.8668002100000001, 0.73359943], "properties": {"magmom": -0.0}, "label": "Rh", "xyz": [5.610578247667616, 5.610578247667616, 9.2034352301276]}, {"species": [{"element": "Rh", "occu": 1}], "abc": [0.63319979, 0.63319979, 0.26640057], "properties": {"magmom": -0.0}, "label": "Rh", "xyz": [5.610567372332386, 5.610567372332386, 3.342151439872402]}, {"species": [{"element": "Rh", "occu": 1}], "abc": [0.13319979, 0.13319979, 0.26640057], "properties": {"magmom": -0.0}, "label": "Rh", "xyz": [-5.687667614218128e-06, -5.687667614218128e-06, 3.342151439872402]}, {"species": [{"element": "Rh", "occu": 1}], "abc": [0.09780449000000001, 0.59780449, -0.0], "properties": {"magmom": 0.0}, "label": "Rh", "xyz": [1.0974784734820788, 6.708051533482079, 0.0]}, {"species": [{"element": "Rh", "occu": 1}], "abc": [0.90219551, 0.40219551000000003, 0.0], "properties": {"magmom": 0.0}, "label": "Rh", "xyz": [10.123667646517921, 4.513094586517922, 0.0]}, {"species": [{"element": "Rh", "occu": 1}], "abc": [0.40219551000000003, 0.09780449000000001, 0.0], "properties": {"magmom": 0.0}, "label": "Rh", "xyz": [4.513094586517922, 1.0974784734820788, 0.0]}, {"species": [{"element": "Rh", "occu": 1}], "abc": [0.59780449, 0.90219551, 0.0], "properties": {"magmom": 0.0}, "label": "Rh", "xyz": [6.708051533482079, 10.123667646517921, 0.0]}, {"species": [{"element": "Rh", "occu": 1}], "abc": [0.96464148, 0.46464148, 0.62170834], "properties": {"magmom": -0.0}, "label": "Rh", "xyz": [7.336242626057569, 1.7256695660575678, 7.799695862931828]}, {"species": [{"element": "Rh", "occu": 1}], "abc": [0.6570678600000001, 0.15706786, 0.62170834], "properties": {"magmom": -0.0}, "label": "Rh", "xyz": [3.884914093380214, -1.725658966619787, 7.799695862931828]}, {"species": [{"element": "Rh", "occu": 1}], "abc": [0.15706786, 0.96464148, 0.62170834], "properties": {"magmom": -0.0}, "label": "Rh", "xyz": [-1.725658966619787, 7.336242626057569, 7.799695862931828]}, {"species": [{"element": "Rh", "occu": 1}], "abc": [0.46464148, 0.6570678600000001, 0.62170834], "properties": {"magmom": -0.0}, "label": "Rh", "xyz": [1.7256695660575678, 3.884914093380214, 7.799695862931828]}, {"species": [{"element": "Rh", "occu": 1}], "abc": [0.03535852, 0.5353585200000001, 0.37829166000000003], "properties": {"magmom": -0.0}, "label": "Rh", "xyz": [-1.7256700660575672, 3.8849029939424335, 4.7458908070681725]}, {"species": [{"element": "Rh", "occu": 1}], "abc": [0.34293214, 0.84293214, 0.37829166000000003], "properties": {"magmom": -0.0}, "label": "Rh", "xyz": [1.7256584666197874, 7.336231526619788, 4.7458908070681725]}, {"species": [{"element": "Rh", "occu": 1}], "abc": [0.84293214, 0.03535852, 0.37829166000000003], "properties": {"magmom": -0.0}, "label": "Rh", "xyz": [7.336231526619788, -1.7256700660575672, 4.7458908070681725]}, {"species": [{"element": "Rh", "occu": 1}], "abc": [0.5353585200000001, 0.34293214, 0.37829166000000003], "properties": {"magmom": -0.0}, "label": "Rh", "xyz": [3.8849029939424335, 1.7256584666197874, 4.7458908070681725]}, {"species": [{"element": "Rh", "occu": 1}], "abc": [0.2152512, 0.7152512, 0.78739179], "properties": {"magmom": 0.0}, "label": "Rh", "xyz": [-2.002354390629728, 3.608218669370272, 9.87829194469144]}, {"species": [{"element": "Rh", "occu": 1}], "abc": [0.57214058, 0.07214058, 0.78739179], "properties": {"magmom": 0.0}, "label": "Rh", "xyz": [2.0023534910264775, -3.6082195689735226, 9.87829194469144]}, {"species": [{"element": "Rh", "occu": 1}], "abc": [0.07214058, 0.2152512, 0.78739179], "properties": {"magmom": 0.0}, "label": "Rh", "xyz": [-3.6082195689735226, -2.002354390629728, 9.87829194469144]}, {"species": [{"element": "Rh", "occu": 1}], "abc": [0.7152512, 0.57214058, 0.78739179], "properties": {"magmom": 0.0}, "label": "Rh", "xyz": [3.608218669370272, 2.0023534910264775, 9.87829194469144]}, {"species": [{"element": "Rh", "occu": 1}], "abc": [0.784748799999999, 0.284748799999999, 0.21260821], "properties": {"magmom": 0.0}, "label": "Rh", "xyz": [7.612926950629718, 2.002353890629718, 2.667294725308561]}, {"species": [{"element": "Rh", "occu": 1}], "abc": [0.42785942, 0.92785942, 0.21260821], "properties": {"magmom": 0.0}, "label": "Rh", "xyz": [3.608219068973523, 9.218792128973522, 2.667294725308561]}, {"species": [{"element": "Rh", "occu": 1}], "abc": [0.92785942, 0.784748799999999, 0.21260821], "properties": {"magmom": 0.0}, "label": "Rh", "xyz": [9.218792128973522, 7.612926950629718, 2.667294725308561]}, {"species": [{"element": "Rh", "occu": 1}], "abc": [0.284748799999999, 0.42785942, 0.21260821], "properties": {"magmom": 0.0}, "label": "Rh", "xyz": [2.002353890629718, 3.608219068973523, 2.667294725308561]}]}, "task_ids": null, "uncorrected_energy_per_atom": null, "energy_per_atom": -7.561403438714285, "formation_energy_per_atom": -0.710225390714284, "energy_above_hull": 0.0, "is_stable": true, "equilibrium_reaction_energy_per_atom": null, "decomposes_to": null, "xas": null, "grain_boundaries": null, "band_gap": 0.0, "cbm": null, "vbm": null, "efermi": 4.47522459, "is_gap_direct": null, "is_metal": null, "es_source_calc_id": null, "bandstructure": null, "dos": null, "dos_energy_up": null, "dos_energy_down": null, "is_magnetic": null, "ordering": null, "total_magnetization": 1.7e-06, "total_magnetization_normalized_vol": null, "total_magnetization_normalized_formula_units": null, "num_magnetic_sites": null, "num_unique_magnetic_sites": null, "types_of_magnetic_species": null, "bulk_modulus": null, "shear_modulus": null, "universal_anisotropy": null, "homogeneous_poisson": null, "e_total": null, "e_ionic": null, "e_electronic": null, "n": null, "e_ij_max": null, "weighted_surface_energy_EV_PER_ANG2": null, "weighted_surface_energy": null, "weighted_work_function": null, "surface_anisotropy": null, "shape_factor": null, "has_reconstructed": null, "possible_species": null, "has_props": null, "theoretical": null, "database_IDs": null, "fields_not_requested": ["builder_meta", "nsites", "elements", "nelements", "composition", "composition_reduced", "chemsys", "symmetry", "property_name", "deprecated", "deprecation_reasons", "last_updated", "origins", "warnings", "task_ids", "uncorrected_energy_per_atom", "equilibrium_reaction_energy_per_atom", "decomposes_to", "xas", "grain_boundaries", "cbm", "vbm", "is_gap_direct", "is_metal", "es_source_calc_id", "bandstructure", "dos", "dos_energy_up", "dos_energy_down", "is_magnetic", "ordering", "total_magnetization_normalized_vol", "total_magnetization_normalized_formula_units", "num_magnetic_sites", "num_unique_magnetic_sites", "types_of_magnetic_species", "bulk_modulus", "shear_modulus", "universal_anisotropy", "homogeneous_poisson", "e_total", "e_ionic", "e_electronic", "n", "e_ij_max", "weighted_surface_energy_EV_PER_ANG2", "weighted_surface_energy", "weighted_work_function", "surface_anisotropy", "shape_factor", "has_reconstructed", "possible_species", "has_props", "theoretical", "database_IDs"]}