{"builder_meta": null, "nsites": null, "elements": null, "nelements": null, "composition": null, "composition_reduced": null, "formula_pretty": "Y3Rh", "formula_anonymous": "AB3", "chemsys": null, "volume": 436.58872307741444, "density": 5.623356555015856, "density_atomic": 27.286795192338403, "symmetry": null, "property_name": null, "material_id": "mp-1207780", "deprecated": null, "deprecation_reasons": null, "last_updated": null, "origins": null, "warnings": null, "structure": {"@module": "pymatgen.core.structure", "@class": "Structure", "charge": 0, "lattice": {"matrix": [[-3.6530000000000004e-05, -8.365000000000001e-05, 6.35999666], [7.15515652, -1.372e-05, -4.1370000000000005e-05], [1.993e-05, 9.59392873, -0.00012528]], "pbc": [true, true, true], "a": 6.359996660655013, "b": 7.155156520132752, "c": 9.593928730838671, "alpha": 89.9999908365312, "beta": 90.00150176781176, "gamma": 90.00066036437781, "volume": 436.5887230774144}, "properties": {}, "sites": [{"species": [{"element": "Y", "occu": 1}], "abc": [0.64020203, 0.03901322, 0.25003289], "properties": {"magmom": 0.075}, "label": "Y", "xyz": [0.27912729202453623, 2.398743638654742, 4.071649834427849]}, {"species": [{"element": "Y", "occu": 1}], "abc": [0.35980848, 0.96101018, 0.74996637], "properties": {"magmom": 0.075}, "label": "Y", "xyz": [6.876180058239354, 7.195080620637789, 2.2882470182616963]}, {"species": [{"element": "Y", "occu": 1}], "abc": [0.14018815, 0.46100696, 0.74996685], "properties": {"magmom": 0.075}, "label": "Y", "xyz": [3.2985867813755805, 7.1951104570083615, 0.8914831380666759]}, {"species": [{"element": "Y", "occu": 1}], "abc": [0.85979914, 0.53901411, 0.2500321], "properties": {"magmom": 0.075}, "label": "Y", "xyz": [3.856703898215666, 2.3987108301405824, 5.468266035635654]}, {"species": [{"element": "Y", "occu": 1}], "abc": [0.17511587, 0.1725228, 0.0649013], "properties": {"magmom": 0.089}, "label": "Y", "xyz": [1.234422533768834, 0.6226414312290075, 1.1137210802098942]}, {"species": [{"element": "Y", "occu": 1}], "abc": [0.82487513, 0.82745784, 0.93514439], "properties": {"magmom": 0.089}, "label": "Y", "xyz": [5.92057886364031, 8.971628276393135, 5.246051684897046]}, {"species": [{"element": "Y", "occu": 1}], "abc": [0.67512212, 0.32746073000000003, 0.93513773], "properties": {"magmom": 0.09}, "label": "Y", "xyz": [2.343026752387375, 8.971583767627429, 4.293643727186906]}, {"species": [{"element": "Y", "occu": 1}], "abc": [0.82493779, 0.82747192, 0.56491543], "properties": {"magmom": 0.09}, "label": "Y", "xyz": [5.92067222729197, 5.419678014936428, 5.24649658398938]}, {"species": [{"element": "Y", "occu": 1}], "abc": [0.32488552, 0.67252132, 0.06490794], "properties": {"magmom": 0.089}, "label": "Y", "xyz": [4.811984733184205, 0.6226857467048578, 2.066234868208632]}, {"species": [{"element": "Y", "occu": 1}], "abc": [0.17505541, 0.17251104, 0.43503833000000003], "properties": {"magmom": 0.09}, "label": "Y", "xyz": [1.2343457681677703, 4.173709722601706, 1.1132901845312235]}, {"species": [{"element": "Y", "occu": 1}], "abc": [0.32494075, 0.67251722, 0.43504236], "properties": {"magmom": 0.09}, "label": "Y", "xyz": [4.811962771803913, 4.173728988141007, 2.066539760553643]}, {"species": [{"element": "Y", "occu": 1}], "abc": [0.67506566, 0.32746454, 0.56491165], "properties": {"magmom": 0.09}, "label": "Y", "xyz": [2.343046636990426, 5.419661146790756, 4.293331023541165]}, {"species": [{"element": "Rh", "occu": 1}], "abc": [0.44420404, 0.38120856000000003, 0.24997007000000002], "properties": {"magmom": 0.05}, "label": "Rh", "xyz": [2.7275956686937253, 2.3981526483637223, 2.8250891239100095]}, {"species": [{"element": "Rh", "occu": 1}], "abc": [0.55579587, 0.61880461, 0.75002735], "properties": {"magmom": 0.05}, "label": "Rh", "xyz": [4.427638484669512, 7.19565395912699, 3.5347403134686703]}, {"species": [{"element": "Rh", "occu": 1}], "abc": [0.94420262, 0.11880147, 0.75004862], "properties": {"magmom": 0.05}, "label": "Rh", "xyz": [0.8500235694033725, 7.195832391809522, 6.0050266286553216]}, {"species": [{"element": "Rh", "occu": 1}], "abc": [0.05579841, 0.88121348, 0.2499546], "properties": {"magmom": 0.05}, "label": "Rh", "xyz": [6.305223320213151, 2.398029860349716, 0.354809931119355]}]}, "task_ids": null, "uncorrected_energy_per_atom": null, "energy_per_atom": -7.198118091874999, "formation_energy_per_atom": -0.47522249937499805, "energy_above_hull": 0.0, "is_stable": true, "equilibrium_reaction_energy_per_atom": null, "decomposes_to": null, "xas": null, "grain_boundaries": null, "band_gap": 0.0, "cbm": null, "vbm": null, "efermi": 3.78349584, "is_gap_direct": null, "is_metal": null, "es_source_calc_id": null, "bandstructure": null, "dos": null, "dos_energy_up": null, "dos_energy_down": null, "is_magnetic": null, "ordering": null, "total_magnetization": 2.0808856000000002, "total_magnetization_normalized_vol": null, "total_magnetization_normalized_formula_units": null, "num_magnetic_sites": null, "num_unique_magnetic_sites": null, "types_of_magnetic_species": null, "bulk_modulus": null, "shear_modulus": null, "universal_anisotropy": null, "homogeneous_poisson": null, "e_total": null, "e_ionic": null, "e_electronic": null, "n": null, "e_ij_max": null, "weighted_surface_energy_EV_PER_ANG2": null, "weighted_surface_energy": null, "weighted_work_function": null, "surface_anisotropy": null, "shape_factor": null, "has_reconstructed": null, "possible_species": null, "has_props": null, "theoretical": null, "database_IDs": null, "fields_not_requested": ["builder_meta", "nsites", "elements", "nelements", "composition", "composition_reduced", "chemsys", "symmetry", "property_name", "deprecated", "deprecation_reasons", "last_updated", "origins", "warnings", "task_ids", "uncorrected_energy_per_atom", "equilibrium_reaction_energy_per_atom", "decomposes_to", "xas", "grain_boundaries", "cbm", "vbm", "is_gap_direct", "is_metal", "es_source_calc_id", "bandstructure", "dos", "dos_energy_up", "dos_energy_down", "is_magnetic", "ordering", "total_magnetization_normalized_vol", "total_magnetization_normalized_formula_units", "num_magnetic_sites", "num_unique_magnetic_sites", "types_of_magnetic_species", "bulk_modulus", "shear_modulus", "universal_anisotropy", "homogeneous_poisson", "e_total", "e_ionic", "e_electronic", "n", "e_ij_max", "weighted_surface_energy_EV_PER_ANG2", "weighted_surface_energy", "weighted_work_function", "surface_anisotropy", "shape_factor", "has_reconstructed", "possible_species", "has_props", "theoretical", "database_IDs"]}