{"builder_meta": null, "nsites": null, "elements": null, "nelements": null, "composition": null, "composition_reduced": null, "formula_pretty": "Y3Ru2", "formula_anonymous": "A2B3", "chemsys": null, "volume": 239.9640167455271, "density": 6.488941875572892, "density_atomic": 23.996401674552708, "symmetry": null, "property_name": null, "material_id": "mp-1205786", "deprecated": null, "deprecation_reasons": null, "last_updated": null, "origins": null, "warnings": null, "structure": {"@module": "pymatgen.core.structure", "@class": "Structure", "charge": 0, "lattice": {"matrix": [[0.0, 0.0, -4.747466], [-3.819854, -6.616182, 0.0], [-3.819855, 6.616182, 0.0]], "pbc": [true, true, true], "a": 4.747466, "b": 7.639708688061345, "c": 7.6397091880613495, "alpha": 119.99999946361473, "beta": 90.0, "gamma": 90.0, "volume": 239.9640167455271}, "properties": {}, "sites": [{"species": [{"element": "Y", "occu": 1}], "abc": [0.75, 0.6169789999999991, 0.695149], "properties": {"magmom": 0.0}, "label": "Y", "xyz": [-5.012138084460997, 0.517186946940007, -3.5605995000000004]}, {"species": [{"element": "Y", "occu": 1}], "abc": [0.25, 0.383021, 0.304851], "properties": {"magmom": -0.0}, "label": "Y", "xyz": [-2.6275709155389997, -0.5171869469399999, -1.1868665]}, {"species": [{"element": "Y", "occu": 1}], "abc": [0.75, 0.078170999999999, 0.383021], "properties": {"magmom": -0.0}, "label": "Y", "xyz": [-1.7616864889889963, 2.0169430827000068, -3.5605995000000004]}, {"species": [{"element": "Y", "occu": 1}], "abc": [0.25, 0.921829, 0.6169789999999991], "properties": {"magmom": -0.0}, "label": "Y", "xyz": [-5.878022511010997, -2.0169430827000063, -1.1868665]}, {"species": [{"element": "Y", "occu": 1}], "abc": [0.75, 0.304851, 0.921829], "properties": {"magmom": 0.0}, "label": "Y", "xyz": [-4.6857394265489996, 4.082038737995999, -3.5605995000000004]}, {"species": [{"element": "Y", "occu": 1}], "abc": [0.25, 0.695149, 0.078170999999999], "properties": {"magmom": 0.0}, "label": "Y", "xyz": [-2.953969573450996, -4.082038737996007, -1.1868665]}, {"species": [{"element": "Ru", "occu": 1}], "abc": [0.75, 0.666667, 0.333333], "properties": {"magmom": 0.001}, "label": "Ru", "xyz": [-3.8198543333329997, -2.205398410788, -3.5605995000000004]}, {"species": [{"element": "Ru", "occu": 1}], "abc": [0.25, 0.333333, 0.666667], "properties": {"magmom": -0.001}, "label": "Ru", "xyz": [-3.819854666667, 2.205398410788, -1.1868665]}, {"species": [{"element": "Ru", "occu": 1}], "abc": [0.0, 0.0, 0.0], "properties": {"magmom": -0.0}, "label": "Ru", "xyz": [0.0, 0.0, 0.0]}, {"species": [{"element": "Ru", "occu": 1}], "abc": [0.5, 0.0, 0.0], "properties": {"magmom": -0.0}, "label": "Ru", "xyz": [0.0, 0.0, -2.373733]}]}, "task_ids": null, "uncorrected_energy_per_atom": null, "energy_per_atom": -7.845668030000001, "formation_energy_per_atom": -0.230452114, "energy_above_hull": 0.071737285999998, "is_stable": false, "equilibrium_reaction_energy_per_atom": null, "decomposes_to": null, "xas": null, "grain_boundaries": null, "band_gap": 0.0, "cbm": null, "vbm": null, "efermi": 4.29964852, "is_gap_direct": null, "is_metal": null, "es_source_calc_id": null, "bandstructure": null, "dos": null, "dos_energy_up": null, "dos_energy_down": null, "is_magnetic": null, "ordering": null, "total_magnetization": 0.0002171, "total_magnetization_normalized_vol": null, "total_magnetization_normalized_formula_units": null, "num_magnetic_sites": null, "num_unique_magnetic_sites": null, "types_of_magnetic_species": null, "bulk_modulus": null, "shear_modulus": null, "universal_anisotropy": null, "homogeneous_poisson": null, "e_total": null, "e_ionic": null, "e_electronic": null, "n": null, "e_ij_max": null, "weighted_surface_energy_EV_PER_ANG2": null, "weighted_surface_energy": null, "weighted_work_function": null, "surface_anisotropy": null, "shape_factor": null, "has_reconstructed": null, "possible_species": null, "has_props": null, "theoretical": null, "database_IDs": null, "fields_not_requested": ["builder_meta", "nsites", "elements", "nelements", "composition", "composition_reduced", "chemsys", "symmetry", "property_name", "deprecated", "deprecation_reasons", "last_updated", "origins", "warnings", "task_ids", "uncorrected_energy_per_atom", "equilibrium_reaction_energy_per_atom", "decomposes_to", "xas", "grain_boundaries", "cbm", "vbm", "is_gap_direct", "is_metal", "es_source_calc_id", "bandstructure", "dos", "dos_energy_up", "dos_energy_down", "is_magnetic", "ordering", "total_magnetization_normalized_vol", "total_magnetization_normalized_formula_units", "num_magnetic_sites", "num_unique_magnetic_sites", "types_of_magnetic_species", "bulk_modulus", "shear_modulus", "universal_anisotropy", "homogeneous_poisson", "e_total", "e_ionic", "e_electronic", "n", "e_ij_max", "weighted_surface_energy_EV_PER_ANG2", "weighted_surface_energy", "weighted_work_function", "surface_anisotropy", "shape_factor", "has_reconstructed", "possible_species", "has_props", "theoretical", "database_IDs"]}