{
  "builder_meta": null,
  "nsites": null,
  "elements": null,
  "nelements": null,
  "composition": null,
  "composition_reduced": null,
  "formula_pretty": "Y3Sb",
  "formula_anonymous": "AB3",
  "chemsys": null,
  "volume": 964.2053759726765,
  "density": 5.352238552881372,
  "density_atomic": 30.13141799914614,
  "symmetry": null,
  "property_name": null,
  "material_id": "mp-1196393",
  "deprecated": null,
  "deprecation_reasons": null,
  "last_updated": null,
  "origins": null,
  "warnings": null,
  "structure": {
    "@module": "pymatgen.core.structure",
    "@class": "Structure",
    "charge": 0,
    "lattice": {
      "matrix": [
        [0.00023032, -9.957000000000001e-5, 6.21756409],
        [12.45317898, -3.3060000000000005e-5, 0.00046184],
        [-0.0003102, 12.45285837, -0.00019983000000000002]
      ],
      "pbc": [true, true, true],
      "a": 6.217564095063196,
      "b": 12.453178988607808,
      "c": 12.452858375466858,
      "alpha": 90.0015793743508,
      "beta": 90.00183702594255,
      "gamma": 89.99575268670844,
      "volume": 964.2053759726765
    },
    "properties": {},
    "sites": [
      {
        "species": [{ "element": "Y", "occu": 1 }],
        "abc": [0.28625231, 0.14017836, 0.6656510800000001],
        "properties": { "magmom": 0.162 },
        "label": "Y",
        "xyz": [1.745525650869896, 8.289225486638452, 1.7797238062540137]
      },
      {
        "species": [{ "element": "Y", "occu": 1 }],
        "abc": [0.28627741, 0.35976645, 0.83441873],
        "properties": { "magmom": 0.162 },
        "label": "Y",
        "xyz": [4.480043091572246, 10.39085786744472, 1.779947556836659]
      },
      {
        "species": [{ "element": "Y", "occu": 1 }],
        "abc": [0.78628583, 0.16555395, 0.85978484],
        "properties": { "magmom": 0.162 },
        "label": "Y",
        "xyz": [2.061587362290969, 10.706695077499429, 4.888687189715535]
      },
      {
        "species": [{ "element": "Y", "occu": 1 }],
        "abc": [0.78627097, 0.33437341, 0.64029659],
        "properties": { "magmom": 0.162 },
        "label": "Y",
        "xyz": [4.163994394810514, 7.973433406678541, 4.888716624629563]
      },
      {
        "species": [{ "element": "Y", "occu": 1 }],
        "abc": [0.71373175, 0.85974688, 0.33435543],
        "properties": { "magmom": 0.162 },
        "label": "Y",
        "xyz": [10.706642443778856, 4.1635813255282486, 4.438003149946339]
      },
      {
        "species": [{ "element": "Y", "occu": 1 }],
        "abc": [0.71372209, 0.64030847, 0.16556654],
        "properties": { "magmom": 0.162 },
        "label": "Y",
        "xyz": [7.973989005051022, 2.0616844395244205, 4.437875471925844]
      },
      {
        "species": [{ "element": "Y", "occu": 1 }],
        "abc": [0.2137259, 0.83437085, 0.1402062],
        "properties": { "magmom": 0.162 },
        "label": "Y",
        "xyz": [10.390575264130781, 1.7459190862077298, 1.329211809371349]
      },
      {
        "species": [{ "element": "Y", "occu": 1 }],
        "abc": [0.21372933, 0.66569934, 0.35971877],
        "properties": { "magmom": 0.162 },
        "label": "Y",
        "xyz": [8.290010669264705, 4.479483606791037, 1.329111371169136]
      },
      {
        "species": [{ "element": "Y", "occu": 1 }],
        "abc": [0.23261742, 0.9655742700000001, 0.42599219],
        "properties": { "magmom": 0.265 },
        "label": "Y",
        "xyz": [12.024390636459682, 5.304765325194254, 1.4466745321019767]
      },
      {
        "species": [{ "element": "Y", "occu": 1 }],
        "abc": [0.23263369, 0.53444251, 0.07397628],
        "properties": { "magmom": 0.265 },
        "label": "Y",
        "xyz": [6.6555388642998645, 0.9211753055735697, 1.4466469213169784]
      },
      {
        "species": [{ "element": "Y", "occu": 1 }],
        "abc": [0.73261327, 0.92595956, 0.03438144],
        "properties": { "magmom": 0.265 },
        "label": "Y",
        "xyz": [11.531298199287708, 0.42804364435030523, 4.55549073412951]
      },
      {
        "species": [{ "element": "Y", "occu": 1 }],
        "abc": [0.7326181900000001, 0.57407761, 0.46560023],
        "properties": { "magmom": 0.265 },
        "label": "Y",
        "xyz": [7.1491155331708125, 5.79796179543046, 4.5552726409342394]
      },
      {
        "species": [{ "element": "Y", "occu": 1 }],
        "abc": [0.76739363, 0.03433973, 0.5740078200000001],
        "properties": { "magmom": 0.265 },
        "label": "Y",
        "xyz": [0.42763749268997303, 7.147960541077241, 4.771220232260979]
      },
      {
        "species": [{ "element": "Y", "occu": 1 }],
        "abc": [0.7673829600000001, 0.46565049000000003, 0.92602061],
        "properties": { "magmom": 0.265 },
        "label": "Y",
        "xyz": [5.798718386144826, 11.53151170130448, 4.771282744697711]
      },
      {
        "species": [{ "element": "Y", "occu": 1 }],
        "abc": [0.26737601, 0.07393145, 0.96560977],
        "properties": { "magmom": 0.265 },
        "label": "Y",
        "xyz": [0.9204436289928901, 12.024572639695222, 1.66226866500401]
      },
      {
        "species": [{ "element": "Y", "occu": 1 }],
        "abc": [0.26738547, 0.42603444, 0.53441003],
        "properties": { "magmom": 0.265 },
        "label": "Y",
        "xyz": [5.305378943194216, 6.654891706827616, 1.662576265049247]
      },
      {
        "species": [{ "element": "Y", "occu": 1 }],
        "abc": [0.535612699999999, 0.21850864, 0.392621899999999],
        "properties": { "magmom": 0.069 },
        "label": "Y",
        "xyz": [2.721128773600071, 4.889204358808113, 3.330228748063958]
      },
      {
        "species": [{ "element": "Y", "occu": 1 }],
        "abc": [0.5356205900000001, 0.2814144, 0.10732529],
        "properties": { "magmom": 0.068 },
        "label": "Y",
        "xyz": [3.504593962578643, 1.3364440005869669, 3.330363867862409]
      },
      {
        "species": [{ "element": "Y", "occu": 1 }],
        "abc": [0.03562937, 0.89264493, 0.78146441],
        "properties": { "magmom": 0.069 },
        "label": "Y",
        "xyz": [11.116032874776089, 9.731432560467855, 0.2217839905627442]
      },
      {
        "species": [{ "element": "Y", "occu": 1 }],
        "abc": [0.03565176, 0.60741311, 0.71861475],
        "properties": { "magmom": 0.069 },
        "label": "Y",
        "xyz": [7.564009470646341, 8.948784073419796, 0.22180402960652829]
      },
      {
        "species": [{ "element": "Y", "occu": 1 }],
        "abc": [0.46436254, 0.78146866, 0.60737249],
        "properties": { "magmom": 0.069 },
        "label": "Y",
        "xyz": [9.731687635274582, 7.563451523872234, 2.887443395686446]
      },
      {
        "species": [{ "element": "Y", "occu": 1 }],
        "abc": [0.46438411, 0.71860738, 0.8926794],
        "properties": { "magmom": 0.069 },
        "label": "Y",
        "xyz": [8.94877636728721, 11.116340142130761, 2.887491463810487]
      },
      {
        "species": [{ "element": "Y", "occu": 1 }],
        "abc": [0.964353799999999, 0.10727956, 0.21853439],
        "properties": { "magmom": 0.068 },
        "label": "Y",
        "xyz": [1.3361258821750868, 2.721278240274225, 5.995937433199872]
      },
      {
        "species": [{ "element": "Y", "occu": 1 }],
        "abc": [0.96434997, 0.39266565000000003, 0.28138398000000003],
        "properties": { "magmom": 0.068 },
        "label": "Y",
        "xyz": [4.890070442522532, 3.503925848674011, 5.99603286340765]
      },
      {
        "species": [{ "element": "Sb", "occu": 1 }],
        "abc": [0.5420763200000001, 0.95054487, 0.79252224],
        "properties": { "magmom": -0.012 },
        "label": "Sb",
        "xyz": [11.837184405250007, 9.869081810242564, 3.370674891194891]
      },
      {
        "species": [{ "element": "Sb", "occu": 1 }],
        "abc": [0.54212544, 0.54949306, 0.70750802],
        "properties": { "magmom": -0.012 },
        "label": "Sb",
        "xyz": [6.842840817791416, 8.810425023028502, 3.370812064566643]
      },
      {
        "species": [{ "element": "Sb", "occu": 1 }],
        "abc": [0.04208295, 0.29251115, 0.04944235],
        "properties": { "magmom": -0.012 },
        "label": "Sb",
        "xyz": [3.642688060123701, 0.615684721412019, 0.261778652005981]
      },
      {
        "species": [{ "element": "Sb", "occu": 1 }],
        "abc": [0.04207625, 0.20743096, 0.45055464],
        "properties": { "magmom": -0.012 },
        "label": "Sb",
        "xyz": [2.583044799825793, 5.610682072666586, 0.2616175466227177]
      },
      {
        "species": [{ "element": "Sb", "occu": 1 }],
        "abc": [0.45790762, 0.049352810000000004, 0.20743782],
        "properties": { "magmom": -0.012 },
        "label": "Sb",
        "xyz": [0.6146404941672083, 2.5831465675759313, 2.8470513154515658]
      },
      {
        "species": [{ "element": "Sb", "occu": 1 }],
        "abc": [0.45792647000000003, 0.45061063, 0.29252132000000003],
        "properties": { "magmom": -0.012 },
        "label": "Sb",
        "xyz": [5.611549555191664, 3.642666075239403, 2.8473368312104457]
      },
      {
        "species": [{ "element": "Sb", "occu": 1 }],
        "abc": [0.9578997300000001, 0.7074903300000001, 0.950548499999999],
        "properties": { "magmom": -0.012 },
        "label": "Sb",
        "xyz": [8.810429469430376, 11.836927076609507, 5.955939762295949]
      },
      {
        "species": [{ "element": "Sb", "occu": 1 }],
        "abc": [0.9579221800000001, 0.79254907, 0.54947298],
        "properties": { "magmom": -0.012 },
        "label": "Sb",
        "xyz": [9.86980560126065, 6.842387616098126, 5.956198777059412]
      }
    ]
  },
  "task_ids": null,
  "uncorrected_energy_per_atom": null,
  "energy_per_atom": -22.3763939915625,
  "formation_energy_per_atom": -0.714614339062503,
  "energy_above_hull": 0.007986265937496,
  "is_stable": false,
  "equilibrium_reaction_energy_per_atom": null,
  "decomposes_to": null,
  "xas": null,
  "grain_boundaries": null,
  "band_gap": 0.0,
  "cbm": null,
  "vbm": null,
  "efermi": 4.48459016,
  "is_gap_direct": null,
  "is_metal": null,
  "es_source_calc_id": null,
  "bandstructure": null,
  "dos": null,
  "dos_energy_up": null,
  "dos_energy_down": null,
  "is_magnetic": null,
  "ordering": null,
  "total_magnetization": 6.5882127,
  "total_magnetization_normalized_vol": null,
  "total_magnetization_normalized_formula_units": null,
  "num_magnetic_sites": null,
  "num_unique_magnetic_sites": null,
  "types_of_magnetic_species": null,
  "bulk_modulus": null,
  "shear_modulus": null,
  "universal_anisotropy": null,
  "homogeneous_poisson": null,
  "e_total": null,
  "e_ionic": null,
  "e_electronic": null,
  "n": null,
  "e_ij_max": null,
  "weighted_surface_energy_EV_PER_ANG2": null,
  "weighted_surface_energy": null,
  "weighted_work_function": null,
  "surface_anisotropy": null,
  "shape_factor": null,
  "has_reconstructed": null,
  "possible_species": null,
  "has_props": null,
  "theoretical": null,
  "database_IDs": null,
  "fields_not_requested": [
    "builder_meta",
    "nsites",
    "elements",
    "nelements",
    "composition",
    "composition_reduced",
    "chemsys",
    "symmetry",
    "property_name",
    "deprecated",
    "deprecation_reasons",
    "last_updated",
    "origins",
    "warnings",
    "task_ids",
    "uncorrected_energy_per_atom",
    "equilibrium_reaction_energy_per_atom",
    "decomposes_to",
    "xas",
    "grain_boundaries",
    "cbm",
    "vbm",
    "is_gap_direct",
    "is_metal",
    "es_source_calc_id",
    "bandstructure",
    "dos",
    "dos_energy_up",
    "dos_energy_down",
    "is_magnetic",
    "ordering",
    "total_magnetization_normalized_vol",
    "total_magnetization_normalized_formula_units",
    "num_magnetic_sites",
    "num_unique_magnetic_sites",
    "types_of_magnetic_species",
    "bulk_modulus",
    "shear_modulus",
    "universal_anisotropy",
    "homogeneous_poisson",
    "e_total",
    "e_ionic",
    "e_electronic",
    "n",
    "e_ij_max",
    "weighted_surface_energy_EV_PER_ANG2",
    "weighted_surface_energy",
    "weighted_work_function",
    "surface_anisotropy",
    "shape_factor",
    "has_reconstructed",
    "possible_species",
    "has_props",
    "theoretical",
    "database_IDs"
  ]
}
