{
  "builder_meta": null,
  "nsites": null,
  "elements": null,
  "nelements": null,
  "composition": null,
  "composition_reduced": null,
  "formula_pretty": "Y3Sn",
  "formula_anonymous": "AB3",
  "chemsys": null,
  "volume": 229.63274578459541,
  "density": 5.574270358804022,
  "density_atomic": 28.704093223074427,
  "symmetry": null,
  "property_name": null,
  "material_id": "mp-982243",
  "deprecated": null,
  "deprecation_reasons": null,
  "last_updated": null,
  "origins": null,
  "warnings": null,
  "structure": {
    "@module": "pymatgen.core.structure",
    "@class": "Structure",
    "charge": 0,
    "lattice": {
      "matrix": [
        [3.440336, -5.958837, 0.0],
        [3.440336, 5.958837, 0.0],
        [0.0, 0.0, 5.600689]
      ],
      "pbc": [true, true, true],
      "a": 6.880672219010654,
      "b": 6.880672219010654,
      "c": 5.600689,
      "alpha": 90.0,
      "beta": 90.0,
      "gamma": 120.00000210584487,
      "volume": 229.63274578459541
    },
    "properties": {},
    "sites": [
      {
        "species": [{ "element": "Y", "occu": 1 }],
        "abc": [0.171148, 0.342294999999999, 0.25],
        "properties": { "magmom": 0.202 },
        "label": "Y",
        "xyz": [1.7664164368479964, 1.0198370760389943, 1.40017225]
      },
      {
        "species": [{ "element": "Y", "occu": 1 }],
        "abc": [0.657705, 0.828851999999999, 0.25],
        "properties": { "magmom": 0.203 },
        "label": "Y",
        "xyz": [5.114255563151996, 1.019837076038994, 1.40017225]
      },
      {
        "species": [{ "element": "Y", "occu": 1 }],
        "abc": [0.171148, 0.828851999999999, 0.25],
        "properties": { "magmom": 0.202 },
        "label": "Y",
        "xyz": [3.4403359999999967, 3.9191509302479943, 1.40017225]
      },
      {
        "species": [{ "element": "Y", "occu": 1 }],
        "abc": [0.828851999999999, 0.657705, 0.75],
        "properties": { "magmom": 0.202 },
        "label": "Y",
        "xyz": [5.114255563151996, -1.019837076038994, 4.20051675]
      },
      {
        "species": [{ "element": "Y", "occu": 1 }],
        "abc": [0.342294999999999, 0.171148, 0.75],
        "properties": { "magmom": 0.203 },
        "label": "Y",
        "xyz": [1.7664164368479964, -1.0198370760389943, 4.20051675]
      },
      {
        "species": [{ "element": "Y", "occu": 1 }],
        "abc": [0.828851999999999, 0.171148, 0.75],
        "properties": { "magmom": 0.202 },
        "label": "Y",
        "xyz": [3.4403359999999967, -3.9191509302479943, 4.20051675]
      },
      {
        "species": [{ "element": "Sn", "occu": 1 }],
        "abc": [0.333333, 0.666667, 0.75],
        "properties": { "magmom": -0.018000000000000002 },
        "label": "Sn",
        "xyz": [3.440336, 1.9862829725580002, 4.20051675]
      },
      {
        "species": [{ "element": "Sn", "occu": 1 }],
        "abc": [0.666667, 0.333333, 0.25],
        "properties": { "magmom": -0.018000000000000002 },
        "label": "Sn",
        "xyz": [3.440336, -1.9862829725580002, 1.40017225]
      }
    ]
  },
  "task_ids": null,
  "uncorrected_energy_per_atom": null,
  "energy_per_atom": -6.2586439375000005,
  "formation_energy_per_atom": -0.37443234874999903,
  "energy_above_hull": 0.12117940916666702,
  "is_stable": false,
  "equilibrium_reaction_energy_per_atom": null,
  "decomposes_to": null,
  "xas": null,
  "grain_boundaries": null,
  "band_gap": 0.0,
  "cbm": null,
  "vbm": null,
  "efermi": 4.7528527700000005,
  "is_gap_direct": null,
  "is_metal": null,
  "es_source_calc_id": null,
  "bandstructure": null,
  "dos": null,
  "dos_energy_up": null,
  "dos_energy_down": null,
  "is_magnetic": null,
  "ordering": null,
  "total_magnetization": 2.109560199999999,
  "total_magnetization_normalized_vol": null,
  "total_magnetization_normalized_formula_units": null,
  "num_magnetic_sites": null,
  "num_unique_magnetic_sites": null,
  "types_of_magnetic_species": null,
  "bulk_modulus": null,
  "shear_modulus": null,
  "universal_anisotropy": null,
  "homogeneous_poisson": null,
  "e_total": null,
  "e_ionic": null,
  "e_electronic": null,
  "n": null,
  "e_ij_max": null,
  "weighted_surface_energy_EV_PER_ANG2": null,
  "weighted_surface_energy": null,
  "weighted_work_function": null,
  "surface_anisotropy": null,
  "shape_factor": null,
  "has_reconstructed": null,
  "possible_species": null,
  "has_props": null,
  "theoretical": null,
  "database_IDs": null,
  "fields_not_requested": [
    "builder_meta",
    "nsites",
    "elements",
    "nelements",
    "composition",
    "composition_reduced",
    "chemsys",
    "symmetry",
    "property_name",
    "deprecated",
    "deprecation_reasons",
    "last_updated",
    "origins",
    "warnings",
    "task_ids",
    "uncorrected_energy_per_atom",
    "equilibrium_reaction_energy_per_atom",
    "decomposes_to",
    "xas",
    "grain_boundaries",
    "cbm",
    "vbm",
    "is_gap_direct",
    "is_metal",
    "es_source_calc_id",
    "bandstructure",
    "dos",
    "dos_energy_up",
    "dos_energy_down",
    "is_magnetic",
    "ordering",
    "total_magnetization_normalized_vol",
    "total_magnetization_normalized_formula_units",
    "num_magnetic_sites",
    "num_unique_magnetic_sites",
    "types_of_magnetic_species",
    "bulk_modulus",
    "shear_modulus",
    "universal_anisotropy",
    "homogeneous_poisson",
    "e_total",
    "e_ionic",
    "e_electronic",
    "n",
    "e_ij_max",
    "weighted_surface_energy_EV_PER_ANG2",
    "weighted_surface_energy",
    "weighted_work_function",
    "surface_anisotropy",
    "shape_factor",
    "has_reconstructed",
    "possible_species",
    "has_props",
    "theoretical",
    "database_IDs"
  ]
}
