{"builder_meta": null, "nsites": null, "elements": null, "nelements": null, "composition": null, "composition_reduced": null, "formula_pretty": "Y3Th", "formula_anonymous": "AB3", "chemsys": null, "volume": 268.06381986585336, "density": 6.179149245171316, "density_atomic": 33.50797748323167, "symmetry": null, "property_name": null, "material_id": "mp-981549", "deprecated": null, "deprecation_reasons": null, "last_updated": null, "origins": null, "warnings": null, "structure": {"@module": "pymatgen.core.structure", "@class": "Structure", "charge": 0, "lattice": {"matrix": [[7.28908082, 8.499999999999998e-07, 2e-07], [-3.64453981, 6.31252501, -5.3e-07], [1.6e-07, -4e-07, 5.8258902]], "pbc": [true, true, true], "a": 7.289080820000052, "b": 7.289076925684803, "c": 5.825890200000016, "alpha": 90.00000835967266, "beta": 89.99999685435239, "gamma": 120.00000554608621, "volume": 268.0638198658533}, "properties": {}, "sites": [{"species": [{"element": "Y", "occu": 1}], "abc": [0.1681411, 0.33626523, 0.25000205000000003], "properties": {"magmom": -0.127}, "label": "Y", "xyz": [6.208961022330939e-05, 2.1226827172875176, 1.4564843484825583]}, {"species": [{"element": "Y", "occu": 1}], "abc": [0.66373677, 0.83185763, 0.25000197], "properties": {"magmom": -0.127}, "label": "Y", "xyz": [1.8062927509488163, 5.251122558309793, 1.456483718866504]}, {"species": [{"element": "Y", "occu": 1}], "abc": [0.16812837, 0.83186801, 0.25000196], "properties": {"magmom": -0.127}, "label": "Y", "xyz": [-1.806274762045301, 5.251187661052261, 1.4564835614804208]}, {"species": [{"element": "Y", "occu": 1}], "abc": [0.83186623, 0.66371463, 0.74999914], "properties": {"magmom": -0.127}, "label": "Y", "xyz": [3.6446059103841506, 4.189715608464535, 4.36941245433892]}, {"species": [{"element": "Y", "occu": 1}], "abc": [0.3362842, 0.16813505, 0.7499992], "properties": {"magmom": -0.127}, "label": "Y", "xyz": [1.8384279491075752, 1.0613566940244905, 4.369412967433103]}, {"species": [{"element": "Y", "occu": 1}], "abc": [0.83185756, 0.16814466, 0.74999907], "properties": {"magmom": -0.127}, "label": "Y", "xyz": [5.450667198358936, 1.0614177786272447, 4.3694123091769566]}, {"species": [{"element": "Th", "occu": 1}], "abc": [0.33332663, 0.66667068, 0.75000862], "properties": {"magmom": -0.27}, "label": "Th", "xyz": [-6.296789015477499e-05, 4.208375324257894, 4.369467582503389]}, {"species": [{"element": "Th", "occu": 1}], "abc": [0.6666621500000001, 0.33334212, 0.24999199], "properties": {"magmom": -0.27}, "label": "Th", "xyz": [3.644475704293884, 2.1042309360524523, 1.4564258412806044]}]}, "task_ids": null, "uncorrected_energy_per_atom": null, "energy_per_atom": -33.5285145875, "formation_energy_per_atom": 0.075501670000001, "energy_above_hull": 0.075501670000001, "is_stable": false, "equilibrium_reaction_energy_per_atom": null, "decomposes_to": null, "xas": null, "grain_boundaries": null, "band_gap": 0.0, "cbm": null, "vbm": null, "efermi": 4.06842278, "is_gap_direct": null, "is_metal": null, "es_source_calc_id": null, "bandstructure": null, "dos": null, "dos_energy_up": null, "dos_energy_down": null, "is_magnetic": null, "ordering": null, "total_magnetization": 2.3219418, "total_magnetization_normalized_vol": null, "total_magnetization_normalized_formula_units": null, "num_magnetic_sites": null, "num_unique_magnetic_sites": null, "types_of_magnetic_species": null, "bulk_modulus": null, "shear_modulus": null, "universal_anisotropy": null, "homogeneous_poisson": null, "e_total": null, "e_ionic": null, "e_electronic": null, "n": null, "e_ij_max": null, "weighted_surface_energy_EV_PER_ANG2": null, "weighted_surface_energy": null, "weighted_work_function": null, "surface_anisotropy": null, "shape_factor": null, "has_reconstructed": null, "possible_species": null, "has_props": null, "theoretical": null, "database_IDs": null, "fields_not_requested": ["builder_meta", "nsites", "elements", "nelements", "composition", "composition_reduced", "chemsys", "symmetry", "property_name", "deprecated", "deprecation_reasons", "last_updated", "origins", "warnings", "task_ids", "uncorrected_energy_per_atom", "equilibrium_reaction_energy_per_atom", "decomposes_to", "xas", "grain_boundaries", "cbm", "vbm", "is_gap_direct", "is_metal", "es_source_calc_id", "bandstructure", "dos", "dos_energy_up", "dos_energy_down", "is_magnetic", "ordering", "total_magnetization_normalized_vol", "total_magnetization_normalized_formula_units", "num_magnetic_sites", "num_unique_magnetic_sites", "types_of_magnetic_species", "bulk_modulus", "shear_modulus", "universal_anisotropy", "homogeneous_poisson", "e_total", "e_ionic", "e_electronic", "n", "e_ij_max", "weighted_surface_energy_EV_PER_ANG2", "weighted_surface_energy", "weighted_work_function", "surface_anisotropy", "shape_factor", "has_reconstructed", "possible_species", "has_props", "theoretical", "database_IDs"]}