{"builder_meta": null, "nsites": null, "elements": null, "nelements": null, "composition": null, "composition_reduced": null, "formula_pretty": "Y3Tl", "formula_anonymous": "AB3", "chemsys": null, "volume": 233.3835628279652, "density": 6.7038257215236055, "density_atomic": 29.17294535349565, "symmetry": null, "property_name": null, "material_id": "mp-1187822", "deprecated": null, "deprecation_reasons": null, "last_updated": null, "origins": null, "warnings": null, "structure": {"@module": "pymatgen.core.structure", "@class": "Structure", "charge": 0, "lattice": {"matrix": [[3.447115799999999, -5.97057719, 0.0], [3.44711418, 5.97057609, 0.0], [0.0, 0.0, 5.66980629]], "pbc": [true, true, true], "a": 6.894229421796023, "b": 6.894227659167977, "c": 5.66980629, "alpha": 90.0, "beta": 90.0, "gamma": 119.99998618587394, "volume": 233.3835628279651}, "properties": {}, "sites": [{"species": [{"element": "Y", "occu": 1}], "abc": [0.17086003, 0.34171161, 0.25], "properties": {"magmom": 0.456}, "label": "Y", "xyz": [1.7668932453031037, 1.020082170540689, 1.4174515725]}, {"species": [{"element": "Y", "occu": 1}], "abc": [0.658287699999999, 0.82914119, 0.25], "properties": {"magmom": 0.456}, "label": "Y", "xyz": [5.127338284886729, 1.0200930381705895, 1.4174515725]}, {"species": [{"element": "Y", "occu": 1}], "abc": [0.17085684, 0.82914614, 0.25], "properties": {"magmom": 0.456}, "label": "Y", "xyz": [3.447124729188337, 3.9303661669403125, 1.4174515725]}, {"species": [{"element": "Y", "occu": 1}], "abc": [0.8291399700000001, 0.6582883900000001, 0.75], "properties": {"magmom": 0.456}, "label": "Y", "xyz": [5.127336734696895, -1.02008327054069, 4.2523547175]}, {"species": [{"element": "Y", "occu": 1}], "abc": [0.341712299999999, 0.17085881, 0.75], "properties": {"magmom": 0.456}, "label": "Y", "xyz": [1.7668916951132618, -1.0200941381705784, 4.2523547175]}, {"species": [{"element": "Y", "occu": 1}], "abc": [0.82914316, 0.17085386, 0.75], "properties": {"magmom": 0.456}, "label": "Y", "xyz": [3.4471052508116617, -3.9303672669403134, 4.2523547175]}, {"species": [{"element": "Tl", "occu": 1}], "abc": [0.33333736, 0.66666568, 0.75], "properties": {"magmom": -0.063}, "label": "Tl", "xyz": [3.4471251992336303, 1.9901617308407726, 4.2523547175]}, {"species": [{"element": "Tl", "occu": 1}], "abc": [0.66666264, 0.33333432, 0.25], "properties": {"magmom": -0.063}, "label": "Tl", "xyz": [3.4471047807663684, -1.9901628308407728, 1.4174515725]}]}, "task_ids": null, "uncorrected_energy_per_atom": null, "energy_per_atom": -28.78457288, "formation_energy_per_atom": -0.254546015000002, "energy_above_hull": 0.05957248375000201, "is_stable": false, "equilibrium_reaction_energy_per_atom": null, "decomposes_to": null, "xas": null, "grain_boundaries": null, "band_gap": 0.0, "cbm": null, "vbm": null, "efermi": 4.35981097, "is_gap_direct": null, "is_metal": null, "es_source_calc_id": null, "bandstructure": null, "dos": null, "dos_energy_up": null, "dos_energy_down": null, "is_magnetic": null, "ordering": null, "total_magnetization": 3.7428236, "total_magnetization_normalized_vol": null, "total_magnetization_normalized_formula_units": null, "num_magnetic_sites": null, "num_unique_magnetic_sites": null, "types_of_magnetic_species": null, "bulk_modulus": null, "shear_modulus": null, "universal_anisotropy": null, "homogeneous_poisson": null, "e_total": null, "e_ionic": null, "e_electronic": null, "n": null, "e_ij_max": null, "weighted_surface_energy_EV_PER_ANG2": null, "weighted_surface_energy": null, "weighted_work_function": null, "surface_anisotropy": null, "shape_factor": null, "has_reconstructed": null, "possible_species": null, "has_props": null, "theoretical": null, "database_IDs": null, "fields_not_requested": ["builder_meta", "nsites", "elements", "nelements", "composition", "composition_reduced", "chemsys", "symmetry", "property_name", "deprecated", "deprecation_reasons", "last_updated", "origins", "warnings", "task_ids", "uncorrected_energy_per_atom", "equilibrium_reaction_energy_per_atom", "decomposes_to", "xas", "grain_boundaries", "cbm", "vbm", "is_gap_direct", "is_metal", "es_source_calc_id", "bandstructure", "dos", "dos_energy_up", "dos_energy_down", "is_magnetic", "ordering", "total_magnetization_normalized_vol", "total_magnetization_normalized_formula_units", "num_magnetic_sites", "num_unique_magnetic_sites", "types_of_magnetic_species", "bulk_modulus", "shear_modulus", "universal_anisotropy", "homogeneous_poisson", "e_total", "e_ionic", "e_electronic", "n", "e_ij_max", "weighted_surface_energy_EV_PER_ANG2", "weighted_surface_energy", "weighted_work_function", "surface_anisotropy", "shape_factor", "has_reconstructed", "possible_species", "has_props", "theoretical", "database_IDs"]}