{
  "builder_meta": null,
  "nsites": null,
  "elements": null,
  "nelements": null,
  "composition": null,
  "composition_reduced": null,
  "formula_pretty": "Y3Tl5",
  "formula_anonymous": "A3B5",
  "chemsys": null,
  "volume": 426.9857958408204,
  "density": 10.02294316775681,
  "density_atomic": 26.686612240051275,
  "symmetry": null,
  "property_name": null,
  "material_id": "mp-1207757",
  "deprecated": null,
  "deprecation_reasons": null,
  "last_updated": null,
  "origins": null,
  "warnings": null,
  "structure": {
    "@module": "pymatgen.core.structure",
    "@class": "Structure",
    "charge": 0,
    "lattice": {
      "matrix": [
        [4.99679505, 4.0665906, -0.0],
        [-4.99679505, 4.0665906, -0.0],
        [0.0, -0.0, 10.50658173]
      ],
      "pbc": [true, true, true],
      "a": 6.442446730840144,
      "b": 6.442446730840144,
      "c": 10.50658173,
      "alpha": 90.0,
      "beta": 90.0,
      "gamma": 101.71986489935878,
      "volume": 426.9857958408204
    },
    "properties": {},
    "sites": [
      {
        "species": [{ "element": "Y", "occu": 1 }],
        "abc": [0.20429152, 0.79570848, 0.0],
        "properties": { "magmom": 0.0 },
        "label": "Y",
        "xyz": [-2.9551893382140486, 4.0665906, 0.0]
      },
      {
        "species": [{ "element": "Y", "occu": 1 }],
        "abc": [0.79570848, 0.20429152, 0.0],
        "properties": { "magmom": 0.0 },
        "label": "Y",
        "xyz": [2.9551893382140486, 4.0665906, 0.0]
      },
      {
        "species": [{ "element": "Y", "occu": 1 }],
        "abc": [0.79570848, 0.20429152, 0.5],
        "properties": { "magmom": 0.0 },
        "label": "Y",
        "xyz": [2.9551893382140486, 4.0665906, 5.253290865]
      },
      {
        "species": [{ "element": "Y", "occu": 1 }],
        "abc": [0.20429152, 0.79570848, 0.5],
        "properties": { "magmom": 0.0 },
        "label": "Y",
        "xyz": [-2.9551893382140486, 4.0665906, 5.253290865]
      },
      {
        "species": [{ "element": "Y", "occu": 1 }],
        "abc": [0.61728257, 0.61728257, 0.25],
        "properties": { "magmom": 0.0 },
        "label": "Y",
        "xyz": [0.0, 5.020470993411683, 2.6266454325]
      },
      {
        "species": [{ "element": "Y", "occu": 1 }],
        "abc": [0.38271743, 0.38271743, 0.75],
        "properties": { "magmom": 0.0 },
        "label": "Y",
        "xyz": [0.0, 3.112710206588316, 7.8799362975000005]
      },
      {
        "species": [{ "element": "Tl", "occu": 1 }],
        "abc": [0.5138315999999991, 0.07315041, 0.25],
        "properties": { "magmom": -0.0 },
        "label": "Tl",
        "xyz": [2.2019935888201045, 2.387015524235102, 2.6266454325]
      },
      {
        "species": [{ "element": "Tl", "occu": 1 }],
        "abc": [0.4861684, 0.92684959, 0.75],
        "properties": { "magmom": -0.0 },
        "label": "Tl",
        "xyz": [-2.20199358882011, 5.746165675764893, 7.8799362975000005]
      },
      {
        "species": [{ "element": "Tl", "occu": 1 }],
        "abc": [0.07315041, 0.5138315999999991, 0.25],
        "properties": { "magmom": -0.0 },
        "label": "Tl",
        "xyz": [-2.2019935888201045, 2.387015524235102, 2.6266454325]
      },
      {
        "species": [{ "element": "Tl", "occu": 1 }],
        "abc": [0.92684959, 0.4861684, 0.75],
        "properties": { "magmom": -0.0 },
        "label": "Tl",
        "xyz": [2.20199358882011, 5.746165675764893, 7.8799362975000005]
      },
      {
        "species": [{ "element": "Tl", "occu": 1 }],
        "abc": [0.00622916, 0.00622916, 0.25],
        "properties": { "magmom": -0.0 },
        "label": "Tl",
        "xyz": [0.0, 0.050662887003792, 2.6266454325]
      },
      {
        "species": [{ "element": "Tl", "occu": 1 }],
        "abc": [0.99377084, 0.99377084, 0.75],
        "properties": { "magmom": -0.0 },
        "label": "Tl",
        "xyz": [0.0, 8.082518312996207, 7.8799362975000005]
      },
      {
        "species": [{ "element": "Tl", "occu": 1 }],
        "abc": [0.30500113, 0.30500113, 0.038740830000000004],
        "properties": { "magmom": -0.0 },
        "label": "Tl",
        "xyz": [0.0, 2.4806294564947557, 0.40703369668303596]
      },
      {
        "species": [{ "element": "Tl", "occu": 1 }],
        "abc": [0.69499887, 0.69499887, 0.96125917],
        "properties": { "magmom": -0.0 },
        "label": "Tl",
        "xyz": [0.0, 5.652551743505244, 10.099548033316966]
      },
      {
        "species": [{ "element": "Tl", "occu": 1 }],
        "abc": [0.69499887, 0.69499887, 0.5387408300000001],
        "properties": { "magmom": -0.0 },
        "label": "Tl",
        "xyz": [0.0, 5.652551743505244, 5.660324561683037]
      },
      {
        "species": [{ "element": "Tl", "occu": 1 }],
        "abc": [0.30500113, 0.30500113, 0.46125917],
        "properties": { "magmom": -0.0 },
        "label": "Tl",
        "xyz": [0.0, 2.4806294564947557, 4.846257168316964]
      }
    ]
  },
  "task_ids": null,
  "uncorrected_energy_per_atom": null,
  "energy_per_atom": -41.265249603125,
  "formation_energy_per_atom": -0.410583880625004,
  "energy_above_hull": 0.0,
  "is_stable": true,
  "equilibrium_reaction_energy_per_atom": null,
  "decomposes_to": null,
  "xas": null,
  "grain_boundaries": null,
  "band_gap": 0.0,
  "cbm": null,
  "vbm": null,
  "efermi": 6.16033439,
  "is_gap_direct": null,
  "is_metal": null,
  "es_source_calc_id": null,
  "bandstructure": null,
  "dos": null,
  "dos_energy_up": null,
  "dos_energy_down": null,
  "is_magnetic": null,
  "ordering": null,
  "total_magnetization": 1.2e-6,
  "total_magnetization_normalized_vol": null,
  "total_magnetization_normalized_formula_units": null,
  "num_magnetic_sites": null,
  "num_unique_magnetic_sites": null,
  "types_of_magnetic_species": null,
  "bulk_modulus": null,
  "shear_modulus": null,
  "universal_anisotropy": null,
  "homogeneous_poisson": null,
  "e_total": null,
  "e_ionic": null,
  "e_electronic": null,
  "n": null,
  "e_ij_max": null,
  "weighted_surface_energy_EV_PER_ANG2": null,
  "weighted_surface_energy": null,
  "weighted_work_function": null,
  "surface_anisotropy": null,
  "shape_factor": null,
  "has_reconstructed": null,
  "possible_species": null,
  "has_props": null,
  "theoretical": null,
  "database_IDs": null,
  "fields_not_requested": [
    "builder_meta",
    "nsites",
    "elements",
    "nelements",
    "composition",
    "composition_reduced",
    "chemsys",
    "symmetry",
    "property_name",
    "deprecated",
    "deprecation_reasons",
    "last_updated",
    "origins",
    "warnings",
    "task_ids",
    "uncorrected_energy_per_atom",
    "equilibrium_reaction_energy_per_atom",
    "decomposes_to",
    "xas",
    "grain_boundaries",
    "cbm",
    "vbm",
    "is_gap_direct",
    "is_metal",
    "es_source_calc_id",
    "bandstructure",
    "dos",
    "dos_energy_up",
    "dos_energy_down",
    "is_magnetic",
    "ordering",
    "total_magnetization_normalized_vol",
    "total_magnetization_normalized_formula_units",
    "num_magnetic_sites",
    "num_unique_magnetic_sites",
    "types_of_magnetic_species",
    "bulk_modulus",
    "shear_modulus",
    "universal_anisotropy",
    "homogeneous_poisson",
    "e_total",
    "e_ionic",
    "e_electronic",
    "n",
    "e_ij_max",
    "weighted_surface_energy_EV_PER_ANG2",
    "weighted_surface_energy",
    "weighted_work_function",
    "surface_anisotropy",
    "shape_factor",
    "has_reconstructed",
    "possible_species",
    "has_props",
    "theoretical",
    "database_IDs"
  ]
}
