{
  "builder_meta": null,
  "nsites": null,
  "elements": null,
  "nelements": null,
  "composition": null,
  "composition_reduced": null,
  "formula_pretty": "Y3Tm",
  "formula_anonymous": "AB3",
  "chemsys": null,
  "volume": 263.35569317183155,
  "density": 5.493838072762223,
  "density_atomic": 32.91946164647894,
  "symmetry": null,
  "property_name": null,
  "material_id": "mp-981249",
  "deprecated": null,
  "deprecation_reasons": null,
  "last_updated": null,
  "origins": null,
  "warnings": null,
  "structure": {
    "@module": "pymatgen.core.structure",
    "@class": "Structure",
    "charge": 0,
    "lattice": {
      "matrix": [
        [7.22741034, -0.0005483700000000001, 0.0],
        [-3.61416246, 6.25868581, 0.0],
        [0.0, 0.0, 5.8223174]
      ],
      "pbc": [true, true, true],
      "a": 7.227410360803416,
      "b": 7.227262161812633,
      "c": 5.8223174,
      "alpha": 90.0,
      "beta": 90.0,
      "gamma": 120.00921168492745,
      "volume": 263.35569317183155
    },
    "properties": {},
    "sites": [
      {
        "species": [{ "element": "Y", "occu": 1 }],
        "abc": [0.16793254, 0.33567664, 0.25],
        "properties": { "magmom": 0.403 },
        "label": "Y",
        "xyz": [0.0005274650315287843, 2.1008025343495187, 1.45557935]
      },
      {
        "species": [{ "element": "Y", "occu": 1 }],
        "abc": [0.66424794, 0.83217131, 0.25],
        "properties": { "magmom": 0.403 },
        "label": "Y",
        "xyz": [1.7931901209886765, 5.207934515743253, 1.45557935]
      },
      {
        "species": [{ "element": "Y", "occu": 1 }],
        "abc": [0.168046, 0.83221397, 0.25],
        "properties": { "magmom": 0.403 },
        "label": "Y",
        "xyz": [-1.7932190910659265, 5.2084736135377465, 1.45557935]
      },
      {
        "species": [{ "element": "Y", "occu": 1 }],
        "abc": [0.83200905, 0.66427227, 0.75],
        "properties": { "magmom": 0.403 },
        "label": "Y",
        "xyz": [3.612482909490592, 4.15701518142274, 4.36673805]
      },
      {
        "species": [{ "element": "Y", "occu": 1 }],
        "abc": [0.33580653, 0.16787055, 0.75],
        "properties": { "magmom": 0.403 },
        "label": "Y",
        "xyz": [1.820300147211967, 1.0504648829750394, 4.36673805]
      },
      {
        "species": [{ "element": "Y", "occu": 1 }],
        "abc": [0.8319291600000001, 0.16779273, 0.75],
        "properties": { "magmom": 0.403 },
        "label": "Y",
        "xyz": [5.406263227304598, 1.0497057732786923, 4.36673805]
      },
      {
        "species": [{ "element": "Tm", "occu": 1 }],
        "abc": [0.33344941, 0.66689689, 0.75],
        "properties": { "magmom": 0.465 },
        "label": "Tm",
        "xyz": [-0.00029799082784975894, 4.17371524852317, 4.36673805]
      },
      {
        "species": [{ "element": "Tm", "occu": 1 }],
        "abc": [0.66658036, 0.33310664, 0.25],
        "properties": { "magmom": 0.465 },
        "label": "Tm",
        "xyz": [3.6137482728401875, 2.0844442683127653, 1.45557935]
      }
    ]
  },
  "task_ids": null,
  "uncorrected_energy_per_atom": null,
  "energy_per_atom": -24.016628735,
  "formation_energy_per_atom": -0.0011659425000050002,
  "energy_above_hull": 0.0,
  "is_stable": true,
  "equilibrium_reaction_energy_per_atom": null,
  "decomposes_to": null,
  "xas": null,
  "grain_boundaries": null,
  "band_gap": 0.0,
  "cbm": null,
  "vbm": null,
  "efermi": 2.96024111,
  "is_gap_direct": null,
  "is_metal": null,
  "es_source_calc_id": null,
  "bandstructure": null,
  "dos": null,
  "dos_energy_up": null,
  "dos_energy_down": null,
  "is_magnetic": null,
  "ordering": null,
  "total_magnetization": 5.2072638,
  "total_magnetization_normalized_vol": null,
  "total_magnetization_normalized_formula_units": null,
  "num_magnetic_sites": null,
  "num_unique_magnetic_sites": null,
  "types_of_magnetic_species": null,
  "bulk_modulus": null,
  "shear_modulus": null,
  "universal_anisotropy": null,
  "homogeneous_poisson": null,
  "e_total": null,
  "e_ionic": null,
  "e_electronic": null,
  "n": null,
  "e_ij_max": null,
  "weighted_surface_energy_EV_PER_ANG2": null,
  "weighted_surface_energy": null,
  "weighted_work_function": null,
  "surface_anisotropy": null,
  "shape_factor": null,
  "has_reconstructed": null,
  "possible_species": null,
  "has_props": null,
  "theoretical": null,
  "database_IDs": null,
  "fields_not_requested": [
    "builder_meta",
    "nsites",
    "elements",
    "nelements",
    "composition",
    "composition_reduced",
    "chemsys",
    "symmetry",
    "property_name",
    "deprecated",
    "deprecation_reasons",
    "last_updated",
    "origins",
    "warnings",
    "task_ids",
    "uncorrected_energy_per_atom",
    "equilibrium_reaction_energy_per_atom",
    "decomposes_to",
    "xas",
    "grain_boundaries",
    "cbm",
    "vbm",
    "is_gap_direct",
    "is_metal",
    "es_source_calc_id",
    "bandstructure",
    "dos",
    "dos_energy_up",
    "dos_energy_down",
    "is_magnetic",
    "ordering",
    "total_magnetization_normalized_vol",
    "total_magnetization_normalized_formula_units",
    "num_magnetic_sites",
    "num_unique_magnetic_sites",
    "types_of_magnetic_species",
    "bulk_modulus",
    "shear_modulus",
    "universal_anisotropy",
    "homogeneous_poisson",
    "e_total",
    "e_ionic",
    "e_electronic",
    "n",
    "e_ij_max",
    "weighted_surface_energy_EV_PER_ANG2",
    "weighted_surface_energy",
    "weighted_work_function",
    "surface_anisotropy",
    "shape_factor",
    "has_reconstructed",
    "possible_species",
    "has_props",
    "theoretical",
    "database_IDs"
  ]
}
