{
  "builder_meta": null,
  "nsites": null,
  "elements": null,
  "nelements": null,
  "composition": null,
  "composition_reduced": null,
  "formula_pretty": "Y4C5",
  "formula_anonymous": "A4B5",
  "chemsys": null,
  "volume": 289.2591488388468,
  "density": 4.772521348444782,
  "density_atomic": 16.069952713269267,
  "symmetry": null,
  "property_name": null,
  "material_id": "mp-9459",
  "deprecated": null,
  "deprecation_reasons": null,
  "last_updated": null,
  "origins": null,
  "warnings": null,
  "structure": {
    "@module": "pymatgen.core.structure",
    "@class": "Structure",
    "charge": 0,
    "lattice": {
      "matrix": [
        [3.66828226, 0.0, 0.0],
        [0.0, 6.59126917, -0.0],
        [0.0, 0.0, 11.96341893]
      ],
      "pbc": [true, true, true],
      "a": 3.66828226,
      "b": 6.59126917,
      "c": 11.96341893,
      "alpha": 90.0,
      "beta": 90.0,
      "gamma": 90.0,
      "volume": 289.2591488388468
    },
    "properties": {},
    "sites": [
      {
        "species": [{ "element": "Y", "occu": 1 }],
        "abc": [0.0, 0.25629954, 0.54269464],
        "properties": { "magmom": 0.0 },
        "label": "Y",
        "xyz": [0.0, 1.6893392562871818, 6.492483329385535]
      },
      {
        "species": [{ "element": "Y", "occu": 1 }],
        "abc": [-0.0, 0.74370046, 0.45730536],
        "properties": { "magmom": 0.0 },
        "label": "Y",
        "xyz": [0.0, 4.901929913712818, 5.470935600614465]
      },
      {
        "species": [{ "element": "Y", "occu": 1 }],
        "abc": [0.0, 0.75629954, 0.95730536],
        "properties": { "magmom": 0.0 },
        "label": "Y",
        "xyz": [0.0, 4.984973841287182, 11.452645065614464]
      },
      {
        "species": [{ "element": "Y", "occu": 1 }],
        "abc": [0.0, 0.24370046, 0.04269464],
        "properties": { "magmom": 0.0 },
        "label": "Y",
        "xyz": [0.0, 1.6062953287128183, 0.5107738643855352]
      },
      {
        "species": [{ "element": "Y", "occu": 1 }],
        "abc": [0.5, 0.10760191000000001, 0.8044729700000001],
        "properties": { "magmom": -0.0 },
        "label": "Y",
        "xyz": [1.83414113, 0.7092331520161148, 9.624247157971322]
      },
      {
        "species": [{ "element": "Y", "occu": 1 }],
        "abc": [0.5, 0.89239809, 0.19552703],
        "properties": { "magmom": -0.0 },
        "label": "Y",
        "xyz": [1.83414113, 5.882036017983886, 2.3391717720286778]
      },
      {
        "species": [{ "element": "Y", "occu": 1 }],
        "abc": [0.5, 0.60760191, 0.69552703],
        "properties": { "magmom": -0.0 },
        "label": "Y",
        "xyz": [1.83414113, 4.004867737016115, 8.320881237028678]
      },
      {
        "species": [{ "element": "Y", "occu": 1 }],
        "abc": [0.5, 0.39239809000000003, 0.30447297],
        "properties": { "magmom": -0.0 },
        "label": "Y",
        "xyz": [1.83414113, 2.5864014329838856, 3.642537692971322]
      },
      {
        "species": [{ "element": "C", "occu": 1 }],
        "abc": [0.5, 0.5, 0.5],
        "properties": { "magmom": 0.0 },
        "label": "C",
        "xyz": [1.83414113, 3.295634585, 5.981709465]
      },
      {
        "species": [{ "element": "C", "occu": 1 }],
        "abc": [0.5, 0.0, -0.0],
        "properties": { "magmom": 0.0 },
        "label": "C",
        "xyz": [1.83414113, 0.0, 0.0]
      },
      {
        "species": [{ "element": "C", "occu": 1 }],
        "abc": [-0.0, 0.3618945, 0.73541468],
        "properties": { "magmom": -0.0 },
        "label": "C",
        "xyz": [0.0, 2.385344060642565, 8.798073904111892]
      },
      {
        "species": [{ "element": "C", "occu": 1 }],
        "abc": [-0.0, 0.6381055, 0.26458532],
        "properties": { "magmom": -0.0 },
        "label": "C",
        "xyz": [0.0, 4.205925109357435, 3.1653450258881075]
      },
      {
        "species": [{ "element": "C", "occu": 1 }],
        "abc": [0.0, 0.8618945, 0.76458532],
        "properties": { "magmom": -0.0 },
        "label": "C",
        "xyz": [0.0, 5.680978645642566, 9.147054490888108]
      },
      {
        "species": [{ "element": "C", "occu": 1 }],
        "abc": [-0.0, 0.1381055, 0.23541468000000002],
        "properties": { "magmom": -0.0 },
        "label": "C",
        "xyz": [0.0, 0.910290524357435, 2.8163644391118923]
      },
      {
        "species": [{ "element": "C", "occu": 1 }],
        "abc": [-0.0, 0.40112322, 0.84417111],
        "properties": { "magmom": -0.0 },
        "label": "C",
        "xyz": [0.0, 2.6439111133571274, 10.099172637533112]
      },
      {
        "species": [{ "element": "C", "occu": 1 }],
        "abc": [0.0, 0.59887678, 0.15582889],
        "properties": { "magmom": -0.0 },
        "label": "C",
        "xyz": [0.0, 3.947358056642873, 1.8642462924668877]
      },
      {
        "species": [{ "element": "C", "occu": 1 }],
        "abc": [0.0, 0.09887678, 0.34417111],
        "properties": { "magmom": -0.0 },
        "label": "C",
        "xyz": [0.0, 0.6517234716428726, 4.117463172533112]
      },
      {
        "species": [{ "element": "C", "occu": 1 }],
        "abc": [-0.0, 0.90112322, 0.65582889],
        "properties": { "magmom": -0.0 },
        "label": "C",
        "xyz": [0.0, 5.9395456983571275, 7.8459557574668874]
      }
    ]
  },
  "task_ids": null,
  "uncorrected_energy_per_atom": null,
  "energy_per_atom": -8.325325628888889,
  "formation_energy_per_atom": -0.305359688611111,
  "energy_above_hull": 0.0,
  "is_stable": true,
  "equilibrium_reaction_energy_per_atom": null,
  "decomposes_to": null,
  "xas": null,
  "grain_boundaries": null,
  "band_gap": 0.0,
  "cbm": null,
  "vbm": null,
  "efermi": 4.28801012,
  "is_gap_direct": null,
  "is_metal": null,
  "es_source_calc_id": null,
  "bandstructure": null,
  "dos": null,
  "dos_energy_up": null,
  "dos_energy_down": null,
  "is_magnetic": null,
  "ordering": null,
  "total_magnetization": 0.0,
  "total_magnetization_normalized_vol": null,
  "total_magnetization_normalized_formula_units": null,
  "num_magnetic_sites": null,
  "num_unique_magnetic_sites": null,
  "types_of_magnetic_species": null,
  "bulk_modulus": null,
  "shear_modulus": null,
  "universal_anisotropy": null,
  "homogeneous_poisson": null,
  "e_total": null,
  "e_ionic": null,
  "e_electronic": null,
  "n": null,
  "e_ij_max": null,
  "weighted_surface_energy_EV_PER_ANG2": null,
  "weighted_surface_energy": null,
  "weighted_work_function": null,
  "surface_anisotropy": null,
  "shape_factor": null,
  "has_reconstructed": null,
  "possible_species": null,
  "has_props": null,
  "theoretical": null,
  "database_IDs": null,
  "fields_not_requested": [
    "builder_meta",
    "nsites",
    "elements",
    "nelements",
    "composition",
    "composition_reduced",
    "chemsys",
    "symmetry",
    "property_name",
    "deprecated",
    "deprecation_reasons",
    "last_updated",
    "origins",
    "warnings",
    "task_ids",
    "uncorrected_energy_per_atom",
    "equilibrium_reaction_energy_per_atom",
    "decomposes_to",
    "xas",
    "grain_boundaries",
    "cbm",
    "vbm",
    "is_gap_direct",
    "is_metal",
    "es_source_calc_id",
    "bandstructure",
    "dos",
    "dos_energy_up",
    "dos_energy_down",
    "is_magnetic",
    "ordering",
    "total_magnetization_normalized_vol",
    "total_magnetization_normalized_formula_units",
    "num_magnetic_sites",
    "num_unique_magnetic_sites",
    "types_of_magnetic_species",
    "bulk_modulus",
    "shear_modulus",
    "universal_anisotropy",
    "homogeneous_poisson",
    "e_total",
    "e_ionic",
    "e_electronic",
    "n",
    "e_ij_max",
    "weighted_surface_energy_EV_PER_ANG2",
    "weighted_surface_energy",
    "weighted_work_function",
    "surface_anisotropy",
    "shape_factor",
    "has_reconstructed",
    "possible_species",
    "has_props",
    "theoretical",
    "database_IDs"
  ]
}
