{"builder_meta": null, "nsites": null, "elements": null, "nelements": null, "composition": null, "composition_reduced": null, "formula_pretty": "Y4C7", "formula_anonymous": "A4B7", "chemsys": null, "volume": 635.8327029033887, "density": 4.59325983915959, "density_atomic": 14.45074324780429, "symmetry": null, "property_name": null, "material_id": "mp-1200885", "deprecated": null, "deprecation_reasons": null, "last_updated": null, "origins": null, "warnings": null, "structure": {"@module": "pymatgen.core.structure", "@class": "Structure", "charge": 0, "lattice": {"matrix": [[3.68086678, 0.0, -0.42675569], [0.0, 12.60303057, 0.0], [-0.02784186, 0.0, 13.70945028]], "pbc": [true, true, true], "a": 3.705522995618155, "b": 12.60303057, "c": 13.709478551314792, "alpha": 90.0, "beta": 96.72964333531692, "gamma": 90.0, "volume": 635.8327029033886}, "properties": {}, "sites": [{"species": [{"element": "Y", "occu": 1}], "abc": [0.30616256000000003, 0.51507482, 0.60767002], "properties": {"magmom": 0.0}, "label": "Y", "xyz": [1.1100249327607197, 6.491503702297248, 8.20016531129164]}, {"species": [{"element": "Y", "occu": 1}], "abc": [0.80616256, 0.9849251800000001, 0.10767002], "properties": {"magmom": 0.0}, "label": "Y", "xyz": [2.9643792527607196, 12.413042152702753, 1.1320623262916392]}, {"species": [{"element": "Y", "occu": 1}], "abc": [0.69383744, 0.48492518, 0.39232998], "properties": {"magmom": 0.0}, "label": "Y", "xyz": [2.5429999872392806, 6.111526867702753, 5.082529278708361]}, {"species": [{"element": "Y", "occu": 1}], "abc": [0.19383744, 0.015074820000000001, 0.89232998], "properties": {"magmom": 0.0}, "label": "Y", "xyz": [0.6886456672392804, 0.18998841729724741, 12.15063226370836]}, {"species": [{"element": "Y", "occu": 1}], "abc": [0.75745728, 0.53918045, 0.8814521200000001], "properties": {"magmom": 0.0}, "label": "Y", "xyz": [2.7635580726994156, 6.795307694096357, 11.760974809168673]}, {"species": [{"element": "Y", "occu": 1}], "abc": [0.25745728, 0.96081955, 0.38145212], "properties": {"magmom": 0.0}, "label": "Y", "xyz": [0.9370456126994152, 12.109238160903642, 5.119627514168671]}, {"species": [{"element": "Y", "occu": 1}], "abc": [0.24254272000000002, 0.46081955, 0.11854788000000001], "properties": {"magmom": 0.0}, "label": "Y", "xyz": [0.8894668473005849, 5.807722875903644, 1.5217197808313299]}, {"species": [{"element": "Y", "occu": 1}], "abc": [0.74254272, 0.03918045, 0.61854788], "properties": {"magmom": 0.0}, "label": "Y", "xyz": [2.715979307300585, 0.49379240909635647, 8.163067075831332]}, {"species": [{"element": "Y", "occu": 1}], "abc": [0.842127699999999, 0.30435567, 0.71060442], "properties": {"magmom": 0.0}, "label": "Y", "xyz": [3.079975326670781, 3.835803813162832, 9.382613177056626]}, {"species": [{"element": "Y", "occu": 1}], "abc": [0.3421277, 0.19564433, 0.21060442000000001], "properties": {"magmom": 0.0}, "label": "Y", "xyz": [1.2534628666707848, 2.465711471837168, 2.741265882056625]}, {"species": [{"element": "Y", "occu": 1}], "abc": [0.1578723, 0.69564433, 0.28939558], "properties": {"magmom": 0.0}, "label": "Y", "xyz": [0.5730495933292152, 8.767226756837168, 3.9000814129433756]}, {"species": [{"element": "Y", "occu": 1}], "abc": [0.6578723, 0.80435567, 0.78939558], "properties": {"magmom": 0.0}, "label": "Y", "xyz": [2.3995620533292152, 10.13731909816283, 10.541428707943375]}, {"species": [{"element": "Y", "occu": 1}], "abc": [0.22831321000000002, 0.26277757, 0.49263838], "properties": {"magmom": -0.0}, "label": "Y", "xyz": [0.8266745413175771, 3.311793747820315, 6.656367415160081]}, {"species": [{"element": "Y", "occu": 1}], "abc": [0.72831321, 0.23722243, 0.99263838], "properties": {"magmom": -0.0}, "label": "Y", "xyz": [2.653187001317577, 2.989721537179685, 13.297714710160083]}, {"species": [{"element": "Y", "occu": 1}], "abc": [0.7716867900000001, 0.73722243, 0.50736162], "properties": {"magmom": -0.0}, "label": "Y", "xyz": [2.8263503786824233, 9.291236822179684, 6.626327174839918]}, {"species": [{"element": "Y", "occu": 1}], "abc": [0.27168679, 0.76277757, 0.00736162], "properties": {"magmom": -0.0}, "label": "Y", "xyz": [0.9998379186824231, 9.613309032820315, -0.015020120160081502]}, {"species": [{"element": "C", "occu": 1}], "abc": [0.65712207, 0.14075985, 0.82482584], "properties": {"magmom": -0.0}, "label": "C", "xyz": [2.395814112306172, 1.7740006925786143, 11.027478260742157]}, {"species": [{"element": "C", "occu": 1}], "abc": [0.15712207, 0.35924015, 0.32482584000000003], "properties": {"magmom": -0.0}, "label": "C", "xyz": [0.5693016523061722, 4.527514592421385, 4.386130965742158]}, {"species": [{"element": "C", "occu": 1}], "abc": [0.34287793, 0.85924015, 0.17517416], "properties": {"magmom": -0.0}, "label": "C", "xyz": [1.2572108076938278, 10.829029877421386, 2.255216329257843]}, {"species": [{"element": "C", "occu": 1}], "abc": [0.84287793, 0.64075985, 0.67517416], "properties": {"magmom": -0.0}, "label": "C", "xyz": [3.083723267693828, 8.075515977578615, 8.896563624257844]}, {"species": [{"element": "C", "occu": 1}], "abc": [0.19760756000000002, 0.38977407000000003, 0.95193939], "properties": {"magmom": -0.0}, "label": "C", "xyz": [0.7008633398559915, 4.91233451960332, 12.966235586161513]}, {"species": [{"element": "C", "occu": 1}], "abc": [0.69760756, 0.11022593, 0.45193939], "properties": {"magmom": -0.0}, "label": "C", "xyz": [2.555217659855992, 1.3891807653966801, 5.898132601161513]}, {"species": [{"element": "C", "occu": 1}], "abc": [0.80239244, 0.61022593, 0.048060610000000004], "properties": {"magmom": -0.0}, "label": "C", "xyz": [2.9521615801440086, 7.690696050396681, 0.31645900383848724]}, {"species": [{"element": "C", "occu": 1}], "abc": [0.30239244, 0.88977407, 0.5480606100000001], "properties": {"magmom": -0.0}, "label": "C", "xyz": [1.0978072601440085, 11.213849804603319, 7.384561988838488]}, {"species": [{"element": "C", "occu": 1}], "abc": [0.36011346, 0.41670824, 0.77134404], "properties": {"magmom": -0.0}, "label": "C", "xyz": [1.3040540191713443, 5.251786687490897, 10.421022297053744]}, {"species": [{"element": "C", "occu": 1}], "abc": [0.86011346, 0.08329276000000001, 0.27134404], "properties": {"magmom": -0.0}, "label": "C", "xyz": [3.158408339171345, 1.0497412005396733, 3.352919312053744]}, {"species": [{"element": "C", "occu": 1}], "abc": [0.63988654, 0.58329276, 0.22865596], "properties": {"magmom": -0.0}, "label": "C", "xyz": [2.3489709008286557, 7.351256485539673, 2.861672292946256]}, {"species": [{"element": "C", "occu": 1}], "abc": [0.13988654, 0.91670724, 0.72865596], "properties": {"magmom": -0.0}, "label": "C", "xyz": [0.4946165808286556, 11.553289369460327, 9.929775277946256]}, {"species": [{"element": "C", "occu": 1}], "abc": [0.27637764, 0.17102911, 0.65248649], "properties": {"magmom": 0.0}, "label": "C", "xyz": [0.9991428363043278, 2.1554851016898926, 8.827285362567947]}, {"species": [{"element": "C", "occu": 1}], "abc": [0.77637764, 0.32897089, 0.15248649], "properties": {"magmom": 0.0}, "label": "C", "xyz": [2.8534971563043277, 4.146030183310107, 1.7591823775679458]}, {"species": [{"element": "C", "occu": 1}], "abc": [0.72362236, 0.82897089, 0.34751351], "properties": {"magmom": 0.0}, "label": "C", "xyz": [2.6538820836956725, 10.447545468310107, 4.455409227432055]}, {"species": [{"element": "C", "occu": 1}], "abc": [0.22362236, 0.67102911, 0.84751351], "properties": {"magmom": 0.0}, "label": "C", "xyz": [0.7995277636956721, 8.457000386689892, 11.523512212432054]}, {"species": [{"element": "C", "occu": 1}], "abc": [0.27491823, 0.39573376, 0.86054507], "properties": {"magmom": 0.0}, "label": "C", "xyz": [0.9879782046607691, 4.987444674861043, 11.680276931926892]}, {"species": [{"element": "C", "occu": 1}], "abc": [0.7749192300000001, 0.10426624, 0.36054507], "properties": {"magmom": 0.0}, "label": "C", "xyz": [2.8423362055275496, 1.3140706101389568, 4.6121735201712015]}, {"species": [{"element": "C", "occu": 1}], "abc": [0.72508077, 0.6042662400000001, 0.13945493], "properties": {"magmom": 0.0}, "label": "C", "xyz": [2.665043034472451, 7.615585895138957, 1.6024180848287992]}, {"species": [{"element": "C", "occu": 1}], "abc": [0.22508077, 0.89573376, 0.63945493], "properties": {"magmom": 0.0}, "label": "C", "xyz": [0.8106887144724508, 11.288959959861044, 8.6705210698288]}, {"species": [{"element": "C", "occu": 1}], "abc": [0.43922843, 0.15157887, 0.74343234], "properties": {"magmom": -0.0}, "label": "C", "xyz": [1.596042797688803, 1.9103531323760559, 10.004605470061788]}, {"species": [{"element": "C", "occu": 1}], "abc": [0.93922843, 0.34842113, 0.24343234], "properties": {"magmom": -0.0}, "label": "C", "xyz": [3.450397117688803, 4.391162152623944, 2.9365024850617885]}, {"species": [{"element": "C", "occu": 1}], "abc": [0.56077157, 0.84842113, 0.25656766000000003], "properties": {"magmom": -0.0}, "label": "C", "xyz": [2.0569821223111973, 10.692677437623944, 3.278089119938212]}, {"species": [{"element": "C", "occu": 1}], "abc": [0.060771570000000004, 0.65157887, 0.75656766], "properties": {"magmom": -0.0}, "label": "C", "xyz": [0.202627802311197, 8.211868417376056, 10.346192104938211]}, {"species": [{"element": "C", "occu": 1}], "abc": [0.24132177000000002, 0.61672427, 0.44988316], "properties": {"magmom": 0.0}, "label": "C", "xyz": [0.8757477025267231, 7.772594828070933, 6.064665375360914]}, {"species": [{"element": "C", "occu": 1}], "abc": [0.74132177, 0.88327573, 0.9498831600000001], "properties": {"magmom": 0.0}, "label": "C", "xyz": [2.702260162526723, 11.131951026929066, 12.706012670360915]}, {"species": [{"element": "C", "occu": 1}], "abc": [0.75867823, 0.38327573, 0.55011684], "properties": {"magmom": 0.0}, "label": "C", "xyz": [2.7772772174732774, 4.830435741929065, 7.218029214639087]}, {"species": [{"element": "C", "occu": 1}], "abc": [0.25867823, 0.11672427, 0.05011684], "properties": {"magmom": 0.0}, "label": "C", "xyz": [0.9507647574732772, 1.471079543070934, 0.5766819196390865]}]}, "task_ids": null, "uncorrected_energy_per_atom": null, "energy_per_atom": -8.5039397225, "formation_energy_per_atom": -0.264210227272727, "energy_above_hull": 0.0, "is_stable": true, "equilibrium_reaction_energy_per_atom": null, "decomposes_to": null, "xas": null, "grain_boundaries": null, "band_gap": 0.585, "cbm": null, "vbm": null, "efermi": 4.2315865, "is_gap_direct": null, "is_metal": null, "es_source_calc_id": null, "bandstructure": null, "dos": null, "dos_energy_up": null, "dos_energy_down": null, "is_magnetic": null, "ordering": null, "total_magnetization": 1e-07, "total_magnetization_normalized_vol": null, "total_magnetization_normalized_formula_units": null, "num_magnetic_sites": null, "num_unique_magnetic_sites": null, "types_of_magnetic_species": null, "bulk_modulus": null, "shear_modulus": null, "universal_anisotropy": null, "homogeneous_poisson": null, "e_total": null, "e_ionic": null, "e_electronic": null, "n": null, "e_ij_max": null, "weighted_surface_energy_EV_PER_ANG2": null, "weighted_surface_energy": null, "weighted_work_function": null, "surface_anisotropy": null, "shape_factor": null, "has_reconstructed": null, "possible_species": null, "has_props": null, "theoretical": null, "database_IDs": null, "fields_not_requested": ["builder_meta", "nsites", "elements", "nelements", "composition", "composition_reduced", "chemsys", "symmetry", "property_name", "deprecated", "deprecation_reasons", "last_updated", "origins", "warnings", "task_ids", "uncorrected_energy_per_atom", "equilibrium_reaction_energy_per_atom", "decomposes_to", "xas", "grain_boundaries", "cbm", "vbm", "is_gap_direct", "is_metal", "es_source_calc_id", "bandstructure", "dos", "dos_energy_up", "dos_energy_down", "is_magnetic", "ordering", "total_magnetization_normalized_vol", "total_magnetization_normalized_formula_units", "num_magnetic_sites", "num_unique_magnetic_sites", "types_of_magnetic_species", "bulk_modulus", "shear_modulus", "universal_anisotropy", "homogeneous_poisson", "e_total", "e_ionic", "e_electronic", "n", "e_ij_max", "weighted_surface_energy_EV_PER_ANG2", "weighted_surface_energy", "weighted_work_function", "surface_anisotropy", "shape_factor", "has_reconstructed", "possible_species", "has_props", "theoretical", "database_IDs"]}