{"builder_meta": null, "nsites": null, "elements": null, "nelements": null, "composition": null, "composition_reduced": null, "formula_pretty": "Y4Co3", "formula_anonymous": "A3B4", "chemsys": null, "volume": 455.8609442811794, "density": 5.818281940838687, "density_atomic": 21.707664013389497, "symmetry": null, "property_name": null, "material_id": "mp-1216292", "deprecated": null, "deprecation_reasons": null, "last_updated": null, "origins": null, "warnings": null, "structure": {"@module": "pymatgen.core.structure", "@class": "Structure", "charge": 0, "lattice": {"matrix": [[5.667858, -9.817018, 0.0], [5.667858, 9.817018, 0.0], [0.0, 0.0, 4.096414]], "pbc": [true, true, true], "a": 11.335715977409102, "b": 11.335715977409102, "c": 4.096414, "alpha": 90.0, "beta": 90.0, "gamma": 119.9999998681511, "volume": 455.8609442811794}, "properties": {}, "sites": [{"species": [{"element": "Y", "occu": 1}], "abc": [0.249579, 0.026688999999999, 0.251593], "properties": {"magmom": 0.004}, "label": "Y", "xyz": [1.5658477939439943, -2.18811514202001, 1.030629087502]}, {"species": [{"element": "Y", "occu": 1}], "abc": [0.7771100000000001, 0.750421, 0.251593], "properties": {"magmom": 0.001}, "label": "Y", "xyz": [8.657828798598, -0.26200639340200027, 1.030629087502]}, {"species": [{"element": "Y", "occu": 1}], "abc": [0.973310999999999, 0.22289, 0.251593], "properties": {"magmom": 0.003}, "label": "Y", "xyz": [6.7798974074579945, -7.36689646457799, 1.030629087502]}, {"species": [{"element": "Y", "occu": 1}], "abc": [0.750421, 0.973310999999999, 0.748406999999999], "properties": {"magmom": 0.005}, "label": "Y", "xyz": [9.769868206055994, 2.1881151420199902, 3.065784912497996]}, {"species": [{"element": "Y", "occu": 1}], "abc": [0.22289, 0.249579, 0.748406999999999], "properties": {"magmom": 0.001}, "label": "Y", "xyz": [2.677887201402, 0.2620063934019998, 3.065784912497996]}, {"species": [{"element": "Y", "occu": 1}], "abc": [0.026688999999999, 0.7771100000000001, 0.748406999999999], "properties": {"magmom": 0.003}, "label": "Y", "xyz": [4.5558185925419945, 7.3668964645780095, 3.065784912497996]}, {"species": [{"element": "Y", "occu": 1}], "abc": [0.863750999999999, 0.484052, 0.250452], "properties": {"magmom": 0.0}, "label": "Y", "xyz": [7.639156015973994, -3.7275119175819906, 1.025955079128]}, {"species": [{"element": "Y", "occu": 1}], "abc": [0.620301, 0.136248999999999, 0.250452], "properties": {"magmom": -0.0}, "label": "Y", "xyz": [4.288017969899994, -4.751947196936009, 1.025955079128]}, {"species": [{"element": "Y", "occu": 1}], "abc": [0.515948, 0.379699, 0.250452], "properties": {"magmom": -0.0}, "label": "Y", "xyz": [5.0764000141259995, -1.3375588854819989, 1.025955079128]}, {"species": [{"element": "Y", "occu": 1}], "abc": [0.136248999999999, 0.515948, 0.749548], "properties": {"magmom": 0.0}, "label": "Y", "xyz": [3.696559984025994, 3.7275119175820084, 3.0704589208720003]}, {"species": [{"element": "Y", "occu": 1}], "abc": [0.379699, 0.863750999999999, 0.749548], "properties": {"magmom": -0.0}, "label": "Y", "xyz": [7.047698030099994, 4.7519471969359905, 3.0704589208720003]}, {"species": [{"element": "Y", "occu": 1}], "abc": [0.484052, 0.620301, 0.749548], "properties": {"magmom": -0.0}, "label": "Y", "xyz": [6.259315985874, 1.3375588854820002, 3.0704589208720003]}, {"species": [{"element": "Co", "occu": 1}], "abc": [0.333333, 0.666667, 0.251287], "properties": {"magmom": 0.003}, "label": "Co", "xyz": [5.667858, 3.272345878012, 1.029375584818]}, {"species": [{"element": "Co", "occu": 1}], "abc": [0.666667, 0.333333, 0.748713], "properties": {"magmom": 0.003}, "label": "Co", "xyz": [5.667858, -3.272345878012, 3.067038415182]}, {"species": [{"element": "Co", "occu": 1}], "abc": [0.558314, 0.841834, 0.251254], "properties": {"magmom": -0.01}, "label": "Co", "xyz": [7.935840042983999, 2.783320943359999, 1.029240403156]}, {"species": [{"element": "Co", "occu": 1}], "abc": [0.28352000000000005, 0.441685999999999, 0.251254], "properties": {"magmom": 0.004}, "label": "Co", "xyz": [4.110364628747995, 1.5527184689879898, 1.029240403156]}, {"species": [{"element": "Co", "occu": 1}], "abc": [0.158166, 0.71648, 0.251254], "properties": {"magmom": -0.001}, "label": "Co", "xyz": [4.957369328268, 5.480978587651999, 1.029240403156]}, {"species": [{"element": "Co", "occu": 1}], "abc": [0.441685999999999, 0.158166, 0.748745999999999], "properties": {"magmom": -0.009000000000000001}, "label": "Co", "xyz": [3.399875957015994, -2.78332094335999, 3.0671735968439964]}, {"species": [{"element": "Co", "occu": 1}], "abc": [0.71648, 0.558314, 0.748745999999999], "properties": {"magmom": 0.004}, "label": "Co", "xyz": [7.225351371252, -1.552718468988, 3.0671735968439964]}, {"species": [{"element": "Co", "occu": 1}], "abc": [0.841834, 0.28352000000000005, 0.748745999999999], "properties": {"magmom": -0.001}, "label": "Co", "xyz": [6.378346671732, -5.4809785876519985, 3.0671735968439964]}, {"species": [{"element": "Co", "occu": 1}], "abc": [0.0, 0.0, 0.5], "properties": {"magmom": -0.068}, "label": "Co", "xyz": [0.0, 0.0, 2.048207]}]}, "task_ids": null, "uncorrected_energy_per_atom": null, "energy_per_atom": -6.890507119047619, "formation_energy_per_atom": -0.11384766761904701, "energy_above_hull": 0.033099958452381, "is_stable": false, "equilibrium_reaction_energy_per_atom": null, "decomposes_to": null, "xas": null, "grain_boundaries": null, "band_gap": 0.0, "cbm": null, "vbm": null, "efermi": 3.79567665, "is_gap_direct": null, "is_metal": null, "es_source_calc_id": null, "bandstructure": null, "dos": null, "dos_energy_up": null, "dos_energy_down": null, "is_magnetic": null, "ordering": null, "total_magnetization": 0.0452575, "total_magnetization_normalized_vol": null, "total_magnetization_normalized_formula_units": null, "num_magnetic_sites": null, "num_unique_magnetic_sites": null, "types_of_magnetic_species": null, "bulk_modulus": null, "shear_modulus": null, "universal_anisotropy": null, "homogeneous_poisson": null, "e_total": null, "e_ionic": null, "e_electronic": null, "n": null, "e_ij_max": null, "weighted_surface_energy_EV_PER_ANG2": null, "weighted_surface_energy": null, "weighted_work_function": null, "surface_anisotropy": null, "shape_factor": null, "has_reconstructed": null, "possible_species": null, "has_props": null, "theoretical": null, "database_IDs": null, "fields_not_requested": ["builder_meta", "nsites", "elements", "nelements", "composition", "composition_reduced", "chemsys", "symmetry", "property_name", "deprecated", "deprecation_reasons", "last_updated", "origins", "warnings", "task_ids", "uncorrected_energy_per_atom", "equilibrium_reaction_energy_per_atom", "decomposes_to", "xas", "grain_boundaries", "cbm", "vbm", "is_gap_direct", "is_metal", "es_source_calc_id", "bandstructure", "dos", "dos_energy_up", "dos_energy_down", "is_magnetic", "ordering", "total_magnetization_normalized_vol", "total_magnetization_normalized_formula_units", "num_magnetic_sites", "num_unique_magnetic_sites", "types_of_magnetic_species", "bulk_modulus", "shear_modulus", "universal_anisotropy", "homogeneous_poisson", "e_total", "e_ionic", "e_electronic", "n", "e_ij_max", "weighted_surface_energy_EV_PER_ANG2", "weighted_surface_energy", "weighted_work_function", "surface_anisotropy", "shape_factor", "has_reconstructed", "possible_species", "has_props", "theoretical", "database_IDs"]}