{
  "builder_meta": null,
  "nsites": null,
  "elements": null,
  "nelements": null,
  "composition": null,
  "composition_reduced": null,
  "formula_pretty": "Y4Ni",
  "formula_anonymous": "AB4",
  "chemsys": null,
  "volume": 307.14293972163773,
  "density": 4.479928680582535,
  "density_atomic": 30.714293972163773,
  "symmetry": null,
  "property_name": null,
  "material_id": "mp-1207883",
  "deprecated": null,
  "deprecation_reasons": null,
  "last_updated": null,
  "origins": null,
  "warnings": null,
  "structure": {
    "@module": "pymatgen.core.structure",
    "@class": "Structure",
    "charge": 0,
    "lattice": {
      "matrix": [
        [0.0, 5.355132, 5.355132],
        [5.355132, 0.0, 5.355132],
        [5.355132, 5.355132, 0.0]
      ],
      "pbc": [true, true, true],
      "a": 7.573300302698158,
      "b": 7.573300302698158,
      "c": 7.573300302698158,
      "alpha": 60.00000000000001,
      "beta": 60.00000000000001,
      "gamma": 60.00000000000001,
      "volume": 307.14293972163773
    },
    "properties": {},
    "sites": [
      {
        "species": [{ "element": "Y", "occu": 1 }],
        "abc": [0.386785999999999, 0.386785999999999, 0.386785999999999],
        "properties": { "magmom": 0.158 },
        "label": "Y",
        "xyz": [4.142580171503989, 4.142580171503989, 4.142580171503989]
      },
      {
        "species": [{ "element": "Y", "occu": 1 }],
        "abc": [0.386785999999999, 0.386785999999999, 0.839642],
        "properties": { "magmom": 0.158 },
        "label": "Y",
        "xyz": [6.567683828495994, 6.567683828495994, 4.142580171503989]
      },
      {
        "species": [{ "element": "Y", "occu": 1 }],
        "abc": [0.386785999999999, 0.839642, 0.386785999999999],
        "properties": { "magmom": 0.158 },
        "label": "Y",
        "xyz": [6.567683828495994, 4.142580171503989, 6.567683828495994]
      },
      {
        "species": [{ "element": "Y", "occu": 1 }],
        "abc": [0.863213999999999, 0.863213999999999, 0.410358],
        "properties": { "magmom": 0.158 },
        "label": "Y",
        "xyz": [6.820146171503994, 6.820146171503994, 9.24524982849599]
      },
      {
        "species": [{ "element": "Y", "occu": 1 }],
        "abc": [0.863213999999999, 0.863213999999999, 0.863213999999999],
        "properties": { "magmom": 0.158 },
        "label": "Y",
        "xyz": [9.24524982849599, 9.24524982849599, 9.24524982849599]
      },
      {
        "species": [{ "element": "Y", "occu": 1 }],
        "abc": [0.839642, 0.386785999999999, 0.386785999999999],
        "properties": { "magmom": 0.158 },
        "label": "Y",
        "xyz": [4.142580171503989, 6.567683828495994, 6.567683828495994]
      },
      {
        "species": [{ "element": "Y", "occu": 1 }],
        "abc": [0.863213999999999, 0.410358, 0.863213999999999],
        "properties": { "magmom": 0.158 },
        "label": "Y",
        "xyz": [6.820146171503994, 9.24524982849599, 6.820146171503994]
      },
      {
        "species": [{ "element": "Y", "occu": 1 }],
        "abc": [0.410358, 0.863213999999999, 0.863213999999999],
        "properties": { "magmom": 0.158 },
        "label": "Y",
        "xyz": [9.24524982849599, 6.820146171503994, 6.820146171503994]
      },
      {
        "species": [{ "element": "Ni", "occu": 1 }],
        "abc": [0.0, 0.0, 0.0],
        "properties": { "magmom": 0.07 },
        "label": "Ni",
        "xyz": [0.0, 0.0, 0.0]
      },
      {
        "species": [{ "element": "Ni", "occu": 1 }],
        "abc": [0.25, 0.25, 0.25],
        "properties": { "magmom": 0.07 },
        "label": "Ni",
        "xyz": [2.677566, 2.677566, 2.677566]
      }
    ]
  },
  "task_ids": null,
  "uncorrected_energy_per_atom": null,
  "energy_per_atom": -6.081504164,
  "formation_energy_per_atom": 0.281796372,
  "energy_above_hull": 0.44769242349999905,
  "is_stable": false,
  "equilibrium_reaction_energy_per_atom": null,
  "decomposes_to": null,
  "xas": null,
  "grain_boundaries": null,
  "band_gap": 0.0,
  "cbm": null,
  "vbm": null,
  "efermi": 2.95015719,
  "is_gap_direct": null,
  "is_metal": null,
  "es_source_calc_id": null,
  "bandstructure": null,
  "dos": null,
  "dos_energy_up": null,
  "dos_energy_down": null,
  "is_magnetic": null,
  "ordering": null,
  "total_magnetization": 2.9150733,
  "total_magnetization_normalized_vol": null,
  "total_magnetization_normalized_formula_units": null,
  "num_magnetic_sites": null,
  "num_unique_magnetic_sites": null,
  "types_of_magnetic_species": null,
  "bulk_modulus": null,
  "shear_modulus": null,
  "universal_anisotropy": null,
  "homogeneous_poisson": null,
  "e_total": null,
  "e_ionic": null,
  "e_electronic": null,
  "n": null,
  "e_ij_max": null,
  "weighted_surface_energy_EV_PER_ANG2": null,
  "weighted_surface_energy": null,
  "weighted_work_function": null,
  "surface_anisotropy": null,
  "shape_factor": null,
  "has_reconstructed": null,
  "possible_species": null,
  "has_props": null,
  "theoretical": null,
  "database_IDs": null,
  "fields_not_requested": [
    "builder_meta",
    "nsites",
    "elements",
    "nelements",
    "composition",
    "composition_reduced",
    "chemsys",
    "symmetry",
    "property_name",
    "deprecated",
    "deprecation_reasons",
    "last_updated",
    "origins",
    "warnings",
    "task_ids",
    "uncorrected_energy_per_atom",
    "equilibrium_reaction_energy_per_atom",
    "decomposes_to",
    "xas",
    "grain_boundaries",
    "cbm",
    "vbm",
    "is_gap_direct",
    "is_metal",
    "es_source_calc_id",
    "bandstructure",
    "dos",
    "dos_energy_up",
    "dos_energy_down",
    "is_magnetic",
    "ordering",
    "total_magnetization_normalized_vol",
    "total_magnetization_normalized_formula_units",
    "num_magnetic_sites",
    "num_unique_magnetic_sites",
    "types_of_magnetic_species",
    "bulk_modulus",
    "shear_modulus",
    "universal_anisotropy",
    "homogeneous_poisson",
    "e_total",
    "e_ionic",
    "e_electronic",
    "n",
    "e_ij_max",
    "weighted_surface_energy_EV_PER_ANG2",
    "weighted_surface_energy",
    "weighted_work_function",
    "surface_anisotropy",
    "shape_factor",
    "has_reconstructed",
    "possible_species",
    "has_props",
    "theoretical",
    "database_IDs"
  ]
}
