{
  "builder_meta": null,
  "nsites": null,
  "elements": null,
  "nelements": null,
  "composition": null,
  "composition_reduced": null,
  "formula_pretty": "Y4Pt",
  "formula_anonymous": "AB4",
  "chemsys": null,
  "volume": 339.25368083057316,
  "density": 5.391075785688582,
  "density_atomic": 33.925368083057315,
  "symmetry": null,
  "property_name": null,
  "material_id": "mp-1207762",
  "deprecated": null,
  "deprecation_reasons": null,
  "last_updated": null,
  "origins": null,
  "warnings": null,
  "structure": {
    "@module": "pymatgen.core.structure",
    "@class": "Structure",
    "charge": 0,
    "lattice": {
      "matrix": [
        [-5.535602, -5.535602, 0.0],
        [-5.535602, 0.0, -5.535602],
        [0.0, -5.535602, -5.535602]
      ],
      "pbc": [true, true, true],
      "a": 7.82852342429963,
      "b": 7.82852342429963,
      "c": 7.82852342429963,
      "alpha": 59.99999999999999,
      "beta": 59.99999999999999,
      "gamma": 59.99999999999999,
      "volume": 339.25368083057316
    },
    "properties": {},
    "sites": [
      {
        "species": [{ "element": "Y", "occu": 1 }],
        "abc": [0.610997999999999, 0.610997999999999, 0.610997999999999],
        "properties": { "magmom": 0.013000000000000001 },
        "label": "Y",
        "xyz": [-6.7644835015919895, -6.7644835015919895, -6.7644835015919895]
      },
      {
        "species": [{ "element": "Y", "occu": 1 }],
        "abc": [0.167007, 0.610997999999999, 0.610997999999999],
        "properties": { "magmom": 0.014 },
        "label": "Y",
        "xyz": [-4.306726034009994, -4.306726034009994, -6.7644835015919895]
      },
      {
        "species": [{ "element": "Y", "occu": 1 }],
        "abc": [0.610997999999999, 0.167007, 0.610997999999999],
        "properties": { "magmom": 0.013000000000000001 },
        "label": "Y",
        "xyz": [-4.306726034009994, -6.7644835015919895, -4.306726034009994]
      },
      {
        "species": [{ "element": "Y", "occu": 1 }],
        "abc": [0.582993, 0.139002, 0.139002],
        "properties": { "magmom": 0.014 },
        "label": "Y",
        "xyz": [-3.99667696599, -3.99667696599, -1.538919498408]
      },
      {
        "species": [{ "element": "Y", "occu": 1 }],
        "abc": [0.139002, 0.139002, 0.139002],
        "properties": { "magmom": 0.013000000000000001 },
        "label": "Y",
        "xyz": [-1.538919498408, -1.538919498408, -1.538919498408]
      },
      {
        "species": [{ "element": "Y", "occu": 1 }],
        "abc": [0.610997999999999, 0.610997999999999, 0.167007],
        "properties": { "magmom": 0.013000000000000001 },
        "label": "Y",
        "xyz": [-6.7644835015919895, -4.306726034009994, -4.306726034009994]
      },
      {
        "species": [{ "element": "Y", "occu": 1 }],
        "abc": [0.139002, 0.582993, 0.139002],
        "properties": { "magmom": 0.013000000000000001 },
        "label": "Y",
        "xyz": [-3.99667696599, -1.538919498408, -3.99667696599]
      },
      {
        "species": [{ "element": "Y", "occu": 1 }],
        "abc": [0.139002, 0.139002, 0.582993],
        "properties": { "magmom": 0.013000000000000001 },
        "label": "Y",
        "xyz": [-1.538919498408, -3.99667696599, -3.99667696599]
      },
      {
        "species": [{ "element": "Pt", "occu": 1 }],
        "abc": [0.0, 0.0, 0.0],
        "properties": { "magmom": 0.008 },
        "label": "Pt",
        "xyz": [0.0, 0.0, 0.0]
      },
      {
        "species": [{ "element": "Pt", "occu": 1 }],
        "abc": [0.75, 0.75, 0.75],
        "properties": { "magmom": 0.008 },
        "label": "Pt",
        "xyz": [-8.303403, -8.303403, -8.303403]
      }
    ]
  },
  "task_ids": null,
  "uncorrected_energy_per_atom": null,
  "energy_per_atom": -26.628960866833335,
  "formation_energy_per_atom": -0.080536718833337,
  "energy_above_hull": 0.531133257166661,
  "is_stable": false,
  "equilibrium_reaction_energy_per_atom": null,
  "decomposes_to": null,
  "xas": null,
  "grain_boundaries": null,
  "band_gap": 0.0,
  "cbm": null,
  "vbm": null,
  "efermi": 2.72435494,
  "is_gap_direct": null,
  "is_metal": null,
  "es_source_calc_id": null,
  "bandstructure": null,
  "dos": null,
  "dos_energy_up": null,
  "dos_energy_down": null,
  "is_magnetic": null,
  "ordering": null,
  "total_magnetization": 0.2294038,
  "total_magnetization_normalized_vol": null,
  "total_magnetization_normalized_formula_units": null,
  "num_magnetic_sites": null,
  "num_unique_magnetic_sites": null,
  "types_of_magnetic_species": null,
  "bulk_modulus": null,
  "shear_modulus": null,
  "universal_anisotropy": null,
  "homogeneous_poisson": null,
  "e_total": null,
  "e_ionic": null,
  "e_electronic": null,
  "n": null,
  "e_ij_max": null,
  "weighted_surface_energy_EV_PER_ANG2": null,
  "weighted_surface_energy": null,
  "weighted_work_function": null,
  "surface_anisotropy": null,
  "shape_factor": null,
  "has_reconstructed": null,
  "possible_species": null,
  "has_props": null,
  "theoretical": null,
  "database_IDs": null,
  "fields_not_requested": [
    "builder_meta",
    "nsites",
    "elements",
    "nelements",
    "composition",
    "composition_reduced",
    "chemsys",
    "symmetry",
    "property_name",
    "deprecated",
    "deprecation_reasons",
    "last_updated",
    "origins",
    "warnings",
    "task_ids",
    "uncorrected_energy_per_atom",
    "equilibrium_reaction_energy_per_atom",
    "decomposes_to",
    "xas",
    "grain_boundaries",
    "cbm",
    "vbm",
    "is_gap_direct",
    "is_metal",
    "es_source_calc_id",
    "bandstructure",
    "dos",
    "dos_energy_up",
    "dos_energy_down",
    "is_magnetic",
    "ordering",
    "total_magnetization_normalized_vol",
    "total_magnetization_normalized_formula_units",
    "num_magnetic_sites",
    "num_unique_magnetic_sites",
    "types_of_magnetic_species",
    "bulk_modulus",
    "shear_modulus",
    "universal_anisotropy",
    "homogeneous_poisson",
    "e_total",
    "e_ionic",
    "e_electronic",
    "n",
    "e_ij_max",
    "weighted_surface_energy_EV_PER_ANG2",
    "weighted_surface_energy",
    "weighted_work_function",
    "surface_anisotropy",
    "shape_factor",
    "has_reconstructed",
    "possible_species",
    "has_props",
    "theoretical",
    "database_IDs"
  ]
}
