{"builder_meta": null, "nsites": null, "elements": null, "nelements": null, "composition": null, "composition_reduced": null, "formula_pretty": "Y4Sb3", "formula_anonymous": "A3B4", "chemsys": null, "volume": 389.8122542962777, "density": 6.141870840391368, "density_atomic": 27.84373244973412, "symmetry": null, "property_name": null, "material_id": "mp-568320", "deprecated": null, "deprecation_reasons": null, "last_updated": null, "origins": null, "warnings": null, "structure": {"@module": "pymatgen.core.structure", "@class": "Structure", "charge": 0, "lattice": {"matrix": [[7.51477807, -0.0, -2.65687533], [-3.75738904, 6.50798946, -2.65687533], [0.0, 1e-08, 7.97062702]], "pbc": [true, true, true], "a": 7.970625819878609, "b": 7.970626432630363, "c": 7.97062702, "alpha": 109.47121944730533, "beta": 109.47122106684934, "gamma": 109.47121868078301, "volume": 389.8122542962777}, "properties": {}, "sites": [{"species": [{"element": "Y", "occu": 1}], "abc": [0.35637548, 0.5, 0.0], "properties": {"magmom": -0.0}, "label": "Y", "xyz": [0.7993881217897238, 3.25399473, -2.2752828860289087]}, {"species": [{"element": "Y", "occu": 1}], "abc": [0.5, -0.0, 0.35637548], "properties": {"magmom": -0.0}, "label": "Y", "xyz": [3.757389035, 3.5637548e-09, 1.5120983651534696]}, {"species": [{"element": "Y", "occu": 1}], "abc": [0.85637548, 0.5, 0.0], "properties": {"magmom": -0.0}, "label": "Y", "xyz": [4.556777156789724, 3.25399473, -3.6037205510289083]}, {"species": [{"element": "Y", "occu": 1}], "abc": [0.64362452, 0.64362452, 0.64362452], "properties": {"magmom": -0.0}, "label": "Y", "xyz": [2.4183477108870157, 4.188701598793805, 1.7100307719043477]}, {"species": [{"element": "Y", "occu": 1}], "abc": [0.14362452, 0.14362452, 0.14362452], "properties": {"magmom": -0.0}, "label": "Y", "xyz": [0.5396531958870157, 0.9347068637938045, 0.38159259190434713]}, {"species": [{"element": "Y", "occu": 1}], "abc": [-0.0, 0.85637548, 0.5], "properties": {"magmom": -0.0}, "label": "Y", "xyz": [-3.2177358426767393, 5.573282602642441, 1.7100306239710918]}, {"species": [{"element": "Y", "occu": 1}], "abc": [0.5, -0.0, 0.85637548], "properties": {"magmom": -0.0}, "label": "Y", "xyz": [3.757389035, 8.5637548e-09, 5.497411875153469]}, {"species": [{"element": "Y", "occu": 1}], "abc": [-0.0, 0.35637548, 0.5], "properties": {"magmom": -0.0}, "label": "Y", "xyz": [-1.3390413226767393, 2.319287872642441, 3.0384682889710914]}, {"species": [{"element": "Sb", "occu": 1}], "abc": [0.125, 0.75, 0.875], "properties": {"magmom": 0.0}, "label": "Sb", "xyz": [-1.8786945212500001, 4.88099210375, 4.64953272875]}, {"species": [{"element": "Sb", "occu": 1}], "abc": [0.625, 0.375, 0.25], "properties": {"magmom": 0.0}, "label": "Sb", "xyz": [3.28771540375, 2.44049605, -0.664218575]}, {"species": [{"element": "Sb", "occu": 1}], "abc": [0.375, 0.25, 0.625], "properties": {"magmom": 0.0}, "label": "Sb", "xyz": [1.8786945162500004, 1.62699737125, 3.3210948062500005]}, {"species": [{"element": "Sb", "occu": 1}], "abc": [0.75, 0.875, 0.125], "properties": {"magmom": 0.0}, "label": "Sb", "xyz": [2.3483681425000005, 5.6944907787500005, -3.3210940337499997]}, {"species": [{"element": "Sb", "occu": 1}], "abc": [0.25, 0.625, 0.375], "properties": {"magmom": 0.0}, "label": "Sb", "xyz": [-0.46967363250000016, 4.0674934162500005, 0.6642192187499996]}, {"species": [{"element": "Sb", "occu": 1}], "abc": [0.875, 0.125, 0.75], "properties": {"magmom": 0.0}, "label": "Sb", "xyz": [6.10575718125, 0.81349869, 3.3210949349999996]}]}, "task_ids": null, "uncorrected_energy_per_atom": null, "energy_per_atom": -23.792733775714286, "formation_energy_per_atom": -1.167969342857146, "energy_above_hull": 0.045554697857145006, "is_stable": false, "equilibrium_reaction_energy_per_atom": null, "decomposes_to": null, "xas": null, "grain_boundaries": null, "band_gap": 0.0, "cbm": null, "vbm": null, "efermi": 5.84507647, "is_gap_direct": null, "is_metal": null, "es_source_calc_id": null, "bandstructure": null, "dos": null, "dos_energy_up": null, "dos_energy_down": null, "is_magnetic": null, "ordering": null, "total_magnetization": 0.0028471, "total_magnetization_normalized_vol": null, "total_magnetization_normalized_formula_units": null, "num_magnetic_sites": null, "num_unique_magnetic_sites": null, "types_of_magnetic_species": null, "bulk_modulus": null, "shear_modulus": null, "universal_anisotropy": null, "homogeneous_poisson": null, "e_total": null, "e_ionic": null, "e_electronic": null, "n": null, "e_ij_max": null, "weighted_surface_energy_EV_PER_ANG2": null, "weighted_surface_energy": null, "weighted_work_function": null, "surface_anisotropy": null, "shape_factor": null, "has_reconstructed": null, "possible_species": null, "has_props": null, "theoretical": null, "database_IDs": null, "fields_not_requested": ["builder_meta", "nsites", "elements", "nelements", "composition", "composition_reduced", "chemsys", "symmetry", "property_name", "deprecated", "deprecation_reasons", "last_updated", "origins", "warnings", "task_ids", "uncorrected_energy_per_atom", "equilibrium_reaction_energy_per_atom", "decomposes_to", "xas", "grain_boundaries", "cbm", "vbm", "is_gap_direct", "is_metal", "es_source_calc_id", "bandstructure", "dos", "dos_energy_up", "dos_energy_down", "is_magnetic", "ordering", "total_magnetization_normalized_vol", "total_magnetization_normalized_formula_units", "num_magnetic_sites", "num_unique_magnetic_sites", "types_of_magnetic_species", "bulk_modulus", "shear_modulus", "universal_anisotropy", "homogeneous_poisson", "e_total", "e_ionic", "e_electronic", "n", "e_ij_max", "weighted_surface_energy_EV_PER_ANG2", "weighted_surface_energy", "weighted_work_function", "surface_anisotropy", "shape_factor", "has_reconstructed", "possible_species", "has_props", "theoretical", "database_IDs"]}