{"builder_meta": null, "nsites": null, "elements": null, "nelements": null, "composition": null, "composition_reduced": null, "formula_pretty": "Y5Al3", "formula_anonymous": "A3B5", "chemsys": null, "volume": 440.65266511872886, "density": 3.96035223072177, "density_atomic": 27.540791569920554, "symmetry": null, "property_name": null, "material_id": "mp-1178742", "deprecated": null, "deprecation_reasons": null, "last_updated": null, "origins": null, "warnings": null, "structure": {"@module": "pymatgen.core.structure", "@class": "Structure", "charge": 0, "lattice": {"matrix": [[8.864087, -0.005631, 0.0], [-4.43692, 7.67371, 0.0], [0.0, 0.0, 6.48062]], "pbc": [true, true, true], "a": 8.864088788574378, "b": 8.864089589489717, "c": 6.48062, "alpha": 90.0, "beta": 90.0, "gamma": 120.0727917669986, "volume": 440.65266511872886}, "properties": {}, "sites": [{"species": [{"element": "Y", "occu": 1}], "abc": [0.666787999999999, 0.333248, 0.5], "properties": {"magmom": 0.023}, "label": "Y", "xyz": [4.431872126395992, 2.5534938268519998, 3.24031]}, {"species": [{"element": "Y", "occu": 1}], "abc": [0.333248, 0.666787999999999, 0.5], "properties": {"magmom": 0.023}, "label": "Y", "xyz": [-0.004545748383995907, 5.114861223991992, 3.24031]}, {"species": [{"element": "Y", "occu": 1}], "abc": [0.333212, 0.666752, 0.0], "properties": {"magmom": 0.023}, "label": "Y", "xyz": [-0.004705126395999848, 5.114585173148, 0.0]}, {"species": [{"element": "Y", "occu": 1}], "abc": [0.666752, 0.333212, 0.0], "properties": {"magmom": 0.022}, "label": "Y", "xyz": [4.431712748384, 2.553217776008, 0.0]}, {"species": [{"element": "Y", "occu": 1}], "abc": [0.753764, 0.753764, 0.249993], "properties": {"magmom": 0.036000000000000004}, "label": "Y", "xyz": [3.3370391065879996, 5.779921899356, 1.62010963566]}, {"species": [{"element": "Y", "occu": 1}], "abc": [0.246242, 0.999823999999999, 0.250003], "properties": {"magmom": 0.041}, "label": "Y", "xyz": [-2.253428591025996, 7.670972838337993, 1.62017444186]}, {"species": [{"element": "Y", "occu": 1}], "abc": [0.999823999999999, 0.246242, 0.250003], "properties": {"magmom": 0.04}, "label": "Y", "xyz": [7.7699708660479905, 1.883959688876, 1.62017444186]}, {"species": [{"element": "Y", "occu": 1}], "abc": [0.246235999999999, 0.246235999999999, 0.749993], "properties": {"magmom": 0.036000000000000004}, "label": "Y", "xyz": [1.0901278934119956, 1.8881571006439923, 4.8604196356600005]}, {"species": [{"element": "Y", "occu": 1}], "abc": [0.753757999999999, 0.000176, 0.750003], "properties": {"magmom": 0.039}, "label": "Y", "xyz": [6.680595591025991, -0.0028938383379999945, 4.86048444186]}, {"species": [{"element": "Y", "occu": 1}], "abc": [0.000176, 0.753757999999999, 0.750003], "properties": {"magmom": 0.039}, "label": "Y", "xyz": [-3.3428038660479955, 5.784119311123993, 4.86048444186]}, {"species": [{"element": "Al", "occu": 1}], "abc": [0.39662000000000003, 0.39662000000000003, 0.250007], "properties": {"magmom": 0.002}, "label": "Al", "xyz": [1.75590297554, 3.04131349298, 1.6202003643399998]}, {"species": [{"element": "Al", "occu": 1}], "abc": [0.603464, 4e-06, 0.249997], "properties": {"magmom": 0.004}, "label": "Al", "xyz": [5.3491396496879995, -0.0033674109439999996, 1.62013555814]}, {"species": [{"element": "Al", "occu": 1}], "abc": [4e-06, 0.603464, 0.249997], "properties": {"magmom": 0.004}, "label": "Al", "xyz": [-2.677486034532, 4.630807708916, 1.62013555814]}, {"species": [{"element": "Al", "occu": 1}], "abc": [0.60338, 0.60338, 0.750007], "properties": {"magmom": 0.001}, "label": "Al", "xyz": [2.6712640244599997, 4.626765507020001, 4.86051036434]}, {"species": [{"element": "Al", "occu": 1}], "abc": [0.396536, 0.999996, 0.749996999999999], "properties": {"magmom": 0.002}, "label": "Al", "xyz": [-0.9219726496879996, 7.671446410943999, 4.860445558139994]}, {"species": [{"element": "Al", "occu": 1}], "abc": [0.999996, 0.396536, 0.749996999999999], "properties": {"magmom": 0.002}, "label": "Al", "xyz": [7.104653034531999, 3.0372712910839996, 4.860445558139994]}]}, "task_ids": null, "uncorrected_energy_per_atom": null, "energy_per_atom": -15.543705475520833, "formation_energy_per_atom": -0.32316800177083305, "energy_above_hull": 0.046138881979167004, "is_stable": false, "equilibrium_reaction_energy_per_atom": null, "decomposes_to": null, "xas": null, "grain_boundaries": null, "band_gap": 0.0, "cbm": null, "vbm": null, "efermi": 3.60201069, "is_gap_direct": null, "is_metal": null, "es_source_calc_id": null, "bandstructure": null, "dos": null, "dos_energy_up": null, "dos_energy_down": null, "is_magnetic": null, "ordering": null, "total_magnetization": 1.1366526, "total_magnetization_normalized_vol": null, "total_magnetization_normalized_formula_units": null, "num_magnetic_sites": null, "num_unique_magnetic_sites": null, "types_of_magnetic_species": null, "bulk_modulus": null, "shear_modulus": null, "universal_anisotropy": null, "homogeneous_poisson": null, "e_total": null, "e_ionic": null, "e_electronic": null, "n": null, "e_ij_max": null, "weighted_surface_energy_EV_PER_ANG2": null, "weighted_surface_energy": null, "weighted_work_function": null, "surface_anisotropy": null, "shape_factor": null, "has_reconstructed": null, "possible_species": null, "has_props": null, "theoretical": null, "database_IDs": null, "fields_not_requested": ["builder_meta", "nsites", "elements", "nelements", "composition", "composition_reduced", "chemsys", "symmetry", "property_name", "deprecated", "deprecation_reasons", "last_updated", "origins", "warnings", "task_ids", "uncorrected_energy_per_atom", "equilibrium_reaction_energy_per_atom", "decomposes_to", "xas", "grain_boundaries", "cbm", "vbm", "is_gap_direct", "is_metal", "es_source_calc_id", "bandstructure", "dos", "dos_energy_up", "dos_energy_down", "is_magnetic", "ordering", "total_magnetization_normalized_vol", "total_magnetization_normalized_formula_units", "num_magnetic_sites", "num_unique_magnetic_sites", "types_of_magnetic_species", "bulk_modulus", "shear_modulus", "universal_anisotropy", "homogeneous_poisson", "e_total", "e_ionic", "e_electronic", "n", "e_ij_max", "weighted_surface_energy_EV_PER_ANG2", "weighted_surface_energy", "weighted_work_function", "surface_anisotropy", "shape_factor", "has_reconstructed", "possible_species", "has_props", "theoretical", "database_IDs"]}