{
  "builder_meta": null,
  "nsites": null,
  "elements": null,
  "nelements": null,
  "composition": null,
  "composition_reduced": null,
  "formula_pretty": "Y5Bi3",
  "formula_anonymous": "A3B5",
  "chemsys": null,
  "volume": 950.7333116189152,
  "density": 7.485668248660883,
  "density_atomic": 29.7104159880911,
  "symmetry": null,
  "property_name": null,
  "material_id": "mp-624187",
  "deprecated": null,
  "deprecation_reasons": null,
  "last_updated": null,
  "origins": null,
  "warnings": null,
  "structure": {
    "@module": "pymatgen.core.structure",
    "@class": "Structure",
    "charge": 0,
    "lattice": {
      "matrix": [
        [8.274231499999999, -0.0, 0.0],
        [-0.0, 9.49009268, 0.0],
        [0.0, 0.0, 12.10767039]
      ],
      "pbc": [true, true, true],
      "a": 8.274231499999999,
      "b": 9.49009268,
      "c": 12.10767039,
      "alpha": 90.0,
      "beta": 90.0,
      "gamma": 90.0,
      "volume": 950.733311618915
    },
    "properties": {},
    "sites": [
      {
        "species": [{ "element": "Y", "occu": 1 }],
        "abc": [0.68548936, 0.75, 0.7814228400000001],
        "properties": { "magmom": 0.0 },
        "label": "Y",
        "xyz": [5.671897655426839, 7.11756951, 9.461210181937707]
      },
      {
        "species": [{ "element": "Y", "occu": 1 }],
        "abc": [0.85514059, 0.75, 0.28615381],
        "properties": { "magmom": 0.0 },
        "label": "Y",
        "xyz": [7.075631206706584, 7.11756951, 3.4646560123226857]
      },
      {
        "species": [{ "element": "Y", "occu": 1 }],
        "abc": [0.31451064, 0.25, 0.21857716],
        "properties": { "magmom": 0.0 },
        "label": "Y",
        "xyz": [2.6023338445731596, 2.37252317, 2.646460208062292]
      },
      {
        "species": [{ "element": "Y", "occu": 1 }],
        "abc": [0.80559411, 0.062213660000000004, 0.55985034],
        "properties": { "magmom": 0.0 },
        "label": "Y",
        "xyz": [6.665672161176465, 0.5904133993620089, 6.778483384449432]
      },
      {
        "species": [{ "element": "Y", "occu": 1 }],
        "abc": [0.14485941, 0.25, 0.71384619],
        "properties": { "magmom": 0.0 },
        "label": "Y",
        "xyz": [1.1986002932934148, 2.37252317, 8.643014377677314]
      },
      {
        "species": [{ "element": "Y", "occu": 1 }],
        "abc": [0.69440589, 0.5622136600000001, 0.05985034],
        "properties": { "magmom": 0.0 },
        "label": "Y",
        "xyz": [5.745675088823534, 5.335459739362009, 0.7246481894494325]
      },
      {
        "species": [{ "element": "Y", "occu": 1 }],
        "abc": [0.026750490000000002, 0.75, 0.98889579],
        "properties": { "magmom": 0.0 },
        "label": "Y",
        "xyz": [0.22133974699843498, 7.11756951, 11.973224275378659]
      },
      {
        "species": [{ "element": "Y", "occu": 1 }],
        "abc": [0.97324951, 0.25, 0.01110421],
        "properties": { "magmom": 0.0 },
        "label": "Y",
        "xyz": [8.052891753001564, 2.37252317, 0.1344461146213419]
      },
      {
        "species": [{ "element": "Y", "occu": 1 }],
        "abc": [0.69440589, 0.93778634, 0.05985034],
        "properties": { "magmom": 0.0 },
        "label": "Y",
        "xyz": [5.745675088823534, 8.899679280637992, 0.7246481894494325]
      },
      {
        "species": [{ "element": "Y", "occu": 1 }],
        "abc": [0.64485941, 0.25, 0.7861538100000001],
        "properties": { "magmom": 0.0 },
        "label": "Y",
        "xyz": [5.335716043293415, 2.37252317, 9.518491207322686]
      },
      {
        "species": [{ "element": "Y", "occu": 1 }],
        "abc": [0.80559411, 0.43778634, 0.55985034],
        "properties": { "magmom": 0.0 },
        "label": "Y",
        "xyz": [6.665672161176465, 4.154632940637991, 6.778483384449432]
      },
      {
        "species": [{ "element": "Y", "occu": 1 }],
        "abc": [0.52675049, 0.75, 0.5111042100000001],
        "properties": { "magmom": 0.0 },
        "label": "Y",
        "xyz": [4.358455496998435, 7.11756951, 6.188281309621342]
      },
      {
        "species": [{ "element": "Y", "occu": 1 }],
        "abc": [0.8145106400000001, 0.25, 0.28142284],
        "properties": { "magmom": 0.0 },
        "label": "Y",
        "xyz": [6.73944959457316, 2.37252317, 3.4073749869377075]
      },
      {
        "species": [{ "element": "Y", "occu": 1 }],
        "abc": [0.30559411000000003, 0.062213660000000004, 0.94014966],
        "properties": { "magmom": 0.0 },
        "label": "Y",
        "xyz": [2.528556411176465, 0.5904133993620089, 11.383022200550567]
      },
      {
        "species": [{ "element": "Y", "occu": 1 }],
        "abc": [0.30559411000000003, 0.43778634, 0.94014966],
        "properties": { "magmom": 0.0 },
        "label": "Y",
        "xyz": [2.528556411176465, 4.154632940637991, 11.383022200550567]
      },
      {
        "species": [{ "element": "Y", "occu": 1 }],
        "abc": [0.19440589, 0.5622136600000001, 0.44014966],
        "properties": { "magmom": 0.0 },
        "label": "Y",
        "xyz": [1.6085593388235349, 5.335459739362009, 5.329187005550567]
      },
      {
        "species": [{ "element": "Y", "occu": 1 }],
        "abc": [0.19440589, 0.93778634, 0.44014966],
        "properties": { "magmom": 0.0 },
        "label": "Y",
        "xyz": [1.6085593388235349, 8.899679280637992, 5.329187005550567]
      },
      {
        "species": [{ "element": "Y", "occu": 1 }],
        "abc": [0.18548936, 0.75, 0.71857716],
        "properties": { "magmom": 0.0 },
        "label": "Y",
        "xyz": [1.5347819054268397, 7.11756951, 8.700295403062292]
      },
      {
        "species": [{ "element": "Y", "occu": 1 }],
        "abc": [0.47324951, 0.25, 0.48889579],
        "properties": { "magmom": 0.0 },
        "label": "Y",
        "xyz": [3.9157760030015645, 2.37252317, 5.919389080378657]
      },
      {
        "species": [{ "element": "Y", "occu": 1 }],
        "abc": [0.35514059000000003, 0.75, 0.21384619],
        "properties": { "magmom": 0.0 },
        "label": "Y",
        "xyz": [2.9385154567065848, 7.11756951, 2.589179182677314]
      },
      {
        "species": [{ "element": "Bi", "occu": 1 }],
        "abc": [0.08905418, 0.25, 0.45874551],
        "properties": { "magmom": -0.0 },
        "label": "Bi",
        "xyz": [0.7368549013626698, 2.37252317, 5.554339427972449]
      },
      {
        "species": [{ "element": "Bi", "occu": 1 }],
        "abc": [0.56618258, 0.50400354, 0.32652519],
        "properties": { "magmom": -0.0 },
        "label": "Bi",
        "xyz": [4.68472573818727, 4.783040305648088, 3.953459374552124]
      },
      {
        "species": [{ "element": "Bi", "occu": 1 }],
        "abc": [0.06618258, 0.99599646, 0.17347481],
        "properties": { "magmom": -0.0 },
        "label": "Bi",
        "xyz": [0.54760998818727, 9.452098714351912, 2.100375820447876]
      },
      {
        "species": [{ "element": "Bi", "occu": 1 }],
        "abc": [0.93381742, 0.00400354, 0.82652519],
        "properties": { "magmom": -0.0 },
        "label": "Bi",
        "xyz": [7.726621511812729, 0.0379939656480872, 10.007294569552124]
      },
      {
        "species": [{ "element": "Bi", "occu": 1 }],
        "abc": [0.43381742, 0.00400354, 0.67347481],
        "properties": { "magmom": -0.0 },
        "label": "Bi",
        "xyz": [3.5895057618127297, 0.0379939656480872, 8.154211015447874]
      },
      {
        "species": [{ "element": "Bi", "occu": 1 }],
        "abc": [0.41094582, 0.75, 0.95874551],
        "properties": { "magmom": -0.0 },
        "label": "Bi",
        "xyz": [3.4002608486373296, 7.11756951, 11.608174622972447]
      },
      {
        "species": [{ "element": "Bi", "occu": 1 }],
        "abc": [0.58905418, 0.25, 0.04125449],
        "properties": { "magmom": -0.0 },
        "label": "Bi",
        "xyz": [4.8739706513626695, 2.37252317, 0.49949576702755105]
      },
      {
        "species": [{ "element": "Bi", "occu": 1 }],
        "abc": [0.93381742, 0.49599646000000003, 0.82652519],
        "properties": { "magmom": -0.0 },
        "label": "Bi",
        "xyz": [7.726621511812729, 4.707052374351913, 10.007294569552124]
      },
      {
        "species": [{ "element": "Bi", "occu": 1 }],
        "abc": [0.91094582, 0.75, 0.54125449],
        "properties": { "magmom": -0.0 },
        "label": "Bi",
        "xyz": [7.537376598637329, 7.11756951, 6.553330962027551]
      },
      {
        "species": [{ "element": "Bi", "occu": 1 }],
        "abc": [0.56618258, 0.99599646, 0.32652519],
        "properties": { "magmom": -0.0 },
        "label": "Bi",
        "xyz": [4.68472573818727, 9.452098714351912, 3.953459374552124]
      },
      {
        "species": [{ "element": "Bi", "occu": 1 }],
        "abc": [0.06618258, 0.50400354, 0.17347481],
        "properties": { "magmom": -0.0 },
        "label": "Bi",
        "xyz": [0.54760998818727, 4.783040305648088, 2.100375820447876]
      },
      {
        "species": [{ "element": "Bi", "occu": 1 }],
        "abc": [0.43381742, 0.49599646000000003, 0.67347481],
        "properties": { "magmom": -0.0 },
        "label": "Bi",
        "xyz": [3.5895057618127297, 4.707052374351913, 8.154211015447874]
      }
    ]
  },
  "task_ids": null,
  "uncorrected_energy_per_atom": null,
  "energy_per_atom": -35.47548199125,
  "formation_energy_per_atom": -0.8411287368749991,
  "energy_above_hull": 0.0,
  "is_stable": true,
  "equilibrium_reaction_energy_per_atom": null,
  "decomposes_to": null,
  "xas": null,
  "grain_boundaries": null,
  "band_gap": 0.0,
  "cbm": null,
  "vbm": null,
  "efermi": 5.08940911,
  "is_gap_direct": null,
  "is_metal": null,
  "es_source_calc_id": null,
  "bandstructure": null,
  "dos": null,
  "dos_energy_up": null,
  "dos_energy_down": null,
  "is_magnetic": null,
  "ordering": null,
  "total_magnetization": 0.0020217,
  "total_magnetization_normalized_vol": null,
  "total_magnetization_normalized_formula_units": null,
  "num_magnetic_sites": null,
  "num_unique_magnetic_sites": null,
  "types_of_magnetic_species": null,
  "bulk_modulus": null,
  "shear_modulus": null,
  "universal_anisotropy": null,
  "homogeneous_poisson": null,
  "e_total": null,
  "e_ionic": null,
  "e_electronic": null,
  "n": null,
  "e_ij_max": null,
  "weighted_surface_energy_EV_PER_ANG2": null,
  "weighted_surface_energy": null,
  "weighted_work_function": null,
  "surface_anisotropy": null,
  "shape_factor": null,
  "has_reconstructed": null,
  "possible_species": null,
  "has_props": null,
  "theoretical": null,
  "database_IDs": null,
  "fields_not_requested": [
    "builder_meta",
    "nsites",
    "elements",
    "nelements",
    "composition",
    "composition_reduced",
    "chemsys",
    "symmetry",
    "property_name",
    "deprecated",
    "deprecation_reasons",
    "last_updated",
    "origins",
    "warnings",
    "task_ids",
    "uncorrected_energy_per_atom",
    "equilibrium_reaction_energy_per_atom",
    "decomposes_to",
    "xas",
    "grain_boundaries",
    "cbm",
    "vbm",
    "is_gap_direct",
    "is_metal",
    "es_source_calc_id",
    "bandstructure",
    "dos",
    "dos_energy_up",
    "dos_energy_down",
    "is_magnetic",
    "ordering",
    "total_magnetization_normalized_vol",
    "total_magnetization_normalized_formula_units",
    "num_magnetic_sites",
    "num_unique_magnetic_sites",
    "types_of_magnetic_species",
    "bulk_modulus",
    "shear_modulus",
    "universal_anisotropy",
    "homogeneous_poisson",
    "e_total",
    "e_ionic",
    "e_electronic",
    "n",
    "e_ij_max",
    "weighted_surface_energy_EV_PER_ANG2",
    "weighted_surface_energy",
    "weighted_work_function",
    "surface_anisotropy",
    "shape_factor",
    "has_reconstructed",
    "possible_species",
    "has_props",
    "theoretical",
    "database_IDs"
  ]
}
