{"builder_meta": null, "nsites": null, "elements": null, "nelements": null, "composition": null, "composition_reduced": null, "formula_pretty": "Y5Ga3", "formula_anonymous": "A3B5", "chemsys": null, "volume": 827.9827898530674, "density": 5.244029200586079, "density_atomic": 25.874462182908356, "symmetry": null, "property_name": null, "material_id": "mp-672256", "deprecated": null, "deprecation_reasons": null, "last_updated": null, "origins": null, "warnings": null, "structure": {"@module": "pymatgen.core.structure", "@class": "Structure", "charge": 0, "lattice": {"matrix": [[7.6455743, -0.0, -0.0], [0.0, 7.6455743, 0.0], [0.0, -0.0, 14.16449461]], "pbc": [true, true, true], "a": 7.6455743, "b": 7.6455743, "c": 14.16449461, "alpha": 90.0, "beta": 90.0, "gamma": 90.0, "volume": 827.9827898530674}, "properties": {}, "sites": [{"species": [{"element": "Y", "occu": 1}], "abc": [0.8324024800000001, 0.82834671, 0.89645989], "properties": {"magmom": 0.096}, "label": "Y", "xyz": [6.364195008344264, 6.333186317465553, 12.697901279986194]}, {"species": [{"element": "Y", "occu": 1}], "abc": [0.17165329000000001, 0.16759752, 0.60354011], "properties": {"magmom": 0.096}, "label": "Y", "xyz": [1.312387982534447, 1.281379291655736, 8.548840635013807]}, {"species": [{"element": "Y", "occu": 1}], "abc": [0.8324024800000001, 0.17165329000000001, 0.39645989], "properties": {"magmom": 0.096}, "label": "Y", "xyz": [6.364195008344264, 1.312387982534447, 5.615653974986193]}, {"species": [{"element": "Y", "occu": 1}], "abc": [0.16759752, 0.82834671, 0.39645989], "properties": {"magmom": 0.096}, "label": "Y", "xyz": [1.281379291655736, 6.333186317465553, 5.615653974986193]}, {"species": [{"element": "Y", "occu": 1}], "abc": [0.32834671, 0.33240248, 0.39645989], "properties": {"magmom": 0.096}, "label": "Y", "xyz": [2.510399167465553, 2.541407858344264, 5.615653974986193]}, {"species": [{"element": "Y", "occu": 1}], "abc": [0.82834671, 0.16759752, 0.10354011], "properties": {"magmom": 0.096}, "label": "Y", "xyz": [6.333186317465553, 1.281379291655736, 1.4665933300138072]}, {"species": [{"element": "Y", "occu": 1}], "abc": [0.32834671, 0.66759752, 0.89645989], "properties": {"magmom": 0.096}, "label": "Y", "xyz": [2.510399167465553, 5.104166441655736, 12.697901279986194]}, {"species": [{"element": "Y", "occu": 1}], "abc": [0.17165329000000001, 0.8324024800000001, 0.10354011], "properties": {"magmom": 0.096}, "label": "Y", "xyz": [1.312387982534447, 6.364195008344264, 1.4665933300138072]}, {"species": [{"element": "Y", "occu": 1}], "abc": [0.5, -0.0, 0.753768], "properties": {"magmom": 0.0}, "label": "Y", "xyz": [3.82278715, 0.0, 10.67674277319048]}, {"species": [{"element": "Y", "occu": 1}], "abc": [0.0, 0.5, 0.246231999999999], "properties": {"magmom": 0.0}, "label": "Y", "xyz": [0.0, 3.82278715, 3.487751836809506]}, {"species": [{"element": "Y", "occu": 1}], "abc": [0.33240248, 0.6716532900000001, 0.60354011], "properties": {"magmom": 0.096}, "label": "Y", "xyz": [2.541407858344264, 5.135175132534448, 8.548840635013807]}, {"species": [{"element": "Y", "occu": 1}], "abc": [0.66759752, 0.6716532900000001, 0.10354011], "properties": {"magmom": 0.096}, "label": "Y", "xyz": [5.104166441655736, 5.135175132534448, 1.4665933300138072]}, {"species": [{"element": "Y", "occu": 1}], "abc": [0.66759752, 0.32834671, 0.60354011], "properties": {"magmom": 0.096}, "label": "Y", "xyz": [5.104166441655736, 2.510399167465553, 8.548840635013807]}, {"species": [{"element": "Y", "occu": 1}], "abc": [0.0, 0.5, 0.746232], "properties": {"magmom": 0.0}, "label": "Y", "xyz": [0.0, 3.82278715, 10.56999914180952]}, {"species": [{"element": "Y", "occu": 1}], "abc": [0.82834671, 0.8324024800000001, 0.60354011], "properties": {"magmom": 0.096}, "label": "Y", "xyz": [6.333186317465553, 6.364195008344264, 8.548840635013807]}, {"species": [{"element": "Y", "occu": 1}], "abc": [0.6716532900000001, 0.33240248, 0.89645989], "properties": {"magmom": 0.096}, "label": "Y", "xyz": [5.135175132534448, 2.541407858344264, 12.697901279986194]}, {"species": [{"element": "Y", "occu": 1}], "abc": [0.16759752, 0.17165329000000001, 0.89645989], "properties": {"magmom": 0.096}, "label": "Y", "xyz": [1.281379291655736, 1.312387982534447, 12.697901279986194]}, {"species": [{"element": "Y", "occu": 1}], "abc": [0.5, -0.0, 0.253768], "properties": {"magmom": 0.0}, "label": "Y", "xyz": [3.82278715, 0.0, 3.59449546819048]}, {"species": [{"element": "Y", "occu": 1}], "abc": [0.6716532900000001, 0.66759752, 0.39645989], "properties": {"magmom": 0.096}, "label": "Y", "xyz": [5.135175132534448, 5.104166441655736, 5.615653974986193]}, {"species": [{"element": "Y", "occu": 1}], "abc": [0.33240248, 0.32834671, 0.10354011], "properties": {"magmom": 0.096}, "label": "Y", "xyz": [2.541407858344264, 2.510399167465553, 1.4665933300138072]}, {"species": [{"element": "Ga", "occu": 1}], "abc": [0.62170915, 0.37829085, 0.25], "properties": {"magmom": -0.007}, "label": "Ga", "xyz": [4.753323499314845, 2.892250800685155, 3.5411236525]}, {"species": [{"element": "Ga", "occu": 1}], "abc": [0.37829085, 0.62170915, 0.25], "properties": {"magmom": -0.007}, "label": "Ga", "xyz": [2.892250800685155, 4.753323499314845, 3.5411236525]}, {"species": [{"element": "Ga", "occu": 1}], "abc": [0.0, 0.5, 0.0015865999999990002], "properties": {"magmom": 0.02}, "label": "Ga", "xyz": [0.0, 3.82278715, 0.02247338714821184]}, {"species": [{"element": "Ga", "occu": 1}], "abc": [0.5, -0.0, 0.9984134], "properties": {"magmom": 0.02}, "label": "Ga", "xyz": [3.82278715, 0.0, 14.142021222851774]}, {"species": [{"element": "Ga", "occu": 1}], "abc": [0.12170915, 0.12170915, 0.25], "properties": {"magmom": -0.007}, "label": "Ga", "xyz": [0.930536349314845, 0.930536349314845, 3.5411236525]}, {"species": [{"element": "Ga", "occu": 1}], "abc": [0.37829085, 0.37829085, 0.75], "properties": {"magmom": -0.007}, "label": "Ga", "xyz": [2.892250800685155, 2.892250800685155, 10.6233709575]}, {"species": [{"element": "Ga", "occu": 1}], "abc": [0.5, -0.0, 0.49841339999999906], "properties": {"magmom": 0.02}, "label": "Ga", "xyz": [3.82278715, 0.0, 7.059773917851761]}, {"species": [{"element": "Ga", "occu": 1}], "abc": [0.0, 0.5, 0.5015866], "properties": {"magmom": 0.02}, "label": "Ga", "xyz": [0.0, 3.82278715, 7.104720692148226]}, {"species": [{"element": "Ga", "occu": 1}], "abc": [0.12170915, 0.8782908500000001, 0.75], "properties": {"magmom": -0.007}, "label": "Ga", "xyz": [0.930536349314845, 6.715037950685155, 10.6233709575]}, {"species": [{"element": "Ga", "occu": 1}], "abc": [0.8782908500000001, 0.8782908500000001, 0.25], "properties": {"magmom": -0.007}, "label": "Ga", "xyz": [6.715037950685155, 6.715037950685155, 3.5411236525]}, {"species": [{"element": "Ga", "occu": 1}], "abc": [0.62170915, 0.62170915, 0.75], "properties": {"magmom": -0.007}, "label": "Ga", "xyz": [4.753323499314845, 4.753323499314845, 10.6233709575]}, {"species": [{"element": "Ga", "occu": 1}], "abc": [0.8782908500000001, 0.12170915, 0.75], "properties": {"magmom": -0.007}, "label": "Ga", "xyz": [6.715037950685155, 0.930536349314845, 10.6233709575]}]}, "task_ids": null, "uncorrected_energy_per_atom": null, "energy_per_atom": -5.7012555215625, "formation_energy_per_atom": -0.497537325624999, "energy_above_hull": 0.016386313671874, "is_stable": false, "equilibrium_reaction_energy_per_atom": null, "decomposes_to": null, "xas": null, "grain_boundaries": null, "band_gap": 0.0, "cbm": null, "vbm": null, "efermi": 3.35801063, "is_gap_direct": null, "is_metal": null, "es_source_calc_id": null, "bandstructure": null, "dos": null, "dos_energy_up": null, "dos_energy_down": null, "is_magnetic": null, "ordering": null, "total_magnetization": 2.9668186, "total_magnetization_normalized_vol": null, "total_magnetization_normalized_formula_units": null, "num_magnetic_sites": null, "num_unique_magnetic_sites": null, "types_of_magnetic_species": null, "bulk_modulus": null, "shear_modulus": null, "universal_anisotropy": null, "homogeneous_poisson": null, "e_total": null, "e_ionic": null, "e_electronic": null, "n": null, "e_ij_max": null, "weighted_surface_energy_EV_PER_ANG2": null, "weighted_surface_energy": null, "weighted_work_function": null, "surface_anisotropy": null, "shape_factor": null, "has_reconstructed": null, "possible_species": null, "has_props": null, "theoretical": null, "database_IDs": null, "fields_not_requested": ["builder_meta", "nsites", "elements", "nelements", "composition", "composition_reduced", "chemsys", "symmetry", "property_name", "deprecated", "deprecation_reasons", "last_updated", "origins", "warnings", "task_ids", "uncorrected_energy_per_atom", "equilibrium_reaction_energy_per_atom", "decomposes_to", "xas", "grain_boundaries", "cbm", "vbm", "is_gap_direct", "is_metal", "es_source_calc_id", "bandstructure", "dos", "dos_energy_up", "dos_energy_down", "is_magnetic", "ordering", "total_magnetization_normalized_vol", "total_magnetization_normalized_formula_units", "num_magnetic_sites", "num_unique_magnetic_sites", "types_of_magnetic_species", "bulk_modulus", "shear_modulus", "universal_anisotropy", "homogeneous_poisson", "e_total", "e_ionic", "e_electronic", "n", "e_ij_max", "weighted_surface_energy_EV_PER_ANG2", "weighted_surface_energy", "weighted_work_function", "surface_anisotropy", "shape_factor", "has_reconstructed", "possible_species", "has_props", "theoretical", "database_IDs"]}