{
  "builder_meta": null,
  "nsites": null,
  "elements": null,
  "nelements": null,
  "composition": null,
  "composition_reduced": null,
  "formula_pretty": "Y5Ge4",
  "formula_anonymous": "A4B5",
  "chemsys": null,
  "volume": 871.7759788184457,
  "density": 5.600725171239905,
  "density_atomic": 24.21599941162349,
  "symmetry": null,
  "property_name": null,
  "material_id": "mp-13360",
  "deprecated": null,
  "deprecation_reasons": null,
  "last_updated": null,
  "origins": null,
  "warnings": null,
  "structure": {
    "@module": "pymatgen.core.structure",
    "@class": "Structure",
    "charge": 0,
    "lattice": {
      "matrix": [
        [7.66600837, 0.0, 0.0],
        [0.0, 7.72589184, 0.0],
        [0.0, 0.0, 14.71929418]
      ],
      "pbc": [true, true, true],
      "a": 7.66600837,
      "b": 7.72589184,
      "c": 14.71929418,
      "alpha": 90.0,
      "beta": 90.0,
      "gamma": 90.0,
      "volume": 871.7759788184457
    },
    "properties": {},
    "sites": [
      {
        "species": [{ "element": "Y", "occu": 1 }],
        "abc": [0.78149172, 0.50280421, 0.25],
        "properties": { "magmom": -0.0 },
        "label": "Y",
        "xyz": [5.990922066605696, 3.884610943156646, 3.679823545]
      },
      {
        "species": [{ "element": "Y", "occu": 1 }],
        "abc": [0.28149172, 0.99719579, 0.25],
        "properties": { "magmom": -0.0 },
        "label": "Y",
        "xyz": [2.1579178816056963, 7.704226816843354, 3.679823545]
      },
      {
        "species": [{ "element": "Y", "occu": 1 }],
        "abc": [0.71850828, 0.00280421, 0.75],
        "properties": { "magmom": -0.0 },
        "label": "Y",
        "xyz": [5.508090488394304, 0.021665023156646403, 11.039470635]
      },
      {
        "species": [{ "element": "Y", "occu": 1 }],
        "abc": [0.21850828, 0.49719579, 0.75],
        "properties": { "magmom": -0.0 },
        "label": "Y",
        "xyz": [1.6750863033943035, 3.841280896843354, 11.039470635]
      },
      {
        "species": [{ "element": "Y", "occu": 1 }],
        "abc": [0.3831058, 0.15913199, 0.88432119],
        "properties": { "magmom": -0.0 },
        "label": "Y",
        "xyz": [2.936892269395546, 1.2294365430239615, 13.016583745217675]
      },
      {
        "species": [{ "element": "Y", "occu": 1 }],
        "abc": [0.883105799999999, 0.34086801, 0.61567881],
        "properties": { "magmom": -0.0 },
        "label": "Y",
        "xyz": [6.769896454395539, 2.6335093769760385, 9.062357524782326]
      },
      {
        "species": [{ "element": "Y", "occu": 1 }],
        "abc": [0.116894199999999, 0.65913199, 0.11567881],
        "properties": { "magmom": -0.0 },
        "label": "Y",
        "xyz": [0.8961119156044464, 5.092382463023962, 1.7027104347823259]
      },
      {
        "species": [{ "element": "Y", "occu": 1 }],
        "abc": [0.6168942, 0.84086801, 0.38432119000000003],
        "properties": { "magmom": -0.0 },
        "label": "Y",
        "xyz": [4.729116100604454, 6.4964552969760385, 5.656936655217675]
      },
      {
        "species": [{ "element": "Y", "occu": 1 }],
        "abc": [0.6168942, 0.84086801, 0.11567881],
        "properties": { "magmom": -0.0 },
        "label": "Y",
        "xyz": [4.729116100604454, 6.4964552969760385, 1.7027104347823259]
      },
      {
        "species": [{ "element": "Y", "occu": 1 }],
        "abc": [0.116894199999999, 0.65913199, 0.38432119000000003],
        "properties": { "magmom": -0.0 },
        "label": "Y",
        "xyz": [0.8961119156044464, 5.092382463023962, 5.656936655217675]
      },
      {
        "species": [{ "element": "Y", "occu": 1 }],
        "abc": [0.883105799999999, 0.34086801, 0.88432119],
        "properties": { "magmom": -0.0 },
        "label": "Y",
        "xyz": [6.769896454395539, 2.6335093769760385, 13.016583745217675]
      },
      {
        "species": [{ "element": "Y", "occu": 1 }],
        "abc": [0.3831058, 0.15913199, 0.61567881],
        "properties": { "magmom": -0.0 },
        "label": "Y",
        "xyz": [2.936892269395546, 1.2294365430239615, 9.062357524782326]
      },
      {
        "species": [{ "element": "Y", "occu": 1 }],
        "abc": [0.03561794, 0.82553625, 0.89704767],
        "properties": { "magmom": -0.0 },
        "label": "Y",
        "xyz": [0.2730474261621578, 6.3780037774992, 13.20390854821356]
      },
      {
        "species": [{ "element": "Y", "occu": 1 }],
        "abc": [0.53561794, 0.67446375, 0.60295233],
        "properties": { "magmom": -0.0 },
        "label": "Y",
        "xyz": [4.106051611162157, 5.2108339825008, 8.87503272178644]
      },
      {
        "species": [{ "element": "Y", "occu": 1 }],
        "abc": [0.46438206, 0.32553625, 0.10295233000000001],
        "properties": { "magmom": -0.0 },
        "label": "Y",
        "xyz": [3.559956758837842, 2.5150578574992, 1.5153856317864396]
      },
      {
        "species": [{ "element": "Y", "occu": 1 }],
        "abc": [0.96438206, 0.17446375, 0.39704767],
        "properties": { "magmom": -0.0 },
        "label": "Y",
        "xyz": [7.392960943837843, 1.3478880625008, 5.844261458213561]
      },
      {
        "species": [{ "element": "Y", "occu": 1 }],
        "abc": [0.96438206, 0.17446375, 0.10295233000000001],
        "properties": { "magmom": -0.0 },
        "label": "Y",
        "xyz": [7.392960943837843, 1.3478880625008, 1.5153856317864396]
      },
      {
        "species": [{ "element": "Y", "occu": 1 }],
        "abc": [0.46438206, 0.32553625, 0.39704767],
        "properties": { "magmom": -0.0 },
        "label": "Y",
        "xyz": [3.559956758837842, 2.5150578574992, 5.844261458213561]
      },
      {
        "species": [{ "element": "Y", "occu": 1 }],
        "abc": [0.53561794, 0.67446375, 0.89704767],
        "properties": { "magmom": -0.0 },
        "label": "Y",
        "xyz": [4.106051611162157, 5.2108339825008, 13.20390854821356]
      },
      {
        "species": [{ "element": "Y", "occu": 1 }],
        "abc": [0.03561794, 0.82553625, 0.60295233],
        "properties": { "magmom": -0.0 },
        "label": "Y",
        "xyz": [0.2730474261621578, 6.3780037774992, 8.87503272178644]
      },
      {
        "species": [{ "element": "Ge", "occu": 1 }],
        "abc": [0.3395742, 0.8631582600000001, 0.75],
        "properties": { "magmom": -0.0 },
        "label": "Ge",
        "xyz": [2.603178659436054, 6.668667357562599, 11.039470635]
      },
      {
        "species": [{ "element": "Ge", "occu": 1 }],
        "abc": [0.839574199999999, 0.63684174, 0.75],
        "properties": { "magmom": -0.0 },
        "label": "Ge",
        "xyz": [6.436182844436047, 4.920170402437402, 11.039470635]
      },
      {
        "species": [{ "element": "Ge", "occu": 1 }],
        "abc": [0.160425799999999, 0.36315826, 0.25],
        "properties": { "magmom": -0.0 },
        "label": "Ge",
        "xyz": [1.2298255255639383, 2.8057214375625983, 3.679823545]
      },
      {
        "species": [{ "element": "Ge", "occu": 1 }],
        "abc": [0.6604258, 0.13684174, 0.25],
        "properties": { "magmom": -0.0 },
        "label": "Ge",
        "xyz": [5.062829710563946, 1.0572244824374015, 3.679823545]
      },
      {
        "species": [{ "element": "Ge", "occu": 1 }],
        "abc": [0.08762747, 0.11773543, 0.75],
        "properties": { "magmom": -0.0 },
        "label": "Ge",
        "xyz": [0.6717529184619239, 0.9096111979158912, 11.039470635]
      },
      {
        "species": [{ "element": "Ge", "occu": 1 }],
        "abc": [0.58762747, 0.38226457, 0.75],
        "properties": { "magmom": -0.0 },
        "label": "Ge",
        "xyz": [4.504757103461924, 2.953334722084109, 11.039470635]
      },
      {
        "species": [{ "element": "Ge", "occu": 1 }],
        "abc": [0.41237253, 0.61773543, 0.25],
        "properties": { "magmom": -0.0 },
        "label": "Ge",
        "xyz": [3.161251266538076, 4.772557117915891, 3.679823545]
      },
      {
        "species": [{ "element": "Ge", "occu": 1 }],
        "abc": [0.9123725300000001, 0.88226357, 0.25],
        "properties": { "magmom": -0.0 },
        "label": "Ge",
        "xyz": [6.994255451538077, 6.816272916192269, 3.679823545]
      },
      {
        "species": [{ "element": "Ge", "occu": 1 }],
        "abc": [0.22542431000000002, 0.47108748, 0.9543451],
        "properties": { "magmom": -0.0 },
        "label": "Ge",
        "xyz": [1.728104647261475, 3.639570917658163, 14.047286276141518]
      },
      {
        "species": [{ "element": "Ge", "occu": 1 }],
        "abc": [0.72542431, 0.02891252, 0.545654899999999],
        "properties": { "magmom": -0.0 },
        "label": "Ge",
        "xyz": [5.561108832261475, 0.2233750023418368, 8.031654993858469]
      },
      {
        "species": [{ "element": "Ge", "occu": 1 }],
        "abc": [0.27457569, 0.97108748, 0.0456549],
        "properties": { "magmom": -0.0 },
        "label": "Ge",
        "xyz": [2.1048995377385253, 7.502516837658163, 0.672007903858482]
      },
      {
        "species": [{ "element": "Ge", "occu": 1 }],
        "abc": [0.77457569, 0.52891252, 0.4543451],
        "properties": { "magmom": -0.0 },
        "label": "Ge",
        "xyz": [5.937903722738525, 4.086320922341836, 6.687639186141518]
      },
      {
        "species": [{ "element": "Ge", "occu": 1 }],
        "abc": [0.77457569, 0.52891252, 0.0456549],
        "properties": { "magmom": -0.0 },
        "label": "Ge",
        "xyz": [5.937903722738525, 4.086320922341836, 0.672007903858482]
      },
      {
        "species": [{ "element": "Ge", "occu": 1 }],
        "abc": [0.27457569, 0.97108748, 0.4543451],
        "properties": { "magmom": -0.0 },
        "label": "Ge",
        "xyz": [2.1048995377385253, 7.502516837658163, 6.687639186141518]
      },
      {
        "species": [{ "element": "Ge", "occu": 1 }],
        "abc": [0.72542431, 0.02891252, 0.9543451],
        "properties": { "magmom": -0.0 },
        "label": "Ge",
        "xyz": [5.561108832261475, 0.2233750023418368, 14.047286276141518]
      },
      {
        "species": [{ "element": "Ge", "occu": 1 }],
        "abc": [0.22542431000000002, 0.47108748, 0.545654899999999],
        "properties": { "magmom": -0.0 },
        "label": "Ge",
        "xyz": [1.728104647261475, 3.639570917658163, 8.031654993858469]
      }
    ]
  },
  "task_ids": null,
  "uncorrected_energy_per_atom": null,
  "energy_per_atom": -18.446776557777778,
  "formation_energy_per_atom": -0.9961193222222211,
  "energy_above_hull": 0.0,
  "is_stable": true,
  "equilibrium_reaction_energy_per_atom": null,
  "decomposes_to": null,
  "xas": null,
  "grain_boundaries": null,
  "band_gap": 0.0,
  "cbm": null,
  "vbm": null,
  "efermi": 3.62073354,
  "is_gap_direct": null,
  "is_metal": null,
  "es_source_calc_id": null,
  "bandstructure": null,
  "dos": null,
  "dos_energy_up": null,
  "dos_energy_down": null,
  "is_magnetic": null,
  "ordering": null,
  "total_magnetization": 0.001643,
  "total_magnetization_normalized_vol": null,
  "total_magnetization_normalized_formula_units": null,
  "num_magnetic_sites": null,
  "num_unique_magnetic_sites": null,
  "types_of_magnetic_species": null,
  "bulk_modulus": null,
  "shear_modulus": null,
  "universal_anisotropy": null,
  "homogeneous_poisson": null,
  "e_total": null,
  "e_ionic": null,
  "e_electronic": null,
  "n": null,
  "e_ij_max": null,
  "weighted_surface_energy_EV_PER_ANG2": null,
  "weighted_surface_energy": null,
  "weighted_work_function": null,
  "surface_anisotropy": null,
  "shape_factor": null,
  "has_reconstructed": null,
  "possible_species": null,
  "has_props": null,
  "theoretical": null,
  "database_IDs": null,
  "fields_not_requested": [
    "builder_meta",
    "nsites",
    "elements",
    "nelements",
    "composition",
    "composition_reduced",
    "chemsys",
    "symmetry",
    "property_name",
    "deprecated",
    "deprecation_reasons",
    "last_updated",
    "origins",
    "warnings",
    "task_ids",
    "uncorrected_energy_per_atom",
    "equilibrium_reaction_energy_per_atom",
    "decomposes_to",
    "xas",
    "grain_boundaries",
    "cbm",
    "vbm",
    "is_gap_direct",
    "is_metal",
    "es_source_calc_id",
    "bandstructure",
    "dos",
    "dos_energy_up",
    "dos_energy_down",
    "is_magnetic",
    "ordering",
    "total_magnetization_normalized_vol",
    "total_magnetization_normalized_formula_units",
    "num_magnetic_sites",
    "num_unique_magnetic_sites",
    "types_of_magnetic_species",
    "bulk_modulus",
    "shear_modulus",
    "universal_anisotropy",
    "homogeneous_poisson",
    "e_total",
    "e_ionic",
    "e_electronic",
    "n",
    "e_ij_max",
    "weighted_surface_energy_EV_PER_ANG2",
    "weighted_surface_energy",
    "weighted_work_function",
    "surface_anisotropy",
    "shape_factor",
    "has_reconstructed",
    "possible_species",
    "has_props",
    "theoretical",
    "database_IDs"
  ]
}
