{
  "builder_meta": null,
  "nsites": null,
  "elements": null,
  "nelements": null,
  "composition": null,
  "composition_reduced": null,
  "formula_pretty": "Y5Ge3",
  "formula_anonymous": "A3B5",
  "chemsys": null,
  "volume": 402.6473927359888,
  "density": 5.463951234305606,
  "density_atomic": 25.1654620459993,
  "symmetry": null,
  "property_name": null,
  "material_id": "mp-17751",
  "deprecated": null,
  "deprecation_reasons": null,
  "last_updated": null,
  "origins": null,
  "warnings": null,
  "structure": {
    "@module": "pymatgen.core.structure",
    "@class": "Structure",
    "charge": 0,
    "lattice": {
      "matrix": [
        [8.49320136, -1e-8, 0.0],
        [-4.24660119, 7.3553283, -0.0],
        [0.0, -0.0, 6.44542277]
      ],
      "pbc": [true, true, true],
      "a": 8.49320136,
      "b": 8.493201755974615,
      "c": 6.44542277,
      "alpha": 90.0,
      "beta": 90.0,
      "gamma": 120.00000249794509,
      "volume": 402.6473927359888
    },
    "properties": {},
    "sites": [
      {
        "species": [{ "element": "Y", "occu": 1 }],
        "abc": [0.0, 0.75703064, 0.75],
        "properties": { "magmom": 0.078 },
        "label": "Y",
        "xyz": [-3.2148072166904615, 5.568208890359112, 4.8340670775]
      },
      {
        "species": [{ "element": "Y", "occu": 1 }],
        "abc": [-0.0, 0.24296936, 0.25],
        "properties": { "magmom": 0.078 },
        "label": "Y",
        "xyz": [-1.0317939733095383, 1.787119409640888, 1.6113556925]
      },
      {
        "species": [{ "element": "Y", "occu": 1 }],
        "abc": [0.75703064, 0.75703064, 0.25],
        "properties": { "magmom": 0.078 },
        "label": "Y",
        "xyz": [3.2148064445192093, 5.568208882788806, 1.6113556925]
      },
      {
        "species": [{ "element": "Y", "occu": 1 }],
        "abc": [0.75703064, 0.0, 0.75],
        "properties": { "magmom": 0.078 },
        "label": "Y",
        "xyz": [6.429613661209671, -7.5703064e-9, 4.8340670775]
      },
      {
        "species": [{ "element": "Y", "occu": 1 }],
        "abc": [0.24296936, 0.24296936, 0.75],
        "properties": { "magmom": 0.078 },
        "label": "Y",
        "xyz": [1.0317937254807914, 1.7871194072111944, 4.8340670775]
      },
      {
        "species": [{ "element": "Y", "occu": 1 }],
        "abc": [0.24296936, -0.0, 0.25],
        "properties": { "magmom": 0.078 },
        "label": "Y",
        "xyz": [2.0635876987903297, -2.4296936e-9, 1.6113556925]
      },
      {
        "species": [{ "element": "Y", "occu": 1 }],
        "abc": [0.333333, 0.666667, 0.5],
        "properties": { "magmom": 0.114 },
        "label": "Y",
        "xyz": [-4.586600850231548e-6, 4.90355464844277, 3.222711385]
      },
      {
        "species": [{ "element": "Y", "occu": 1 }],
        "abc": [0.666667, 0.333333, -0.0],
        "properties": { "magmom": 0.114 },
        "label": "Y",
        "xyz": [4.246604756600851, 2.45177364155723, 0.0]
      },
      {
        "species": [{ "element": "Y", "occu": 1 }],
        "abc": [0.666667, 0.333333, 0.5],
        "properties": { "magmom": 0.114 },
        "label": "Y",
        "xyz": [4.246604756600851, 2.45177364155723, 3.222711385]
      },
      {
        "species": [{ "element": "Y", "occu": 1 }],
        "abc": [0.333333, 0.666667, -0.0],
        "properties": { "magmom": 0.114 },
        "label": "Y",
        "xyz": [-4.586600850231548e-6, 4.90355464844277, 0.0]
      },
      {
        "species": [{ "element": "Ge", "occu": 1 }],
        "abc": [0.39338083, 0.0, 0.75],
        "properties": { "magmom": -0.023 },
        "label": "Ge",
        "xyz": [3.341062600353929, -3.9338083e-9, 4.8340670775]
      },
      {
        "species": [{ "element": "Ge", "occu": 1 }],
        "abc": [0.39338083, 0.39338083, 0.25],
        "properties": { "magmom": -0.023 },
        "label": "Ge",
        "xyz": [1.6705310995527416, 2.8934451476426806, 1.6113556925]
      },
      {
        "species": [{ "element": "Ge", "occu": 1 }],
        "abc": [-0.0, 0.60661917, 0.25],
        "properties": { "magmom": -0.023 },
        "label": "Ge",
        "xyz": [-2.576069689198812, 4.461883148423511, 1.6113556925]
      },
      {
        "species": [{ "element": "Ge", "occu": 1 }],
        "abc": [0.0, 0.39338083, 0.75],
        "properties": { "magmom": -0.023 },
        "label": "Ge",
        "xyz": [-1.6705315008011876, 2.893445151576489, 4.8340670775]
      },
      {
        "species": [{ "element": "Ge", "occu": 1 }],
        "abc": [0.60661917, 0.60661917, 0.75],
        "properties": { "magmom": -0.023 },
        "label": "Ge",
        "xyz": [2.576069070447259, 4.461883142357319, 4.8340670775]
      },
      {
        "species": [{ "element": "Ge", "occu": 1 }],
        "abc": [0.60661917, -0.0, 0.25],
        "properties": { "magmom": -0.023 },
        "label": "Ge",
        "xyz": [5.152138759646071, -6.0661917e-9, 1.6113556925]
      }
    ]
  },
  "task_ids": null,
  "uncorrected_energy_per_atom": null,
  "energy_per_atom": -18.827267784375,
  "formation_energy_per_atom": -0.9292755918750011,
  "energy_above_hull": 0.0,
  "is_stable": true,
  "equilibrium_reaction_energy_per_atom": null,
  "decomposes_to": null,
  "xas": null,
  "grain_boundaries": null,
  "band_gap": 0.0,
  "cbm": null,
  "vbm": null,
  "efermi": 4.31714861,
  "is_gap_direct": null,
  "is_metal": null,
  "es_source_calc_id": null,
  "bandstructure": null,
  "dos": null,
  "dos_energy_up": null,
  "dos_energy_down": null,
  "is_magnetic": null,
  "ordering": null,
  "total_magnetization": 1.2589822,
  "total_magnetization_normalized_vol": null,
  "total_magnetization_normalized_formula_units": null,
  "num_magnetic_sites": null,
  "num_unique_magnetic_sites": null,
  "types_of_magnetic_species": null,
  "bulk_modulus": null,
  "shear_modulus": null,
  "universal_anisotropy": null,
  "homogeneous_poisson": null,
  "e_total": null,
  "e_ionic": null,
  "e_electronic": null,
  "n": null,
  "e_ij_max": null,
  "weighted_surface_energy_EV_PER_ANG2": null,
  "weighted_surface_energy": null,
  "weighted_work_function": null,
  "surface_anisotropy": null,
  "shape_factor": null,
  "has_reconstructed": null,
  "possible_species": null,
  "has_props": null,
  "theoretical": null,
  "database_IDs": null,
  "fields_not_requested": [
    "builder_meta",
    "nsites",
    "elements",
    "nelements",
    "composition",
    "composition_reduced",
    "chemsys",
    "symmetry",
    "property_name",
    "deprecated",
    "deprecation_reasons",
    "last_updated",
    "origins",
    "warnings",
    "task_ids",
    "uncorrected_energy_per_atom",
    "equilibrium_reaction_energy_per_atom",
    "decomposes_to",
    "xas",
    "grain_boundaries",
    "cbm",
    "vbm",
    "is_gap_direct",
    "is_metal",
    "es_source_calc_id",
    "bandstructure",
    "dos",
    "dos_energy_up",
    "dos_energy_down",
    "is_magnetic",
    "ordering",
    "total_magnetization_normalized_vol",
    "total_magnetization_normalized_formula_units",
    "num_magnetic_sites",
    "num_unique_magnetic_sites",
    "types_of_magnetic_species",
    "bulk_modulus",
    "shear_modulus",
    "universal_anisotropy",
    "homogeneous_poisson",
    "e_total",
    "e_ionic",
    "e_electronic",
    "n",
    "e_ij_max",
    "weighted_surface_energy_EV_PER_ANG2",
    "weighted_surface_energy",
    "weighted_work_function",
    "surface_anisotropy",
    "shape_factor",
    "has_reconstructed",
    "possible_species",
    "has_props",
    "theoretical",
    "database_IDs"
  ]
}
