{
  "builder_meta": null,
  "nsites": null,
  "elements": null,
  "nelements": null,
  "composition": null,
  "composition_reduced": null,
  "formula_pretty": "Y5Ir3",
  "formula_anonymous": "A3B5",
  "chemsys": null,
  "volume": 756.4425676061804,
  "density": 8.96675978736393,
  "density_atomic": 23.63883023769314,
  "symmetry": null,
  "property_name": null,
  "material_id": "mp-1198712",
  "deprecated": null,
  "deprecation_reasons": null,
  "last_updated": null,
  "origins": null,
  "warnings": null,
  "structure": {
    "@module": "pymatgen.core.structure",
    "@class": "Structure",
    "charge": 0,
    "lattice": {
      "matrix": [
        [-3.5910000000000014e-5, -5.3540000000000006e-5, 6.38971987],
        [10.8803857, -1.953e-5, -6.168e-5],
        [-1.9560000000000002e-5, 10.88052498, -9.033e-5]
      ],
      "pbc": [true, true, true],
      "a": 6.389719870325214,
      "b": 10.880385700192356,
      "c": 10.880524980392542,
      "alpha": 90.00020584273368,
      "beta": 90.00095575451284,
      "gamma": 90.00064680439583,
      "volume": 756.4425676061804
    },
    "properties": {},
    "sites": [
      {
        "species": [{ "element": "Y", "occu": 1 }],
        "abc": [0.38383741, 0.83810456, 0.54187891],
        "properties": { "magmom": 0.0 },
        "label": "Y",
        "xyz": [9.11887648697592, 5.895890097553184, 2.4525128833151357]
      },
      {
        "species": [{ "element": "Y", "occu": 1 }],
        "abc": [0.88383815, 0.66189207, 0.54188088],
        "properties": { "magmom": 0.0 },
        "label": "Y",
        "xyz": [7.20159867555342, 5.895888203577705, 5.647388415316272]
      },
      {
        "species": [{ "element": "Y", "occu": 1 }],
        "abc": [0.883842799999999, 0.83810775, 0.9581143400000001],
        "properties": { "magmom": -0.0 },
        "label": "Y",
        "xyz": [9.118885098647736, 10.424723320878345, 5.647369660162078]
      },
      {
        "species": [{ "element": "Y", "occu": 1 }],
        "abc": [0.38384455, 0.6618874100000001, 0.95811117],
        "properties": { "magmom": -0.0 },
        "label": "Y",
        "xyz": [7.201557786261762, 10.424719041103703, 2.452531776728774]
      },
      {
        "species": [{ "element": "Y", "occu": 1 }],
        "abc": [0.883835199999999, 0.54184007, 0.83807826],
        "properties": { "magmom": -0.0 },
        "label": "Y",
        "xyz": [5.895380817982201, 9.11867354045176, 5.6473502149406745]
      },
      {
        "species": [{ "element": "Y", "occu": 1 }],
        "abc": [0.38384517, 0.95815628, 0.83808062],
        "properties": { "magmom": 0.0 },
        "label": "Y",
        "xyz": [10.425079710540212, 9.118717857301338, 2.4525283068507733]
      },
      {
        "species": [{ "element": "Y", "occu": 1 }],
        "abc": [0.38383501000000003, 0.54184325, 0.66190579],
        "properties": { "magmom": -0.0 },
        "label": "Y",
        "xyz": [5.895436818549063, 7.201851349776527, 2.4525049793569784]
      },
      {
        "species": [{ "element": "Y", "occu": 1 }],
        "abc": [0.8838448600000001, 0.9581513500000001, 0.66190152],
        "properties": { "magmom": -0.0 },
        "label": "Y",
        "xyz": [10.42501156131304, 7.2017699889103, 5.647402175599799]
      },
      {
        "species": [{ "element": "Y", "occu": 1 }],
        "abc": [0.6161628, 0.16189061, 0.45822404],
        "properties": { "magmom": -0.0 },
        "label": "Y",
        "xyz": [1.7614011887399066, 4.985681962576594, 3.9370563095244786]
      },
      {
        "species": [{ "element": "Y", "occu": 1 }],
        "abc": [0.11616131, 0.33811478, 0.45822299],
        "properties": { "magmom": -0.0 },
        "label": "Y",
        "xyz": [3.6788060830763194, 4.9856938664471, 0.7421759844299127]
      },
      {
        "species": [{ "element": "Y", "occu": 1 }],
        "abc": [0.11615515, 0.16188806, 0.04178222],
        "properties": { "magmom": -0.0 },
        "label": "Y",
        "xyz": [1.7613995446330821, 0.45460310780931285, 0.7421851105143572]
      },
      {
        "species": [{ "element": "Y", "occu": 1 }],
        "abc": [0.61615438, 0.33811962, 0.04178488],
        "properties": { "magmom": 0.0 },
        "label": "Y",
        "xyz": [3.6788489349213953, 0.4546018382446187, 3.937029255227159]
      },
      {
        "species": [{ "element": "Y", "occu": 1 }],
        "abc": [0.11616044, 0.45818645, 0.16187566],
        "properties": { "magmom": -0.0 },
        "label": "Y",
        "xyz": [4.985237960904455, 1.761276994672661, 0.7421897884073391]
      },
      {
        "species": [{ "element": "Y", "occu": 1 }],
        "abc": [0.61615117, 0.041820210000000003, 0.16187313],
        "properties": { "magmom": 0.0 },
        "label": "Y",
        "xyz": [0.45499472262805957, 1.7612308290734446, 3.9370161724023625]
      },
      {
        "species": [{ "element": "Y", "occu": 1 }],
        "abc": [0.61616034, 0.45818314, 0.33814126],
        "properties": { "magmom": 0.0 },
        "label": "Y",
        "xyz": [4.985180544076243, 3.6791124886573474, 3.9370331625678645]
      },
      {
        "species": [{ "element": "Y", "occu": 1 }],
        "abc": [0.11615124, 0.041825640000000004, 0.33814479000000003],
        "properties": { "magmom": 0.0 },
        "label": "Y",
        "xyz": [0.45506831024622724, 3.679185798859716, 0.7421407617287828]
      },
      {
        "species": [{ "element": "Y", "occu": 1 }],
        "abc": [0.50000639, 0.74999777, 0.24999779],
        "properties": { "magmom": 0.0 },
        "label": "Y",
        "xyz": [8.160242166553651, 2.720065781241226, 3.1948319231471456]
      },
      {
        "species": [{ "element": "Y", "occu": 1 }],
        "abc": [3.91e-6, 0.7500069500000001, 0.25000625],
        "properties": { "magmom": 0.0 },
        "label": "Y",
        "xyz": [8.160360003417956, 2.72018460043605, -4.38596885468e-5]
      },
      {
        "species": [{ "element": "Y", "occu": 1 }],
        "abc": [7.09e-6, 0.24999478, 0.74999313],
        "properties": { "magmom": 0.0 },
        "label": "Y",
        "xyz": [2.720024959266421, 8.160314103015736, -3.7863443584999997e-5]
      },
      {
        "species": [{ "element": "Y", "occu": 1 }],
        "abc": [0.50000387, 0.25000443, 0.75000199],
        "properties": { "magmom": 0.0 },
        "label": "Y",
        "xyz": [2.720111999930755, 8.160383734450994, 3.1948014952628982]
      },
      {
        "species": [{ "element": "Ir", "occu": 1 }],
        "abc": [0.24999817, 0.9034448700000001, 0.09652891],
        "properties": { "magmom": -0.0 },
        "label": "Ir",
        "xyz": [9.829817778746596, 1.050254187366839, 1.5973538303766162]
      },
      {
        "species": [{ "element": "Ir", "occu": 1 }],
        "abc": [0.74999855, 0.59654892, 0.09652965000000001],
        "properties": { "magmom": 0.0 },
        "label": "Ir",
        "xyz": [6.49065351795056, 1.0502414626128826, 4.792235122745518]
      },
      {
        "species": [{ "element": "Ir", "occu": 1 }],
        "abc": [0.7499968, 0.90344567, 0.40348092],
        "properties": { "magmom": -0.0 },
        "label": "Ir",
        "xyz": [9.829802524123034, 4.390026429890775, 4.792177284435987]
      },
      {
        "species": [{ "element": "Ir", "occu": 1 }],
        "abc": [0.2499997, 0.59654868, 0.40348156],
        "properties": { "magmom": -0.0 },
        "label": "Ir",
        "xyz": [6.490662857637336, 4.390066156969711, 1.5973548089721419]
      },
      {
        "species": [{ "element": "Ir", "occu": 1 }],
        "abc": [0.75000462, 0.09655222000000001, 0.9034136500000001],
        "properties": { "magmom": -0.0 },
        "label": "Ir",
        "xyz": [1.0504807903543558, 9.829572745185768, 4.792231862309866]
      },
      {
        "species": [{ "element": "Ir", "occu": 1 }],
        "abc": [0.24999593, 0.40345092, 0.9034162800000001],
        "properties": { "magmom": 0.0 },
        "label": "Ir",
        "xyz": [4.3896749724435615, 9.829622137700115, 1.5972974708948113]
      },
      {
        "species": [{ "element": "Ir", "occu": 1 }],
        "abc": [0.25000007, 0.09654199000000001, 0.59657885],
        "properties": { "magmom": -0.0 },
        "label": "Ir",
        "xyz": [1.0503934408607234, 6.491075809495861, 1.5973705711029274]
      },
      {
        "species": [{ "element": "Ir", "occu": 1 }],
        "abc": [0.74999895, 0.40345518, 0.59657189],
        "properties": { "magmom": 0.0 },
        "label": "Ir",
        "xyz": [4.389709369654463, 6.490967317087364, 4.792204419839811]
      },
      {
        "species": [{ "element": "Ir", "occu": 1 }],
        "abc": [0.13037255, 0.74999363, 0.7499909300000001],
        "properties": { "magmom": 0.0 },
        "label": "Ir",
        "xyz": [8.16020061544223, 8.16027342111651, 0.8329300669497633]
      },
      {
        "species": [{ "element": "Ir", "occu": 1 }],
        "abc": [0.63037211, 0.74999509, 0.74998949],
        "properties": { "magmom": -0.0 },
        "label": "Ir",
        "xyz": [8.160198545849319, 8.160230983155584, 4.027787190513044]
      },
      {
        "species": [{ "element": "Ir", "occu": 1 }],
        "abc": [0.86963208, 0.2500076, 0.25000949],
        "properties": { "magmom": 0.0 },
        "label": "Ir",
        "xyz": [2.7201429972577027, 2.720183058432069, 5.556667377339431]
      },
      {
        "species": [{ "element": "Ir", "occu": 1 }],
        "abc": [0.36963222, 0.25000606000000003, 0.25001075],
        "properties": { "magmom": -0.0 },
        "label": "Ir",
        "xyz": [2.720144196434052, 2.720223537916125, 2.361808336881383]
      }
    ]
  },
  "task_ids": null,
  "uncorrected_energy_per_atom": null,
  "energy_per_atom": -8.1353278021875,
  "formation_energy_per_atom": -0.7527327971875001,
  "energy_above_hull": 0.0,
  "is_stable": true,
  "equilibrium_reaction_energy_per_atom": null,
  "decomposes_to": null,
  "xas": null,
  "grain_boundaries": null,
  "band_gap": 0.0,
  "cbm": null,
  "vbm": null,
  "efermi": 4.83159703,
  "is_gap_direct": null,
  "is_metal": null,
  "es_source_calc_id": null,
  "bandstructure": null,
  "dos": null,
  "dos_energy_up": null,
  "dos_energy_down": null,
  "is_magnetic": null,
  "ordering": null,
  "total_magnetization": 1e-7,
  "total_magnetization_normalized_vol": null,
  "total_magnetization_normalized_formula_units": null,
  "num_magnetic_sites": null,
  "num_unique_magnetic_sites": null,
  "types_of_magnetic_species": null,
  "bulk_modulus": null,
  "shear_modulus": null,
  "universal_anisotropy": null,
  "homogeneous_poisson": null,
  "e_total": null,
  "e_ionic": null,
  "e_electronic": null,
  "n": null,
  "e_ij_max": null,
  "weighted_surface_energy_EV_PER_ANG2": null,
  "weighted_surface_energy": null,
  "weighted_work_function": null,
  "surface_anisotropy": null,
  "shape_factor": null,
  "has_reconstructed": null,
  "possible_species": null,
  "has_props": null,
  "theoretical": null,
  "database_IDs": null,
  "fields_not_requested": [
    "builder_meta",
    "nsites",
    "elements",
    "nelements",
    "composition",
    "composition_reduced",
    "chemsys",
    "symmetry",
    "property_name",
    "deprecated",
    "deprecation_reasons",
    "last_updated",
    "origins",
    "warnings",
    "task_ids",
    "uncorrected_energy_per_atom",
    "equilibrium_reaction_energy_per_atom",
    "decomposes_to",
    "xas",
    "grain_boundaries",
    "cbm",
    "vbm",
    "is_gap_direct",
    "is_metal",
    "es_source_calc_id",
    "bandstructure",
    "dos",
    "dos_energy_up",
    "dos_energy_down",
    "is_magnetic",
    "ordering",
    "total_magnetization_normalized_vol",
    "total_magnetization_normalized_formula_units",
    "num_magnetic_sites",
    "num_unique_magnetic_sites",
    "types_of_magnetic_species",
    "bulk_modulus",
    "shear_modulus",
    "universal_anisotropy",
    "homogeneous_poisson",
    "e_total",
    "e_ionic",
    "e_electronic",
    "n",
    "e_ij_max",
    "weighted_surface_energy_EV_PER_ANG2",
    "weighted_surface_energy",
    "weighted_work_function",
    "surface_anisotropy",
    "shape_factor",
    "has_reconstructed",
    "possible_species",
    "has_props",
    "theoretical",
    "database_IDs"
  ]
}
