{"builder_meta": null, "nsites": null, "elements": null, "nelements": null, "composition": null, "composition_reduced": null, "formula_pretty": "Y5Ir2", "formula_anonymous": "A2B5", "chemsys": null, "volume": 371.0645208989625, "density": 7.419334287556518, "density_atomic": 26.504608635640178, "symmetry": null, "property_name": null, "material_id": "mp-1104365", "deprecated": null, "deprecation_reasons": null, "last_updated": null, "origins": null, "warnings": null, "structure": {"@module": "pymatgen.core.structure", "@class": "Structure", "charge": 0, "lattice": {"matrix": [[0.0, 6.549304, 0.0], [-0.009876, 0.0, 7.231263], [7.836272, -3.274652, -0.916516999999999]], "pbc": [true, true, true], "a": 6.549304, "b": 7.231269744003815, "c": 8.542277681647734, "alpha": 96.23142698656197, "beta": 112.54112542993148, "gamma": 90.0, "volume": 371.0645208989625}, "properties": {}, "sites": [{"species": [{"element": "Y", "occu": 1}], "abc": [0.970097, 0.918458, 0.181747], "properties": {"magmom": 0.001}, "label": "Y", "xyz": [1.415148235976, 5.758301985444, 6.475037137255001]}, {"species": [{"element": "Y", "occu": 1}], "abc": [0.788349, 0.581542, 0.818253], "properties": {"magmom": 0.0}, "label": "Y", "xyz": [6.406309764024001, 2.4836434361399995, 3.455340362745001]}, {"species": [{"element": "Y", "occu": 1}], "abc": [0.029903, 0.081541999999999, 0.818253], "properties": {"magmom": 0.001}, "label": "Y", "xyz": [6.411247764024001, -2.483649985444, -0.16029113725500632]}, {"species": [{"element": "Y", "occu": 1}], "abc": [0.211650999999999, 0.418458, 0.181747], "properties": {"magmom": 0.0}, "label": "Y", "xyz": [1.420086235976, 0.7910085638599935, 2.8594056372550005]}, {"species": [{"element": "Y", "occu": 1}], "abc": [0.653864999999999, 0.818946, 0.442567999999999], "properties": {"magmom": 0.001}, "label": "Y", "xyz": [3.459995315799992, 2.8331044736239974, 5.5163928131420015]}, {"species": [{"element": "Y", "occu": 1}], "abc": [0.211295999999999, 0.681053999999999, 0.557431999999999], "properties": {"magmom": 0.001}, "label": "Y", "xyz": [4.361462684199992, -0.4415540756800034, 4.413984686857995]}, {"species": [{"element": "Y", "occu": 1}], "abc": [0.346134999999999, 0.181054, 0.557431999999999], "properties": {"magmom": 0.001}, "label": "Y", "xyz": [4.366400684199992, 0.4415475263759969, 0.7983531868580015]}, {"species": [{"element": "Y", "occu": 1}], "abc": [0.788704, 0.318946, 0.442567999999999], "properties": {"magmom": 0.001}, "label": "Y", "xyz": [3.464933315799992, 3.7162060756800033, 1.9007613131420014]}, {"species": [{"element": "Y", "occu": 1}], "abc": [0.427241, 0.75, 0.0], "properties": {"magmom": 0.0}, "label": "Y", "xyz": [-0.0074069999999999995, 2.798131190264, 5.423447250000001]}, {"species": [{"element": "Y", "occu": 1}], "abc": [0.572759, 0.25, 0.0], "properties": {"magmom": 0.001}, "label": "Y", "xyz": [-0.002469, 3.7511728097360004, 1.80781575]}, {"species": [{"element": "Ir", "occu": 1}], "abc": [0.8278000000000001, 0.573238999999999, 0.218673999999999], "properties": {"magmom": -0.0}, "label": "Ir", "xyz": [1.7079276349639922, 4.705432599752005, 3.9448235323989946]}, {"species": [{"element": "Ir", "occu": 1}], "abc": [0.609125, 0.926761, 0.781326], "properties": {"magmom": 0.0}, "label": "Ir", "xyz": [6.113530365036, 1.4307740504480004, 5.985553967601001]}, {"species": [{"element": "Ir", "occu": 1}], "abc": [0.17220000000000002, 0.426761, 0.781326], "properties": {"magmom": -0.001}, "label": "Ir", "xyz": [6.118468365036, -1.4307805997519998, 2.369922467601001]}, {"species": [{"element": "Ir", "occu": 1}], "abc": [0.390875, 0.073239, 0.218673999999999], "properties": {"magmom": -0.0}, "label": "Ir", "xyz": [1.7128656349639924, 1.8438779495520032, 0.3291920323990011]}]}, "task_ids": null, "uncorrected_energy_per_atom": null, "energy_per_atom": -7.786755097857143, "formation_energy_per_atom": -0.6121371178571431, "energy_above_hull": 0.0, "is_stable": true, "equilibrium_reaction_energy_per_atom": null, "decomposes_to": null, "xas": null, "grain_boundaries": null, "band_gap": 0.0, "cbm": null, "vbm": null, "efermi": 4.26734437, "is_gap_direct": null, "is_metal": null, "es_source_calc_id": null, "bandstructure": null, "dos": null, "dos_energy_up": null, "dos_energy_down": null, "is_magnetic": null, "ordering": null, "total_magnetization": 0.0177213, "total_magnetization_normalized_vol": null, "total_magnetization_normalized_formula_units": null, "num_magnetic_sites": null, "num_unique_magnetic_sites": null, "types_of_magnetic_species": null, "bulk_modulus": null, "shear_modulus": null, "universal_anisotropy": null, "homogeneous_poisson": null, "e_total": null, "e_ionic": null, "e_electronic": null, "n": null, "e_ij_max": null, "weighted_surface_energy_EV_PER_ANG2": null, "weighted_surface_energy": null, "weighted_work_function": null, "surface_anisotropy": null, "shape_factor": null, "has_reconstructed": null, "possible_species": null, "has_props": null, "theoretical": null, "database_IDs": null, "fields_not_requested": ["builder_meta", "nsites", "elements", "nelements", "composition", "composition_reduced", "chemsys", "symmetry", "property_name", "deprecated", "deprecation_reasons", "last_updated", "origins", "warnings", "task_ids", "uncorrected_energy_per_atom", "equilibrium_reaction_energy_per_atom", "decomposes_to", "xas", "grain_boundaries", "cbm", "vbm", "is_gap_direct", "is_metal", "es_source_calc_id", "bandstructure", "dos", "dos_energy_up", "dos_energy_down", "is_magnetic", "ordering", "total_magnetization_normalized_vol", "total_magnetization_normalized_formula_units", "num_magnetic_sites", "num_unique_magnetic_sites", "types_of_magnetic_species", "bulk_modulus", "shear_modulus", "universal_anisotropy", "homogeneous_poisson", "e_total", "e_ionic", "e_electronic", "n", "e_ij_max", "weighted_surface_energy_EV_PER_ANG2", "weighted_surface_energy", "weighted_work_function", "surface_anisotropy", "shape_factor", "has_reconstructed", "possible_species", "has_props", "theoretical", "database_IDs"]}