{"builder_meta": null, "nsites": null, "elements": null, "nelements": null, "composition": null, "composition_reduced": null, "formula_pretty": "Y5Pb3", "formula_anonymous": "A3B5", "chemsys": null, "volume": 470.54197051351446, "density": 7.524724171737244, "density_atomic": 29.408873157094654, "symmetry": null, "property_name": null, "material_id": "mp-1188292", "deprecated": null, "deprecation_reasons": null, "last_updated": null, "origins": null, "warnings": null, "structure": {"@module": "pymatgen.core.structure", "@class": "Structure", "charge": 0, "lattice": {"matrix": [[0.0, 0.0, -6.6581125], [-4.51678113, -7.82329527, 0.0], [-4.51675744, 7.8232813199999995, 0.0]], "pbc": [true, true, true], "a": 6.6581125, "b": 9.033563010126649, "c": 9.033539084083063, "alpha": 120.000091379268, "beta": 90.0, "gamma": 90.0, "volume": 470.5419705135144}, "properties": {}, "sites": [{"species": [{"element": "Y", "occu": 1}], "abc": [0.50000641, 0.33333749, 0.66666555], "properties": {"magmom": 0.113}, "label": "Y", "xyz": [-4.5167790677077555, 2.6077145351718536, -3.329098928501125]}, {"species": [{"element": "Y", "occu": 1}], "abc": [0.50000641, 0.66667393, 0.33333445], "properties": {"magmom": 0.113}, "label": "Y", "xyz": [-4.516811083932748, -2.607817827203837, -3.329098928501125]}, {"species": [{"element": "Y", "occu": 1}], "abc": [6.41e-06, 0.66666251, 0.33333445], "properties": {"magmom": 0.113}, "label": "Y", "xyz": [-4.516759502292245, -2.6077284851718536, -4.2678501125e-05]}, {"species": [{"element": "Y", "occu": 1}], "abc": [6.41e-06, 0.33332607000000003, 0.66666555], "properties": {"magmom": 0.113}, "label": "Y", "xyz": [-4.516727486067252, 2.6078038772038368, -4.2678501125e-05]}, {"species": [{"element": "Y", "occu": 1}], "abc": [0.74999115, 0.23886054, 0.0], "properties": {"magmom": 0.081}, "label": "Y", "xyz": [-1.0788807797736102, -1.868676532771646, -4.993525450704375]}, {"species": [{"element": "Y", "occu": 1}], "abc": [0.74999362, 0.76114822, 0.7611460600000001], "properties": {"magmom": 0.081}, "label": "Y", "xyz": [-6.875852046660776, -2.7516305320496315e-05, -4.99354189624225]}, {"species": [{"element": "Y", "occu": 1}], "abc": [0.74999362, 1.16e-06, 0.23885294], "properties": {"magmom": 0.081}, "label": "Y", "xyz": [-1.0788460332769845, 1.8686046687065676, -4.99354189624225]}, {"species": [{"element": "Y", "occu": 1}], "abc": [0.24999115, 0.76113946, -0.0], "properties": {"magmom": 0.081}, "label": "Y", "xyz": [-3.4379003502263896, -5.954618737228354, -1.6644692007043749]}, {"species": [{"element": "Y", "occu": 1}], "abc": [0.24999362, 0.23885178, 0.23885394000000001], "properties": {"magmom": 0.081}, "label": "Y", "xyz": [-2.1576865233392253, 1.3566305320011907e-05, -1.66448564624225]}, {"species": [{"element": "Y", "occu": 1}], "abc": [0.24999362, 0.99999884, 0.76114706], "properties": {"magmom": 0.081}, "label": "Y", "xyz": [-7.954692536723016, -1.8686186187065683, -1.66448564624225]}, {"species": [{"element": "Pb", "occu": 1}], "abc": [0.75001874, 0.606463, -0.0], "properties": {"magmom": -0.023}, "label": "Pb", "xyz": [-2.73926063444319, -4.7445391193300095, -4.99370914802825]}, {"species": [{"element": "Pb", "occu": 1}], "abc": [0.74999553, 0.39354084, 0.39353606], "properties": {"magmom": -0.023}, "label": "Pb", "xyz": [-3.555044766909636, -4.2885179427631925e-05, -4.993554613237125]}, {"species": [{"element": "Pb", "occu": 1}], "abc": [0.74999553, 5.78e-06, 0.60646394], "properties": {"magmom": -0.023}, "label": "Pb", "xyz": [-2.739276620081645, 4.74449279440894, -4.993554613237125]}, {"species": [{"element": "Pb", "occu": 1}], "abc": [0.25001874, 0.393536999999999, 0.0], "properties": {"magmom": -0.023}, "label": "Pb", "xyz": [-1.7775204955568056, -3.0787561506699825, -1.66465289802825]}, {"species": [{"element": "Pb", "occu": 1}], "abc": [0.24999553, 0.60645916, 0.60646394], "properties": {"magmom": -0.023}, "label": "Pb", "xyz": [-5.478493803090364, 2.8935179427591606e-05, -1.6644983632371249]}, {"species": [{"element": "Pb", "occu": 1}], "abc": [0.24999553, 0.99999422, 0.39353606], "properties": {"magmom": -0.023}, "label": "Pb", "xyz": [-6.294261949918355, -4.744506744408941, -1.6644983632371249]}]}, "task_ids": null, "uncorrected_energy_per_atom": null, "energy_per_atom": -34.544914419375, "formation_energy_per_atom": -0.741988528124998, "energy_above_hull": 0.0, "is_stable": true, "equilibrium_reaction_energy_per_atom": null, "decomposes_to": null, "xas": null, "grain_boundaries": null, "band_gap": 0.0, "cbm": null, "vbm": null, "efermi": 5.01113553, "is_gap_direct": null, "is_metal": null, "es_source_calc_id": null, "bandstructure": null, "dos": null, "dos_energy_up": null, "dos_energy_down": null, "is_magnetic": null, "ordering": null, "total_magnetization": 1.4064602, "total_magnetization_normalized_vol": null, "total_magnetization_normalized_formula_units": null, "num_magnetic_sites": null, "num_unique_magnetic_sites": null, "types_of_magnetic_species": null, "bulk_modulus": null, "shear_modulus": null, "universal_anisotropy": null, "homogeneous_poisson": null, "e_total": null, "e_ionic": null, "e_electronic": null, "n": null, "e_ij_max": null, "weighted_surface_energy_EV_PER_ANG2": null, "weighted_surface_energy": null, "weighted_work_function": null, "surface_anisotropy": null, "shape_factor": null, "has_reconstructed": null, "possible_species": null, "has_props": null, "theoretical": null, "database_IDs": null, "fields_not_requested": ["builder_meta", "nsites", "elements", "nelements", "composition", "composition_reduced", "chemsys", "symmetry", "property_name", "deprecated", "deprecation_reasons", "last_updated", "origins", "warnings", "task_ids", "uncorrected_energy_per_atom", "equilibrium_reaction_energy_per_atom", "decomposes_to", "xas", "grain_boundaries", "cbm", "vbm", "is_gap_direct", "is_metal", "es_source_calc_id", "bandstructure", "dos", "dos_energy_up", "dos_energy_down", "is_magnetic", "ordering", "total_magnetization_normalized_vol", "total_magnetization_normalized_formula_units", "num_magnetic_sites", "num_unique_magnetic_sites", "types_of_magnetic_species", "bulk_modulus", "shear_modulus", "universal_anisotropy", "homogeneous_poisson", "e_total", "e_ionic", "e_electronic", "n", "e_ij_max", "weighted_surface_energy_EV_PER_ANG2", "weighted_surface_energy", "weighted_work_function", "surface_anisotropy", "shape_factor", "has_reconstructed", "possible_species", "has_props", "theoretical", "database_IDs"]}