{"builder_meta": null, "nsites": null, "elements": null, "nelements": null, "composition": null, "composition_reduced": null, "formula_pretty": "Y5Pb4", "formula_anonymous": "A4B5", "chemsys": null, "volume": 1457.3324597619642, "density": 5.803515732065253, "density_atomic": 40.481457215610114, "symmetry": null, "property_name": null, "material_id": "mp-672188", "deprecated": null, "deprecation_reasons": null, "last_updated": null, "origins": null, "warnings": null, "structure": {"@module": "pymatgen.core.structure", "@class": "Structure", "charge": 0, "lattice": {"matrix": [[9.062314, 0.0, 0.0], [0.0, 9.182454, 0.0], [0.0, 0.0, 17.513009]], "pbc": [true, true, true], "a": 9.062314, "b": 9.182454, "c": 17.513009, "alpha": 90.0, "beta": 90.0, "gamma": 90.0, "volume": 1457.3324597619642}, "properties": {}, "sites": [{"species": [{"element": "Y", "occu": 1}], "abc": [0.790223, 0.002031, 0.25], "properties": {"magmom": 0.008}, "label": "Y", "xyz": [7.161248956022001, 0.018649564073999998, 4.37825225]}, {"species": [{"element": "Y", "occu": 1}], "abc": [0.473267999999999, 0.819195, 0.400034], "properties": {"magmom": -0.0}, "label": "Y", "xyz": [4.288903222151991, 7.52222040453, 7.005799042306]}, {"species": [{"element": "Y", "occu": 1}], "abc": [0.026732, 0.319195, 0.900034], "properties": {"magmom": -0.0}, "label": "Y", "xyz": [0.242253777848, 2.93099340453, 15.762303542306]}, {"species": [{"element": "Y", "occu": 1}], "abc": [0.026732, 0.319195, 0.599966], "properties": {"magmom": -0.0}, "label": "Y", "xyz": [0.242253777848, 2.93099340453, 10.507209957694]}, {"species": [{"element": "Y", "occu": 1}], "abc": [0.879556, 0.838943, 0.882919], "properties": {"magmom": 0.002}, "label": "Y", "xyz": [7.970812652584001, 7.703555506122, 15.462568393271]}, {"species": [{"element": "Y", "occu": 1}], "abc": [0.473267999999999, 0.819195, 0.099966], "properties": {"magmom": -0.0}, "label": "Y", "xyz": [4.288903222151991, 7.52222040453, 1.750705457694]}, {"species": [{"element": "Y", "occu": 1}], "abc": [0.709777, 0.502031, 0.75], "properties": {"magmom": 0.009000000000000001}, "label": "Y", "xyz": [6.432222043978, 4.609876564074, 13.134756750000001]}, {"species": [{"element": "Y", "occu": 1}], "abc": [0.379556, 0.661057, 0.882919], "properties": {"magmom": 0.002}, "label": "Y", "xyz": [3.4396556525840003, 6.070125493878, 15.462568393271]}, {"species": [{"element": "Y", "occu": 1}], "abc": [0.620444, 0.338943, 0.117080999999999], "properties": {"magmom": 0.002}, "label": "Y", "xyz": [5.622658347416, 3.112328506122, 2.0504406067289827]}, {"species": [{"element": "Y", "occu": 1}], "abc": [0.290223, 0.497969, 0.25], "properties": {"magmom": 0.009000000000000001}, "label": "Y", "xyz": [2.6300919560220004, 4.572577435926, 4.37825225]}, {"species": [{"element": "Y", "occu": 1}], "abc": [0.620444, 0.338943, 0.382919], "properties": {"magmom": 0.002}, "label": "Y", "xyz": [5.622658347416, 3.112328506122, 6.706063893271001]}, {"species": [{"element": "Y", "occu": 1}], "abc": [0.209777, 0.997969, 0.75], "properties": {"magmom": 0.008}, "label": "Y", "xyz": [1.9010650439780001, 9.163804435926, 13.134756750000001]}, {"species": [{"element": "Y", "occu": 1}], "abc": [0.526732, 0.180805, 0.599966], "properties": {"magmom": -0.0}, "label": "Y", "xyz": [4.773410777848, 1.6602335954699998, 10.507209957694]}, {"species": [{"element": "Y", "occu": 1}], "abc": [0.379556, 0.661057, 0.617081], "properties": {"magmom": 0.002}, "label": "Y", "xyz": [3.4396556525840003, 6.070125493878, 10.806945106729]}, {"species": [{"element": "Y", "occu": 1}], "abc": [0.526732, 0.180805, 0.900034], "properties": {"magmom": -0.0}, "label": "Y", "xyz": [4.773410777848, 1.6602335954699998, 15.762303542306]}, {"species": [{"element": "Y", "occu": 1}], "abc": [0.973267999999999, 0.680805, 0.400034], "properties": {"magmom": -0.0}, "label": "Y", "xyz": [8.820060222151993, 6.25146059547, 7.005799042306]}, {"species": [{"element": "Y", "occu": 1}], "abc": [0.973267999999999, 0.680805, 0.099966], "properties": {"magmom": -0.0}, "label": "Y", "xyz": [8.820060222151993, 6.25146059547, 1.750705457694]}, {"species": [{"element": "Y", "occu": 1}], "abc": [0.120444, 0.161057, 0.117080999999999], "properties": {"magmom": 0.002}, "label": "Y", "xyz": [1.091501347416, 1.478898493878, 2.0504406067289827]}, {"species": [{"element": "Y", "occu": 1}], "abc": [0.879556, 0.838943, 0.617081], "properties": {"magmom": 0.002}, "label": "Y", "xyz": [7.970812652584001, 7.703555506122, 10.806945106729]}, {"species": [{"element": "Y", "occu": 1}], "abc": [0.120444, 0.161057, 0.382919], "properties": {"magmom": 0.002}, "label": "Y", "xyz": [1.091501347416, 1.478898493878, 6.706063893271001]}, {"species": [{"element": "Pb", "occu": 1}], "abc": [0.831456, 0.140323, 0.75], "properties": {"magmom": 0.0}, "label": "Pb", "xyz": [7.534915349184001, 1.288509492642, 13.134756750000001]}, {"species": [{"element": "Pb", "occu": 1}], "abc": [0.717834, 0.530370999999999, 0.543566], "properties": {"magmom": 0.0}, "label": "Pb", "xyz": [6.505237107876, 4.870107310433991, 9.519476250094]}, {"species": [{"element": "Pb", "occu": 1}], "abc": [0.9233600000000001, 0.381166, 0.25], "properties": {"magmom": 0.001}, "label": "Pb", "xyz": [8.367778255040001, 3.500039261364, 4.37825225]}, {"species": [{"element": "Pb", "occu": 1}], "abc": [0.217834, 0.969629, 0.956434], "properties": {"magmom": -0.0}, "label": "Pb", "xyz": [1.9740801078760002, 8.903573689565999, 16.750037249906]}, {"species": [{"element": "Pb", "occu": 1}], "abc": [0.282166, 0.469628999999999, 0.043566], "properties": {"magmom": 0.0}, "label": "Pb", "xyz": [2.557076892124, 4.312346689565991, 0.762971750094]}, {"species": [{"element": "Pb", "occu": 1}], "abc": [0.57664, 0.881166, 0.75], "properties": {"magmom": 0.001}, "label": "Pb", "xyz": [5.225692744960001, 8.091266261364, 13.134756750000001]}, {"species": [{"element": "Pb", "occu": 1}], "abc": [0.331456, 0.359676999999999, 0.75], "properties": {"magmom": 0.001}, "label": "Pb", "xyz": [3.003758349184, 3.302717507357991, 13.134756750000001]}, {"species": [{"element": "Pb", "occu": 1}], "abc": [0.07664, 0.618834, 0.75], "properties": {"magmom": 0.001}, "label": "Pb", "xyz": [0.69453574496, 5.682414738636, 13.134756750000001]}, {"species": [{"element": "Pb", "occu": 1}], "abc": [0.782165999999999, 0.030371, 0.456434], "properties": {"magmom": -0.0}, "label": "Pb", "xyz": [7.088233892123991, 0.27888031043399997, 7.9935327499060005]}, {"species": [{"element": "Pb", "occu": 1}], "abc": [0.282166, 0.469628999999999, 0.456434], "properties": {"magmom": 0.0}, "label": "Pb", "xyz": [2.557076892124, 4.312346689565991, 7.9935327499060005]}, {"species": [{"element": "Pb", "occu": 1}], "abc": [0.168544, 0.859676999999999, 0.25], "properties": {"magmom": 0.0}, "label": "Pb", "xyz": [1.527398650816, 7.893944507357991, 4.37825225]}, {"species": [{"element": "Pb", "occu": 1}], "abc": [0.217834, 0.969629, 0.543566], "properties": {"magmom": -0.0}, "label": "Pb", "xyz": [1.9740801078760002, 8.903573689565999, 9.519476250094]}, {"species": [{"element": "Pb", "occu": 1}], "abc": [0.782165999999999, 0.030371, 0.043566], "properties": {"magmom": -0.0}, "label": "Pb", "xyz": [7.088233892123991, 0.27888031043399997, 0.762971750094]}, {"species": [{"element": "Pb", "occu": 1}], "abc": [0.668543999999999, 0.640323, 0.25], "properties": {"magmom": 0.001}, "label": "Pb", "xyz": [6.0585556508159915, 5.8797364926419995, 4.37825225]}, {"species": [{"element": "Pb", "occu": 1}], "abc": [0.717834, 0.530370999999999, 0.956434], "properties": {"magmom": 0.0}, "label": "Pb", "xyz": [6.505237107876, 4.870107310433991, 16.750037249906]}, {"species": [{"element": "Pb", "occu": 1}], "abc": [0.42336, 0.118834, 0.25], "properties": {"magmom": 0.001}, "label": "Pb", "xyz": [3.8366212550400003, 1.091187738636, 4.37825225]}]}, "task_ids": null, "uncorrected_energy_per_atom": null, "energy_per_atom": -36.61860134047618, "formation_energy_per_atom": -0.31765231380951603, "energy_above_hull": 0.367678150476194, "is_stable": false, "equilibrium_reaction_energy_per_atom": null, "decomposes_to": null, "xas": null, "grain_boundaries": null, "band_gap": 0.0, "cbm": null, "vbm": null, "efermi": 3.22131999, "is_gap_direct": null, "is_metal": null, "es_source_calc_id": null, "bandstructure": null, "dos": null, "dos_energy_up": null, "dos_energy_down": null, "is_magnetic": null, "ordering": null, "total_magnetization": 0.1289361, "total_magnetization_normalized_vol": null, "total_magnetization_normalized_formula_units": null, "num_magnetic_sites": null, "num_unique_magnetic_sites": null, "types_of_magnetic_species": null, "bulk_modulus": null, "shear_modulus": null, "universal_anisotropy": null, "homogeneous_poisson": null, "e_total": null, "e_ionic": null, "e_electronic": null, "n": null, "e_ij_max": null, "weighted_surface_energy_EV_PER_ANG2": null, "weighted_surface_energy": null, "weighted_work_function": null, "surface_anisotropy": null, "shape_factor": null, "has_reconstructed": null, "possible_species": null, "has_props": null, "theoretical": null, "database_IDs": null, "fields_not_requested": ["builder_meta", "nsites", "elements", "nelements", "composition", "composition_reduced", "chemsys", "symmetry", "property_name", "deprecated", "deprecation_reasons", "last_updated", "origins", "warnings", "task_ids", "uncorrected_energy_per_atom", "equilibrium_reaction_energy_per_atom", "decomposes_to", "xas", "grain_boundaries", "cbm", "vbm", "is_gap_direct", "is_metal", "es_source_calc_id", "bandstructure", "dos", "dos_energy_up", "dos_energy_down", "is_magnetic", "ordering", "total_magnetization_normalized_vol", "total_magnetization_normalized_formula_units", "num_magnetic_sites", "num_unique_magnetic_sites", "types_of_magnetic_species", "bulk_modulus", "shear_modulus", "universal_anisotropy", "homogeneous_poisson", "e_total", "e_ionic", "e_electronic", "n", "e_ij_max", "weighted_surface_energy_EV_PER_ANG2", "weighted_surface_energy", "weighted_work_function", "surface_anisotropy", "shape_factor", "has_reconstructed", "possible_species", "has_props", "theoretical", "database_IDs"]}