{
  "builder_meta": null,
  "nsites": null,
  "elements": null,
  "nelements": null,
  "composition": null,
  "composition_reduced": null,
  "formula_pretty": "Y5Pt3",
  "formula_anonymous": "A3B5",
  "chemsys": null,
  "volume": 383.00700648269174,
  "density": 8.929298768608591,
  "density_atomic": 23.937937905168233,
  "symmetry": null,
  "property_name": null,
  "material_id": "mp-1178745",
  "deprecated": null,
  "deprecation_reasons": null,
  "last_updated": null,
  "origins": null,
  "warnings": null,
  "structure": {
    "@module": "pymatgen.core.structure",
    "@class": "Structure",
    "charge": 0,
    "lattice": {
      "matrix": [
        [4.22682426, -7.32107516, 0.0],
        [4.22682426, 7.32107516, 0.0],
        [-0.0, 0.0, 6.18853236]
      ],
      "pbc": [true, true, true],
      "a": 8.453649201575233,
      "b": 8.453649201575233,
      "c": 6.18853236,
      "alpha": 90.0,
      "beta": 90.0,
      "gamma": 120.00000533410517,
      "volume": 383.00700648269174
    },
    "properties": {},
    "sites": [
      {
        "species": [{ "element": "Y", "occu": 1 }],
        "abc": [0.666667, 0.333333, 0.0],
        "properties": { "magmom": -0.0 },
        "label": "Y",
        "xyz": [4.22682426, -2.4403632673834403, 0.0]
      },
      {
        "species": [{ "element": "Y", "occu": 1 }],
        "abc": [0.333333, 0.666667, 0.0],
        "properties": { "magmom": -0.0 },
        "label": "Y",
        "xyz": [4.22682426, 2.4403632673834403, 0.0]
      },
      {
        "species": [{ "element": "Y", "occu": 1 }],
        "abc": [0.333333, 0.666667, 0.5],
        "properties": { "magmom": -0.0 },
        "label": "Y",
        "xyz": [4.22682426, 2.4403632673834403, 3.09426618]
      },
      {
        "species": [{ "element": "Y", "occu": 1 }],
        "abc": [0.666667, 0.333333, 0.5],
        "properties": { "magmom": -0.0 },
        "label": "Y",
        "xyz": [4.22682426, -2.4403632673834403, 3.09426618]
      },
      {
        "species": [{ "element": "Y", "occu": 1 }],
        "abc": [0.75218673, 0.75218673, 0.75],
        "properties": { "magmom": 0.0 },
        "label": "Y",
        "xyz": [6.3587222368281395, 0.0, 4.64139927]
      },
      {
        "species": [{ "element": "Y", "occu": 1 }],
        "abc": [0.24781327, 0.0, 0.75],
        "properties": { "magmom": 0.0 },
        "label": "Y",
        "xyz": [1.0474631415859301, -1.8142595753153734, 4.64139927]
      },
      {
        "species": [{ "element": "Y", "occu": 1 }],
        "abc": [0.0, 0.24781327, 0.75],
        "properties": { "magmom": 0.0 },
        "label": "Y",
        "xyz": [1.0474631415859301, 1.8142595753153734, 4.64139927]
      },
      {
        "species": [{ "element": "Y", "occu": 1 }],
        "abc": [0.24781327, 0.24781327, 0.25],
        "properties": { "magmom": 0.0 },
        "label": "Y",
        "xyz": [2.0949262831718602, 0.0, 1.54713309]
      },
      {
        "species": [{ "element": "Y", "occu": 1 }],
        "abc": [0.75218673, -0.0, 0.25],
        "properties": { "magmom": 0.0 },
        "label": "Y",
        "xyz": [3.1793611184140698, -5.506815584684627, 1.54713309]
      },
      {
        "species": [{ "element": "Y", "occu": 1 }],
        "abc": [-0.0, 0.75218673, 0.25],
        "properties": { "magmom": 0.0 },
        "label": "Y",
        "xyz": [3.1793611184140698, 5.506815584684627, 1.54713309]
      },
      {
        "species": [{ "element": "Pt", "occu": 1 }],
        "abc": [0.39443831, 0.39443831, 0.75],
        "properties": { "magmom": -0.0 },
        "label": "Pt",
        "xyz": [3.3344428355628013, 0.0, 4.64139927]
      },
      {
        "species": [{ "element": "Pt", "occu": 1 }],
        "abc": [0.60556169, -0.0, 0.75],
        "properties": { "magmom": -0.0 },
        "label": "Pt",
        "xyz": [2.5596028422185997, -4.4333626465066205, 4.64139927]
      },
      {
        "species": [{ "element": "Pt", "occu": 1 }],
        "abc": [-0.0, 0.60556169, 0.75],
        "properties": { "magmom": -0.0 },
        "label": "Pt",
        "xyz": [2.5596028422185997, 4.4333626465066205, 4.64139927]
      },
      {
        "species": [{ "element": "Pt", "occu": 1 }],
        "abc": [0.60556169, 0.60556169, 0.25],
        "properties": { "magmom": -0.0 },
        "label": "Pt",
        "xyz": [5.119205684437199, 0.0, 1.54713309]
      },
      {
        "species": [{ "element": "Pt", "occu": 1 }],
        "abc": [0.39443831, 0.0, 0.25],
        "properties": { "magmom": -0.0 },
        "label": "Pt",
        "xyz": [1.6672214177814006, -2.88771251349338, 1.54713309]
      },
      {
        "species": [{ "element": "Pt", "occu": 1 }],
        "abc": [0.0, 0.39443831, 0.25],
        "properties": { "magmom": -0.0 },
        "label": "Pt",
        "xyz": [1.6672214177814006, 2.88771251349338, 1.54713309]
      }
    ]
  },
  "task_ids": null,
  "uncorrected_energy_per_atom": null,
  "energy_per_atom": -33.06331917125,
  "formation_energy_per_atom": -1.059424733749999,
  "energy_above_hull": 0.039183961250003,
  "is_stable": false,
  "equilibrium_reaction_energy_per_atom": null,
  "decomposes_to": null,
  "xas": null,
  "grain_boundaries": null,
  "band_gap": 0.0,
  "cbm": null,
  "vbm": null,
  "efermi": 4.74656597,
  "is_gap_direct": null,
  "is_metal": null,
  "es_source_calc_id": null,
  "bandstructure": null,
  "dos": null,
  "dos_energy_up": null,
  "dos_energy_down": null,
  "is_magnetic": null,
  "ordering": null,
  "total_magnetization": 2.2e-6,
  "total_magnetization_normalized_vol": null,
  "total_magnetization_normalized_formula_units": null,
  "num_magnetic_sites": null,
  "num_unique_magnetic_sites": null,
  "types_of_magnetic_species": null,
  "bulk_modulus": null,
  "shear_modulus": null,
  "universal_anisotropy": null,
  "homogeneous_poisson": null,
  "e_total": null,
  "e_ionic": null,
  "e_electronic": null,
  "n": null,
  "e_ij_max": null,
  "weighted_surface_energy_EV_PER_ANG2": null,
  "weighted_surface_energy": null,
  "weighted_work_function": null,
  "surface_anisotropy": null,
  "shape_factor": null,
  "has_reconstructed": null,
  "possible_species": null,
  "has_props": null,
  "theoretical": null,
  "database_IDs": null,
  "fields_not_requested": [
    "builder_meta",
    "nsites",
    "elements",
    "nelements",
    "composition",
    "composition_reduced",
    "chemsys",
    "symmetry",
    "property_name",
    "deprecated",
    "deprecation_reasons",
    "last_updated",
    "origins",
    "warnings",
    "task_ids",
    "uncorrected_energy_per_atom",
    "equilibrium_reaction_energy_per_atom",
    "decomposes_to",
    "xas",
    "grain_boundaries",
    "cbm",
    "vbm",
    "is_gap_direct",
    "is_metal",
    "es_source_calc_id",
    "bandstructure",
    "dos",
    "dos_energy_up",
    "dos_energy_down",
    "is_magnetic",
    "ordering",
    "total_magnetization_normalized_vol",
    "total_magnetization_normalized_formula_units",
    "num_magnetic_sites",
    "num_unique_magnetic_sites",
    "types_of_magnetic_species",
    "bulk_modulus",
    "shear_modulus",
    "universal_anisotropy",
    "homogeneous_poisson",
    "e_total",
    "e_ionic",
    "e_electronic",
    "n",
    "e_ij_max",
    "weighted_surface_energy_EV_PER_ANG2",
    "weighted_surface_energy",
    "weighted_work_function",
    "surface_anisotropy",
    "shape_factor",
    "has_reconstructed",
    "possible_species",
    "has_props",
    "theoretical",
    "database_IDs"
  ]
}
