{"builder_meta": null, "nsites": null, "elements": null, "nelements": null, "composition": null, "composition_reduced": null, "formula_pretty": "Y5Pt4", "formula_anonymous": "A4B5", "chemsys": null, "volume": 831.2780346629901, "density": 9.787034008520902, "density_atomic": 23.09105651841639, "symmetry": null, "property_name": null, "material_id": "mp-12175", "deprecated": null, "deprecation_reasons": null, "last_updated": null, "origins": null, "warnings": null, "structure": {"@module": "pymatgen.core.structure", "@class": "Structure", "charge": 0, "lattice": {"matrix": [[7.50707276, 0.0, 0.0], [0.0, 7.57967538, 0.0], [0.0, 0.0, 14.60915422]], "pbc": [true, true, true], "a": 7.50707276, "b": 7.57967538, "c": 14.60915422, "alpha": 90.0, "beta": 90.0, "gamma": 90.0, "volume": 831.2780346629901}, "properties": {}, "sites": [{"species": [{"element": "Y", "occu": 1}], "abc": [0.6818547500000001, 0.98818941, 0.75], "properties": {"magmom": 0.0}, "label": "Y", "xyz": [5.1187332200016105, 7.490154941753726, 10.956865665]}, {"species": [{"element": "Y", "occu": 1}], "abc": [0.18185475, 0.5118105900000001, 0.75], "properties": {"magmom": 0.0}, "label": "Y", "xyz": [1.3651968400016101, 3.879358128246275, 10.956865665]}, {"species": [{"element": "Y", "occu": 1}], "abc": [0.81814525, 0.48818941, 0.25], "properties": {"magmom": 0.0}, "label": "Y", "xyz": [6.14187591999839, 3.700317251753726, 3.652288555]}, {"species": [{"element": "Y", "occu": 1}], "abc": [0.31814525, 0.011810590000000001, 0.25], "properties": {"magmom": 0.0}, "label": "Y", "xyz": [2.3883395399983898, 0.08952043824627422, 3.652288555]}, {"species": [{"element": "Y", "occu": 1}], "abc": [0.6562276, 0.83208068, 0.37820397], "properties": {"magmom": -0.0}, "label": "Y", "xyz": [4.926348340320176, 6.306901444369659, 5.5252401243462534]}, {"species": [{"element": "Y", "occu": 1}], "abc": [0.1562276, 0.66791932, 0.12179603], "properties": {"magmom": -0.0}, "label": "Y", "xyz": [1.1728119603201759, 5.062611625630342, 1.7793369856537467]}, {"species": [{"element": "Y", "occu": 1}], "abc": [0.8437724, 0.33208068, 0.62179603], "properties": {"magmom": -0.0}, "label": "Y", "xyz": [6.334260799679823, 2.5170637543696586, 9.083914095653748]}, {"species": [{"element": "Y", "occu": 1}], "abc": [0.3437724, 0.16791932, 0.8782039700000001], "properties": {"magmom": -0.0}, "label": "Y", "xyz": [2.580724419679824, 1.2727739356303418, 12.829817234346255]}, {"species": [{"element": "Y", "occu": 1}], "abc": [0.3437724, 0.16791932, 0.62179603], "properties": {"magmom": -0.0}, "label": "Y", "xyz": [2.580724419679824, 1.2727739356303418, 9.083914095653748]}, {"species": [{"element": "Y", "occu": 1}], "abc": [0.8437724, 0.33208068, 0.8782039700000001], "properties": {"magmom": -0.0}, "label": "Y", "xyz": [6.334260799679823, 2.5170637543696586, 12.829817234346255]}, {"species": [{"element": "Y", "occu": 1}], "abc": [0.1562276, 0.66791932, 0.37820397], "properties": {"magmom": -0.0}, "label": "Y", "xyz": [1.1728119603201759, 5.062611625630342, 5.5252401243462534]}, {"species": [{"element": "Y", "occu": 1}], "abc": [0.6562276, 0.83208068, 0.12179603], "properties": {"magmom": -0.0}, "label": "Y", "xyz": [4.926348340320176, 6.306901444369659, 1.7793369856537467]}, {"species": [{"element": "Y", "occu": 1}], "abc": [0.99826846, 0.8195436500000001, 0.59353724], "properties": {"magmom": -0.0}, "label": "Y", "xyz": [7.4940739632331494, 6.211874826740337, 8.671077074473153]}, {"species": [{"element": "Y", "occu": 1}], "abc": [0.49826846, 0.68045635, 0.90646276], "properties": {"magmom": -0.0}, "label": "Y", "xyz": [3.7405375832331496, 5.1576382432596635, 13.242654255526848]}, {"species": [{"element": "Y", "occu": 1}], "abc": [0.50173154, 0.31954365, 0.40646276000000003], "properties": {"magmom": -0.0}, "label": "Y", "xyz": [3.7665351767668502, 2.4220371367403373, 5.938077145526848]}, {"species": [{"element": "Y", "occu": 1}], "abc": [0.00173154, 0.18045635000000002, 0.09353724000000001], "properties": {"magmom": -0.0}, "label": "Y", "xyz": [0.012998796766850399, 1.367800553259663, 1.366499964473153]}, {"species": [{"element": "Y", "occu": 1}], "abc": [0.00173154, 0.18045635000000002, 0.40646276000000003], "properties": {"magmom": -0.0}, "label": "Y", "xyz": [0.012998796766850399, 1.367800553259663, 5.938077145526848]}, {"species": [{"element": "Y", "occu": 1}], "abc": [0.50173154, 0.31954365, 0.09353724000000001], "properties": {"magmom": -0.0}, "label": "Y", "xyz": [3.7665351767668502, 2.4220371367403373, 1.366499964473153]}, {"species": [{"element": "Y", "occu": 1}], "abc": [0.49826846, 0.68045635, 0.59353724], "properties": {"magmom": -0.0}, "label": "Y", "xyz": [3.7405375832331496, 5.1576382432596635, 8.671077074473153]}, {"species": [{"element": "Y", "occu": 1}], "abc": [0.99826846, 0.8195436500000001, 0.90646276], "properties": {"magmom": -0.0}, "label": "Y", "xyz": [7.4940739632331494, 6.211874826740337, 13.242654255526848]}, {"species": [{"element": "Pt", "occu": 1}], "abc": [0.81350661, 0.64015112, 0.75], "properties": {"magmom": -0.0}, "label": "Pt", "xyz": [6.107053312010944, 4.852137683743425, 10.956865665]}, {"species": [{"element": "Pt", "occu": 1}], "abc": [0.31350661, 0.85984888, 0.75], "properties": {"magmom": -0.0}, "label": "Pt", "xyz": [2.3535169320109435, 6.517375386256575, 10.956865665]}, {"species": [{"element": "Pt", "occu": 1}], "abc": [0.68649339, 0.14015112, 0.25], "properties": {"magmom": -0.0}, "label": "Pt", "xyz": [5.153555827989056, 1.0622999937434257, 3.652288555]}, {"species": [{"element": "Pt", "occu": 1}], "abc": [0.18649339, 0.35984888, 0.25], "properties": {"magmom": -0.0}, "label": "Pt", "xyz": [1.4000194479890564, 2.7275376962565745, 3.652288555]}, {"species": [{"element": "Pt", "occu": 1}], "abc": [0.54816326, 0.38799394, 0.75], "properties": {"magmom": 0.0}, "label": "Pt", "xyz": [4.115101477178798, 2.940868114607197, 10.956865665]}, {"species": [{"element": "Pt", "occu": 1}], "abc": [0.04816326, 0.11200606, 0.75], "properties": {"magmom": 0.0}, "label": "Pt", "xyz": [0.3615650971787976, 0.8489695753928028, 10.956865665]}, {"species": [{"element": "Pt", "occu": 1}], "abc": [0.9518367400000001, 0.88799394, 0.25], "properties": {"magmom": 0.0}, "label": "Pt", "xyz": [7.145507662821203, 6.730705804607197, 3.652288555]}, {"species": [{"element": "Pt", "occu": 1}], "abc": [0.45183674, 0.61200606, 0.25], "properties": {"magmom": 0.0}, "label": "Pt", "xyz": [3.3919712828212023, 4.638807265392803, 3.652288555]}, {"species": [{"element": "Pt", "occu": 1}], "abc": [0.81721298, 0.53182278, 0.458362], "properties": {"magmom": -0.0}, "label": "Pt", "xyz": [6.134877301276425, 4.031044032089157, 6.69628114658764]}, {"species": [{"element": "Pt", "occu": 1}], "abc": [0.31721298000000003, 0.9681772200000001, 0.041637], "properties": {"magmom": -0.0}, "label": "Pt", "xyz": [2.381340921276425, 7.338469037910844, 0.60828135425814]}, {"species": [{"element": "Pt", "occu": 1}], "abc": [0.68278702, 0.03182278, 0.541638], "properties": {"magmom": -0.0}, "label": "Pt", "xyz": [5.125731838723575, 0.24120634208915642, 7.91287307341236]}, {"species": [{"element": "Pt", "occu": 1}], "abc": [0.18278702, 0.46817722, 0.958361999999999], "properties": {"magmom": -0.0}, "label": "Pt", "xyz": [1.3721954587235752, 3.5486313479108436, 14.000858256587627]}, {"species": [{"element": "Pt", "occu": 1}], "abc": [0.18278702, 0.46817722, 0.541638], "properties": {"magmom": -0.0}, "label": "Pt", "xyz": [1.3721954587235752, 3.5486313479108436, 7.91287307341236]}, {"species": [{"element": "Pt", "occu": 1}], "abc": [0.68278702, 0.03182278, 0.958361999999999], "properties": {"magmom": -0.0}, "label": "Pt", "xyz": [5.125731838723575, 0.24120634208915642, 14.000858256587627]}, {"species": [{"element": "Pt", "occu": 1}], "abc": [0.31721298000000003, 0.9681772200000001, 0.458362], "properties": {"magmom": -0.0}, "label": "Pt", "xyz": [2.381340921276425, 7.338469037910844, 6.69628114658764]}, {"species": [{"element": "Pt", "occu": 1}], "abc": [0.81721298, 0.53182278, 0.041637], "properties": {"magmom": -0.0}, "label": "Pt", "xyz": [6.134877301276425, 4.031044032089157, 0.60828135425814]}]}, "task_ids": null, "uncorrected_energy_per_atom": null, "energy_per_atom": -35.40833223833333, "formation_energy_per_atom": -1.239568638333328, "energy_above_hull": 0.0077109997222200004, "is_stable": false, "equilibrium_reaction_energy_per_atom": null, "decomposes_to": null, "xas": null, "grain_boundaries": null, "band_gap": 0.0, "cbm": null, "vbm": null, "efermi": 4.86417508, "is_gap_direct": null, "is_metal": null, "es_source_calc_id": null, "bandstructure": null, "dos": null, "dos_energy_up": null, "dos_energy_down": null, "is_magnetic": null, "ordering": null, "total_magnetization": 1.1e-06, "total_magnetization_normalized_vol": null, "total_magnetization_normalized_formula_units": null, "num_magnetic_sites": null, "num_unique_magnetic_sites": null, "types_of_magnetic_species": null, "bulk_modulus": null, "shear_modulus": null, "universal_anisotropy": null, "homogeneous_poisson": null, "e_total": null, "e_ionic": null, "e_electronic": null, "n": null, "e_ij_max": null, "weighted_surface_energy_EV_PER_ANG2": null, "weighted_surface_energy": null, "weighted_work_function": null, "surface_anisotropy": null, "shape_factor": null, "has_reconstructed": null, "possible_species": null, "has_props": null, "theoretical": null, "database_IDs": null, "fields_not_requested": ["builder_meta", "nsites", "elements", "nelements", "composition", "composition_reduced", "chemsys", "symmetry", "property_name", "deprecated", "deprecation_reasons", "last_updated", "origins", "warnings", "task_ids", "uncorrected_energy_per_atom", "equilibrium_reaction_energy_per_atom", "decomposes_to", "xas", "grain_boundaries", "cbm", "vbm", "is_gap_direct", "is_metal", "es_source_calc_id", "bandstructure", "dos", "dos_energy_up", "dos_energy_down", "is_magnetic", "ordering", "total_magnetization_normalized_vol", "total_magnetization_normalized_formula_units", "num_magnetic_sites", "num_unique_magnetic_sites", "types_of_magnetic_species", "bulk_modulus", "shear_modulus", "universal_anisotropy", "homogeneous_poisson", "e_total", "e_ionic", "e_electronic", "n", "e_ij_max", "weighted_surface_energy_EV_PER_ANG2", "weighted_surface_energy", "weighted_work_function", "surface_anisotropy", "shape_factor", "has_reconstructed", "possible_species", "has_props", "theoretical", "database_IDs"]}