{
  "builder_meta": null,
  "nsites": null,
  "elements": null,
  "nelements": null,
  "composition": null,
  "composition_reduced": null,
  "formula_pretty": "Y5Ru2",
  "formula_anonymous": "A2B5",
  "chemsys": null,
  "volume": 365.3882203830052,
  "density": 5.877691139951522,
  "density_atomic": 26.099158598786087,
  "symmetry": null,
  "property_name": null,
  "material_id": "mp-1104898",
  "deprecated": null,
  "deprecation_reasons": null,
  "last_updated": null,
  "origins": null,
  "warnings": null,
  "structure": {
    "@module": "pymatgen.core.structure",
    "@class": "Structure",
    "charge": 0,
    "lattice": {
      "matrix": [
        [0.0, 6.358566, 0.0],
        [0.0038100000000000005, 0.0, 7.313973],
        [7.856221, -3.179283, -0.983271]
      ],
      "pbc": [true, true, true],
      "a": 6.358566,
      "b": 7.313973992353883,
      "c": 8.531991013495677,
      "alpha": 96.59010088315333,
      "beta": 111.87795992964904,
      "gamma": 90.0,
      "volume": 365.3882203830052
    },
    "properties": {},
    "sites": [
      {
        "species": [{ "element": "Y", "occu": 1 }],
        "abc": [0.978557999999999, 0.915373999999999, 0.187075],
        "properties": { "magmom": -0.0 },
        "label": "Y",
        "xyz": [1.473190118515, 5.627461260602994, 6.511075298576992]
      },
      {
        "species": [{ "element": "Y", "occu": 1 }],
        "abc": [0.791482999999999, 0.584626, 0.812925],
        "properties": { "magmom": -0.0 },
        "label": "Y",
        "xyz": [6.388745881485, 2.4481782606029934, 3.4766132014229996]
      },
      {
        "species": [{ "element": "Y", "occu": 1 }],
        "abc": [0.021442, 0.08462599999999901, 0.812925],
        "properties": { "magmom": -0.0 },
        "label": "Y",
        "xyz": [6.386840881485, -2.448178260603, -0.18037329857700724]
      },
      {
        "species": [{ "element": "Y", "occu": 1 }],
        "abc": [0.208516999999999, 0.415373999999999, 0.187075],
        "properties": { "magmom": -0.0 },
        "label": "Y",
        "xyz": [1.471285118515, 0.7311047393969937, 2.854088798576993]
      },
      {
        "species": [{ "element": "Y", "occu": 1 }],
        "abc": [0.641081999999999, 0.814840999999999, 0.434843],
        "properties": { "magmom": -0.0 },
        "label": "Y",
        "xyz": [3.419327252513, 2.6938732508429943, 5.532156561839993]
      },
      {
        "species": [{ "element": "Y", "occu": 1 }],
        "abc": [0.206238999999999, 0.685159, 0.565157],
        "properties": { "magmom": -0.0 },
        "label": "Y",
        "xyz": [4.442608747487, -0.4854097491570064, 4.455531938159999]
      },
      {
        "species": [{ "element": "Y", "occu": 1 }],
        "abc": [0.358917999999999, 0.185159, 0.565157],
        "properties": { "magmom": -0.0 },
        "label": "Y",
        "xyz": [4.440703747487, 0.48540974915699375, 0.79854543816]
      },
      {
        "species": [{ "element": "Y", "occu": 1 }],
        "abc": [0.793760999999999, 0.314841, 0.434843],
        "properties": { "magmom": -0.0 },
        "label": "Y",
        "xyz": [3.4174222525129996, 3.664692749156994, 1.87517006184]
      },
      {
        "species": [{ "element": "Y", "occu": 1 }],
        "abc": [0.420338999999999, 0.75, 0.0],
        "properties": { "magmom": -0.0 },
        "label": "Y",
        "xyz": [0.0028575000000000002, 2.672753273873994, 5.48547975]
      },
      {
        "species": [{ "element": "Y", "occu": 1 }],
        "abc": [0.579661, 0.25, 0.0],
        "properties": { "magmom": -0.0 },
        "label": "Y",
        "xyz": [0.0009525000000000001, 3.6858127261259996, 1.82849325]
      },
      {
        "species": [{ "element": "Ru", "occu": 1 }],
        "abc": [0.822734, 0.575938, 0.219811999999999],
        "properties": { "magmom": 0.0 },
        "label": "Ru",
        "xyz": [1.7290859742319922, 4.5325638846480025, 3.9962602166220007]
      },
      {
        "species": [{ "element": "Ru", "occu": 1 }],
        "abc": [0.602922, 0.924061999999999, 0.780188],
        "properties": { "magmom": 0.0 },
        "label": "Ru",
        "xyz": [6.132850025768, 1.3532808846479996, 5.991428283377992]
      },
      {
        "species": [{ "element": "Ru", "occu": 1 }],
        "abc": [0.177265999999999, 0.424062, 0.780188],
        "properties": { "magmom": 0.0 },
        "label": "Ru",
        "xyz": [6.130945025768, -1.3532808846480062, 2.334441783378]
      },
      {
        "species": [{ "element": "Ru", "occu": 1 }],
        "abc": [0.397078, 0.075937999999999, 0.219811999999999],
        "properties": { "magmom": 0.0 },
        "label": "Ru",
        "xyz": [1.7271809742319921, 1.826002115352003, 0.3392737166219937]
      }
    ]
  },
  "task_ids": null,
  "uncorrected_energy_per_atom": null,
  "energy_per_atom": -7.602215885,
  "formation_energy_per_atom": -0.303035516428571,
  "energy_above_hull": 0.0,
  "is_stable": true,
  "equilibrium_reaction_energy_per_atom": null,
  "decomposes_to": null,
  "xas": null,
  "grain_boundaries": null,
  "band_gap": 0.0,
  "cbm": null,
  "vbm": null,
  "efermi": 3.98994721,
  "is_gap_direct": null,
  "is_metal": null,
  "es_source_calc_id": null,
  "bandstructure": null,
  "dos": null,
  "dos_energy_up": null,
  "dos_energy_down": null,
  "is_magnetic": null,
  "ordering": null,
  "total_magnetization": 0.0017349,
  "total_magnetization_normalized_vol": null,
  "total_magnetization_normalized_formula_units": null,
  "num_magnetic_sites": null,
  "num_unique_magnetic_sites": null,
  "types_of_magnetic_species": null,
  "bulk_modulus": null,
  "shear_modulus": null,
  "universal_anisotropy": null,
  "homogeneous_poisson": null,
  "e_total": null,
  "e_ionic": null,
  "e_electronic": null,
  "n": null,
  "e_ij_max": null,
  "weighted_surface_energy_EV_PER_ANG2": null,
  "weighted_surface_energy": null,
  "weighted_work_function": null,
  "surface_anisotropy": null,
  "shape_factor": null,
  "has_reconstructed": null,
  "possible_species": null,
  "has_props": null,
  "theoretical": null,
  "database_IDs": null,
  "fields_not_requested": [
    "builder_meta",
    "nsites",
    "elements",
    "nelements",
    "composition",
    "composition_reduced",
    "chemsys",
    "symmetry",
    "property_name",
    "deprecated",
    "deprecation_reasons",
    "last_updated",
    "origins",
    "warnings",
    "task_ids",
    "uncorrected_energy_per_atom",
    "equilibrium_reaction_energy_per_atom",
    "decomposes_to",
    "xas",
    "grain_boundaries",
    "cbm",
    "vbm",
    "is_gap_direct",
    "is_metal",
    "es_source_calc_id",
    "bandstructure",
    "dos",
    "dos_energy_up",
    "dos_energy_down",
    "is_magnetic",
    "ordering",
    "total_magnetization_normalized_vol",
    "total_magnetization_normalized_formula_units",
    "num_magnetic_sites",
    "num_unique_magnetic_sites",
    "types_of_magnetic_species",
    "bulk_modulus",
    "shear_modulus",
    "universal_anisotropy",
    "homogeneous_poisson",
    "e_total",
    "e_ionic",
    "e_electronic",
    "n",
    "e_ij_max",
    "weighted_surface_energy_EV_PER_ANG2",
    "weighted_surface_energy",
    "weighted_work_function",
    "surface_anisotropy",
    "shape_factor",
    "has_reconstructed",
    "possible_species",
    "has_props",
    "theoretical",
    "database_IDs"
  ]
}
