{"builder_meta": null, "nsites": null, "elements": null, "nelements": null, "composition": null, "composition_reduced": null, "formula_pretty": "Y5S7", "formula_anonymous": "A5B7", "chemsys": null, "volume": 274.73297514527644, "density": 4.043469778164344, "density_atomic": 22.894414595439702, "symmetry": null, "property_name": null, "material_id": "mp-15670", "deprecated": null, "deprecation_reasons": null, "last_updated": null, "origins": null, "warnings": null, "structure": {"@module": "pymatgen.core.structure", "@class": "Structure", "charge": 0, "lattice": {"matrix": [[3.80983874, -0.0, -0.0], [-1.90491988, 6.21261568, -1.63440417], [-0.0, 0.01101598, 11.60436179]], "pbc": [true, true, true], "a": 3.80983874, "b": 6.700491797436548, "c": 11.604367018714436, "alpha": 104.06619463586533, "beta": 90.0, "gamma": 106.51674375506732, "volume": 274.7329751452765}, "properties": {}, "sites": [{"species": [{"element": "Y", "occu": 1}], "abc": [0.88825425, 0.77650749, 0.57847373], "properties": {"magmom": 0.0}, "label": "Y", "xyz": [1.904920897949744, 4.8305150630516485, 5.443691369238544]}, {"species": [{"element": "Y", "occu": 1}], "abc": [0.11174575, 0.22349251, 0.42152627000000004], "properties": {"magmom": 0.0}, "label": "Y", "xyz": [-2.0379497437938987e-06, 1.3931165969483514, 4.5262662507614575]}, {"species": [{"element": "Y", "occu": 1}], "abc": [0.6994647900000001, 0.39892757, 0.81225338], "properties": {"magmom": -0.0}, "label": "Y", "xyz": [1.9049229954348732, 2.48733144355531, 8.773673202734384]}, {"species": [{"element": "Y", "occu": 1}], "abc": [0.30053521, 0.60107243, 0.18774662], "properties": {"magmom": -0.0}, "label": "Y", "xyz": [-4.135434872987176e-06, 3.7363002164446897, 1.1962844172656166]}, {"species": [{"element": "Y", "occu": 1}], "abc": [0.0, 0.0, 0.0], "properties": {"magmom": -0.0}, "label": "Y", "xyz": [0.0, 0.0, 0.0]}, {"species": [{"element": "S", "occu": 1}], "abc": [0.7406432, 0.48128441, 0.35300109], "properties": {"magmom": 0.0}, "label": "S", "xyz": [1.904922915334497, 2.993923725052967, 3.3097391139643615]}, {"species": [{"element": "S", "occu": 1}], "abc": [0.25935779999999903, 0.51871559, 0.64699891], "properties": {"magmom": 0.0}, "label": "S", "xyz": [-2.454957609421271e-07, 3.229707934947033, 6.660218506035639]}, {"species": [{"element": "S", "occu": 1}], "abc": [0.04141294, 0.08282488, 0.78511783], "properties": {"magmom": 0.0}, "label": "S", "xyz": [1.862678681213703e-06, 0.5232079904950419, 8.975422017847967]}, {"species": [{"element": "S", "occu": 1}], "abc": [0.95858706, 0.91717512, 0.21488217], "properties": {"magmom": 0.0}, "label": "S", "xyz": [1.904916997321319, 5.700423669504958, 0.994535602152034]}, {"species": [{"element": "S", "occu": 1}], "abc": [0.34121376000000003, 0.6824275200000001, 0.94860186], "properties": {"magmom": -0.0}, "label": "S", "xyz": [-3.480380350584511e-07, 4.250109690333237, 9.892556793696171]}, {"species": [{"element": "S", "occu": 1}], "abc": [0.5, 0.0, 0.5], "properties": {"magmom": -0.0}, "label": "S", "xyz": [1.90491937, 0.00550799, 5.802180895]}, {"species": [{"element": "S", "occu": 1}], "abc": [0.65878624, 0.31757248, 0.05139814], "properties": {"magmom": -0.0}, "label": "S", "xyz": [1.9049192080380353, 1.9735219696667634, 0.07740082630382905]}]}, "task_ids": null, "uncorrected_energy_per_atom": null, "energy_per_atom": -15.529091326666666, "formation_energy_per_atom": -2.378008128723957, "energy_above_hull": 0.0, "is_stable": true, "equilibrium_reaction_energy_per_atom": null, "decomposes_to": null, "xas": null, "grain_boundaries": null, "band_gap": 0.0, "cbm": null, "vbm": null, "efermi": 5.11845095, "is_gap_direct": null, "is_metal": null, "es_source_calc_id": null, "bandstructure": null, "dos": null, "dos_energy_up": null, "dos_energy_down": null, "is_magnetic": null, "ordering": null, "total_magnetization": 1e-07, "total_magnetization_normalized_vol": null, "total_magnetization_normalized_formula_units": null, "num_magnetic_sites": null, "num_unique_magnetic_sites": null, "types_of_magnetic_species": null, "bulk_modulus": null, "shear_modulus": null, "universal_anisotropy": null, "homogeneous_poisson": null, "e_total": null, "e_ionic": null, "e_electronic": null, "n": null, "e_ij_max": null, "weighted_surface_energy_EV_PER_ANG2": null, "weighted_surface_energy": null, "weighted_work_function": null, "surface_anisotropy": null, "shape_factor": null, "has_reconstructed": null, "possible_species": null, "has_props": null, "theoretical": null, "database_IDs": null, "fields_not_requested": ["builder_meta", "nsites", "elements", "nelements", "composition", "composition_reduced", "chemsys", "symmetry", "property_name", "deprecated", "deprecation_reasons", "last_updated", "origins", "warnings", "task_ids", "uncorrected_energy_per_atom", "equilibrium_reaction_energy_per_atom", "decomposes_to", "xas", "grain_boundaries", "cbm", "vbm", "is_gap_direct", "is_metal", "es_source_calc_id", "bandstructure", "dos", "dos_energy_up", "dos_energy_down", "is_magnetic", "ordering", "total_magnetization_normalized_vol", "total_magnetization_normalized_formula_units", "num_magnetic_sites", "num_unique_magnetic_sites", "types_of_magnetic_species", "bulk_modulus", "shear_modulus", "universal_anisotropy", "homogeneous_poisson", "e_total", "e_ionic", "e_electronic", "n", "e_ij_max", "weighted_surface_energy_EV_PER_ANG2", "weighted_surface_energy", "weighted_work_function", "surface_anisotropy", "shape_factor", "has_reconstructed", "possible_species", "has_props", "theoretical", "database_IDs"]}