{
  "builder_meta": null,
  "nsites": null,
  "elements": null,
  "nelements": null,
  "composition": null,
  "composition_reduced": null,
  "formula_pretty": "Y5Sb3",
  "formula_anonymous": "A3B5",
  "chemsys": null,
  "volume": 442.7430213197731,
  "density": 6.074493922504161,
  "density_atomic": 27.67143883248582,
  "symmetry": null,
  "property_name": null,
  "material_id": "mp-1189138",
  "deprecated": null,
  "deprecation_reasons": null,
  "last_updated": null,
  "origins": null,
  "warnings": null,
  "structure": {
    "@module": "pymatgen.core.structure",
    "@class": "Structure",
    "charge": 0,
    "lattice": {
      "matrix": [
        [3.439999999999999e-6, 6.92e-6, -6.33570981],
        [-4.49153659, -7.77948337, 1.017e-5],
        [-4.49123759, 7.77931171, -5.74e-6]
      ],
      "pbc": [true, true, true],
      "a": 6.335709810004714,
      "b": 8.982998521847747,
      "c": 8.982700360760402,
      "alpha": 120.00055432052227,
      "beta": 89.99992474569106,
      "gamma": 90.00013461684422,
      "volume": 442.7430213197731
    },
    "properties": {},
    "sites": [
      {
        "species": [{ "element": "Y", "occu": 1 }],
        "abc": [0.49999907, 0.3333258, 0.66667499],
        "properties": { "magmom": 0.167 },
        "label": "Y",
        "xyz": [-4.491339082495095, 2.5931734985727513, -3.1678494495809333]
      },
      {
        "species": [{ "element": "Y", "occu": 1 }],
        "abc": [0.49999977, 0.66666223, 0.33334814],
        "properties": { "magmom": -0.338 },
        "label": "Y",
        "xyz": [-4.49148177614137, -2.5930651826849878, -3.167848581250188]
      },
      {
        "species": [{ "element": "Y", "occu": 1 }],
        "abc": [1.95e-6, 0.66666294, 0.33334899],
        "properties": { "magmom": -0.338 },
        "label": "Y",
        "xyz": [-4.4914905026768, -2.5930675536881416, -7.4880952323e-6]
      },
      {
        "species": [{ "element": "Y", "occu": 1 }],
        "abc": [2.33e-6, 0.33332641, 0.6666745900000001],
        "properties": { "magmom": 0.167 },
        "label": "Y",
        "xyz": [-4.4913417458261655, 2.5931621813857713, -1.5198986414200002e-5]
      },
      {
        "species": [{ "element": "Y", "occu": 1 }],
        "abc": [0.74999938, 0.24789279, -0.00010039],
        "properties": { "magmom": -0.079 },
        "label": "Y",
        "xyz": [-1.112966081342659, -1.9292536124547597, -4.751775907714006]
      },
      {
        "species": [{ "element": "Y", "occu": 1 }],
        "abc": [0.75000243, 0.75206273, 0.75211772],
        "properties": { "magmom": -0.079 },
        "label": "Y",
        "xyz": [-6.755854065931025, 0.00030387527951614146, -4.751794421952587]
      },
      {
        "species": [{ "element": "Y", "occu": 1 }],
        "abc": [0.75000143, 9.981000000000002e-5, 0.24795718],
        "properties": { "magmom": -0.079 },
        "label": "Y",
        "xyz": [-1.1140803277885247, 1.9281649137273136, -4.751792839824173]
      },
      {
        "species": [{ "element": "Y", "occu": 1 }],
        "abc": [0.250000699999999, 0.75201165, -9.904000000000004e-5],
        "properties": { "magmom": -0.079 },
        "label": "Y",
        "xyz": [-3.377242169907952, -5.8510308582481745, -1.5839242389698907]
      },
      {
        "species": [{ "element": "Y", "occu": 1 }],
        "abc": [0.2500015, 0.24788222000000001, 0.24795114000000001],
        "properties": { "magmom": -0.079 },
        "label": "Y",
        "xyz": [-2.2269786815866226, 0.0004953287115481153, -1.583935858342081]
      },
      {
        "species": [{ "element": "Y", "occu": 1 }],
        "abc": [0.25000219, 8.772000000000001e-5, 0.75212576],
        "properties": { "magmom": -0.079 },
        "label": "Y",
        "xyz": [-3.3783686233014594, 5.850340045894588, -1.583945644014234]
      },
      {
        "species": [{ "element": "Sb", "occu": 1 }],
        "abc": [0.749993199999999, 0.6126163, 1.826e-5],
        "properties": { "magmom": 0.016 },
        "label": "Sb",
        "xyz": [-2.7516679571022027, -4.765691077856163, -4.751733044470327]
      },
      {
        "species": [{ "element": "Sb", "occu": 1 }],
        "abc": [0.75000498, 0.38737863, 0.38734529],
        "properties": { "magmom": 0.016 },
        "label": "Sb",
        "xyz": [
          -3.4795824375693916, -0.00032066963357557654, -4.751812193056152
        ]
      },
      {
        "species": [{ "element": "Sb", "occu": 1 }],
        "abc": [0.75000088, -4.5e-7, 0.61262668],
        "properties": { "magmom": 0.016 },
        "label": "Sb",
        "xyz": [-2.7514473726584083, 4.765822596356029, -4.751791449406353]
      },
      {
        "species": [{ "element": "Sb", "occu": 1 }],
        "abc": [0.24999102, 0.38737039, 2.4910000000000004e-5],
        "properties": { "magmom": 0.016 },
        "label": "Sb",
        "xyz": [-1.7399992973268283, -3.01334599444286, -1.5838666184120234]
      },
      {
        "species": [{ "element": "Sb", "occu": 1 }],
        "abc": [0.25000005000000003, 0.61264794, 0.61262907],
        "properties": { "magmom": 0.016 },
        "label": "Sb",
        "xyz": [-5.503192487208693, -0.0002502327570024221, -1.5839250551468027]
      },
      {
        "species": [{ "element": "Sb", "occu": 1 }],
        "abc": [0.2500021, -2.6120000000000004e-5, 0.38735671],
        "properties": { "magmom": 0.016 },
        "label": "Sb",
        "xyz": [-1.739592837747774, 3.0135735201702305, -1.5839429811837569]
      }
    ]
  },
  "task_ids": null,
  "uncorrected_energy_per_atom": null,
  "energy_per_atom": -23.41976990625,
  "formation_energy_per_atom": -1.0839009074999981,
  "energy_above_hull": 0.0,
  "is_stable": true,
  "equilibrium_reaction_energy_per_atom": null,
  "decomposes_to": null,
  "xas": null,
  "grain_boundaries": null,
  "band_gap": 0.0,
  "cbm": null,
  "vbm": null,
  "efermi": 5.72268343,
  "is_gap_direct": null,
  "is_metal": null,
  "es_source_calc_id": null,
  "bandstructure": null,
  "dos": null,
  "dos_energy_up": null,
  "dos_energy_down": null,
  "is_magnetic": null,
  "ordering": null,
  "total_magnetization": 1.2937051,
  "total_magnetization_normalized_vol": null,
  "total_magnetization_normalized_formula_units": null,
  "num_magnetic_sites": null,
  "num_unique_magnetic_sites": null,
  "types_of_magnetic_species": null,
  "bulk_modulus": null,
  "shear_modulus": null,
  "universal_anisotropy": null,
  "homogeneous_poisson": null,
  "e_total": null,
  "e_ionic": null,
  "e_electronic": null,
  "n": null,
  "e_ij_max": null,
  "weighted_surface_energy_EV_PER_ANG2": null,
  "weighted_surface_energy": null,
  "weighted_work_function": null,
  "surface_anisotropy": null,
  "shape_factor": null,
  "has_reconstructed": null,
  "possible_species": null,
  "has_props": null,
  "theoretical": null,
  "database_IDs": null,
  "fields_not_requested": [
    "builder_meta",
    "nsites",
    "elements",
    "nelements",
    "composition",
    "composition_reduced",
    "chemsys",
    "symmetry",
    "property_name",
    "deprecated",
    "deprecation_reasons",
    "last_updated",
    "origins",
    "warnings",
    "task_ids",
    "uncorrected_energy_per_atom",
    "equilibrium_reaction_energy_per_atom",
    "decomposes_to",
    "xas",
    "grain_boundaries",
    "cbm",
    "vbm",
    "is_gap_direct",
    "is_metal",
    "es_source_calc_id",
    "bandstructure",
    "dos",
    "dos_energy_up",
    "dos_energy_down",
    "is_magnetic",
    "ordering",
    "total_magnetization_normalized_vol",
    "total_magnetization_normalized_formula_units",
    "num_magnetic_sites",
    "num_unique_magnetic_sites",
    "types_of_magnetic_species",
    "bulk_modulus",
    "shear_modulus",
    "universal_anisotropy",
    "homogeneous_poisson",
    "e_total",
    "e_ionic",
    "e_electronic",
    "n",
    "e_ij_max",
    "weighted_surface_energy_EV_PER_ANG2",
    "weighted_surface_energy",
    "weighted_work_function",
    "surface_anisotropy",
    "shape_factor",
    "has_reconstructed",
    "possible_species",
    "has_props",
    "theoretical",
    "database_IDs"
  ]
}
