{"builder_meta": null, "nsites": null, "elements": null, "nelements": null, "composition": null, "composition_reduced": null, "formula_pretty": "Y5Si3", "formula_anonymous": "A3B5", "chemsys": null, "volume": 396.0782302579408, "density": 4.433818011984902, "density_atomic": 24.7548893911213, "symmetry": null, "property_name": null, "material_id": "mp-2538", "deprecated": null, "deprecation_reasons": null, "last_updated": null, "origins": null, "warnings": null, "structure": {"@module": "pymatgen.core.structure", "@class": "Structure", "charge": 0, "lattice": {"matrix": [[8.45266508, -1e-08, -0.0], [-4.22633305, 7.32022268, 0.0], [-0.0, 0.0, 6.40122392]], "pbc": [true, true, true], "a": 8.45266508, "b": 8.452665327239018, "c": 6.40122392, "alpha": 90.0, "beta": 90.0, "gamma": 120.00000309200529, "volume": 396.0782302579408}, "properties": {}, "sites": [{"species": [{"element": "Y", "occu": 1}], "abc": [-0.0, 0.75663944, 0.75], "properties": {"magmom": 0.0}, "label": "Y", "xyz": [-3.1978102722054924, 5.538769189270499, 4.80091794]}, {"species": [{"element": "Y", "occu": 1}], "abc": [0.0, 0.24336056, 0.25], "properties": {"magmom": 0.0}, "label": "Y", "xyz": [-1.028522777794508, 1.7814534907295008, 1.60030598]}, {"species": [{"element": "Y", "occu": 1}], "abc": [0.75663944, 0.75663944, 0.25], "properties": {"magmom": 0.0}, "label": "Y", "xyz": [3.1978095004332623, 5.5387691817041045, 1.60030598]}, {"species": [{"element": "Y", "occu": 1}], "abc": [0.75663944, -0.0, 0.75], "properties": {"magmom": 0.0}, "label": "Y", "xyz": [6.395619772638755, -7.566394400000001e-09, 4.80091794]}, {"species": [{"element": "Y", "occu": 1}], "abc": [0.24336056, 0.24336056, 0.75], "properties": {"magmom": 0.0}, "label": "Y", "xyz": [1.0285225295667364, 1.7814534882958952, 4.80091794]}, {"species": [{"element": "Y", "occu": 1}], "abc": [0.24336056, 0.0, 0.25], "properties": {"magmom": 0.0}, "label": "Y", "xyz": [2.0570453073612445, -2.4336056e-09, 1.60030598]}, {"species": [{"element": "Y", "occu": 1}], "abc": [0.333333, 0.666667, 0.5], "properties": {"magmom": 0.0}, "label": "Y", "xyz": [-4.566332710620458e-06, 4.88015089007423, 3.20061196]}, {"species": [{"element": "Y", "occu": 1}], "abc": [0.666667, 0.333333, 0.0], "properties": {"magmom": 0.0}, "label": "Y", "xyz": [4.226336596332709, 2.44007177992577, 0.0]}, {"species": [{"element": "Y", "occu": 1}], "abc": [0.666667, 0.333333, 0.5], "properties": {"magmom": 0.0}, "label": "Y", "xyz": [4.226336596332709, 2.44007177992577, 3.20061196]}, {"species": [{"element": "Y", "occu": 1}], "abc": [0.333333, 0.666667, 0.0], "properties": {"magmom": 0.0}, "label": "Y", "xyz": [-4.566332710620458e-06, 4.88015089007423, 0.0]}, {"species": [{"element": "Si", "occu": 1}], "abc": [0.39386064, 0.0, 0.75], "properties": {"magmom": -0.0}, "label": "Si", "xyz": [3.3291720781144507, -3.9386064e-09, 4.80091794]}, {"species": [{"element": "Si", "occu": 1}], "abc": [0.39386064, 0.39386064, 0.25], "properties": {"magmom": -0.0}, "label": "Si", "xyz": [1.6645858381882987, 2.8831475857487088, 1.60030598]}, {"species": [{"element": "Si", "occu": 1}], "abc": [-0.0, 0.60613936, 0.25], "properties": {"magmom": -0.0}, "label": "Si", "xyz": [-2.5617468100738483, 4.4370750903126845, 1.60030598]}, {"species": [{"element": "Si", "occu": 1}], "abc": [0.0, 0.39386064, 0.75], "properties": {"magmom": -0.0}, "label": "Si", "xyz": [-1.664586239926152, 2.883147589687315, 4.80091794]}, {"species": [{"element": "Si", "occu": 1}], "abc": [0.60613936, 0.60613936, 0.75], "properties": {"magmom": -0.0}, "label": "Si", "xyz": [2.5617461918117, 4.437075084251291, 4.80091794]}, {"species": [{"element": "Si", "occu": 1}], "abc": [0.60613936, -0.0, 0.25], "properties": {"magmom": -0.0}, "label": "Si", "xyz": [5.1234930018855485, -6.0613936e-09, 1.60030598]}]}, "task_ids": null, "uncorrected_energy_per_atom": null, "energy_per_atom": -16.770366716875, "formation_energy_per_atom": -0.7842043937500001, "energy_above_hull": 0.0, "is_stable": true, "equilibrium_reaction_energy_per_atom": null, "decomposes_to": null, "xas": null, "grain_boundaries": null, "band_gap": 0.0, "cbm": null, "vbm": null, "efermi": 4.4616458, "is_gap_direct": null, "is_metal": null, "es_source_calc_id": null, "bandstructure": null, "dos": null, "dos_energy_up": null, "dos_energy_down": null, "is_magnetic": null, "ordering": null, "total_magnetization": 0.0001402, "total_magnetization_normalized_vol": null, "total_magnetization_normalized_formula_units": null, "num_magnetic_sites": null, "num_unique_magnetic_sites": null, "types_of_magnetic_species": null, "bulk_modulus": null, "shear_modulus": null, "universal_anisotropy": null, "homogeneous_poisson": null, "e_total": null, "e_ionic": null, "e_electronic": null, "n": null, "e_ij_max": null, "weighted_surface_energy_EV_PER_ANG2": null, "weighted_surface_energy": null, "weighted_work_function": null, "surface_anisotropy": null, "shape_factor": null, "has_reconstructed": null, "possible_species": null, "has_props": null, "theoretical": null, "database_IDs": null, "fields_not_requested": ["builder_meta", "nsites", "elements", "nelements", "composition", "composition_reduced", "chemsys", "symmetry", "property_name", "deprecated", "deprecation_reasons", "last_updated", "origins", "warnings", "task_ids", "uncorrected_energy_per_atom", "equilibrium_reaction_energy_per_atom", "decomposes_to", "xas", "grain_boundaries", "cbm", "vbm", "is_gap_direct", "is_metal", "es_source_calc_id", "bandstructure", "dos", "dos_energy_up", "dos_energy_down", "is_magnetic", "ordering", "total_magnetization_normalized_vol", "total_magnetization_normalized_formula_units", "num_magnetic_sites", "num_unique_magnetic_sites", "types_of_magnetic_species", "bulk_modulus", "shear_modulus", "universal_anisotropy", "homogeneous_poisson", "e_total", "e_ionic", "e_electronic", "n", "e_ij_max", "weighted_surface_energy_EV_PER_ANG2", "weighted_surface_energy", "weighted_work_function", "surface_anisotropy", "shape_factor", "has_reconstructed", "possible_species", "has_props", "theoretical", "database_IDs"]}