{"builder_meta": null, "nsites": null, "elements": null, "nelements": null, "composition": null, "composition_reduced": null, "formula_pretty": "Y5Si4", "formula_anonymous": "A4B5", "chemsys": null, "volume": 845.6968008174595, "density": 4.373702087072076, "density_atomic": 23.491577800484986, "symmetry": null, "property_name": null, "material_id": "mp-1198133", "deprecated": null, "deprecation_reasons": null, "last_updated": null, "origins": null, "warnings": null, "structure": {"@module": "pymatgen.core.structure", "@class": "Structure", "charge": 0, "lattice": {"matrix": [[7.67733568, -0.00010926000000000001, 4.22e-05], [-0.00010738, 7.52972363, 0.05926291], [6.665000000000002e-05, 0.97781882, 14.63704903]], "pbc": [true, true, true], "a": 7.677335680893447, "b": 7.529956842387114, "c": 14.669673955334261, "alpha": 85.72713161012076, "beta": 89.99947979736842, "gamma": 90.00162996020119, "volume": 845.6968008174595}, "properties": {}, "sites": [{"species": [{"element": "Y", "occu": 1}], "abc": [0.32042394, 0.50827173, 0.60135567], "properties": {"magmom": -0.012}, "label": "Y", "xyz": [2.4599876494252175, 4.415127537962006, 8.832207609939301]}, {"species": [{"element": "Y", "occu": 1}], "abc": [0.82041663, 0.99172833, 0.39865585000000003], "properties": {"magmom": -0.012}, "label": "Y", "xyz": [6.2985339445886845, 7.857163795053542, 5.893952550893353]}, {"species": [{"element": "Y", "occu": 1}], "abc": [0.67957606, 0.49172827, 0.39864433], "properties": {"magmom": -0.012}, "label": "Y", "xyz": [5.217307300574783, 4.092305652037995, 5.864146530060697]}, {"species": [{"element": "Y", "occu": 1}], "abc": [0.17958337, 0.00827167, 0.60134415], "properties": {"magmom": -0.012}, "label": "Y", "xyz": [1.3787610054113142, 0.6502693949464589, 8.80240158910665]}, {"species": [{"element": "Y", "occu": 1}], "abc": [0.68367683, 0.5250701, 0.10139132000000001], "properties": {"magmom": -0.124}, "label": "Y", "xyz": [5.248766896252435, 4.05270038172666, 1.5152157552986367]}, {"species": [{"element": "Y", "occu": 1}], "abc": [0.18366582, 0.97493162, 0.8986242], "properties": {"magmom": -0.124}, "label": "Y", "xyz": [1.410019358228032, 8.219637244288132, 13.210991510494344]}, {"species": [{"element": "Y", "occu": 1}], "abc": [0.31632317, 0.474929899999999, 0.89860868], "properties": {"magmom": -0.124}, "label": "Y", "xyz": [2.428528053747565, 4.4547328082733335, 13.181138384701365]}, {"species": [{"element": "Y", "occu": 1}], "abc": [0.81633418, 0.02506838, 0.1013758], "properties": {"magmom": -0.124}, "label": "Y", "xyz": [6.267275591771968, 0.2877959457118686, 1.485362629505656]}, {"species": [{"element": "Y", "occu": 1}], "abc": [0.17802362, 0.674889499999999, 0.12119859000000001], "properties": {"magmom": -0.079}, "label": "Y", "xyz": [1.3666826979602749, 5.20022222718762, 1.8139931324920766]}, {"species": [{"element": "Y", "occu": 1}], "abc": [0.67804332, 0.82505519, 0.87880453], "properties": {"magmom": -0.078}, "label": "Y", "xyz": [5.20553615111728, 7.071675085719251, 12.912028778294214]}, {"species": [{"element": "Y", "occu": 1}], "abc": [0.8219763800000001, 0.325110499999999, 0.87880141], "properties": {"magmom": -0.079}, "label": "Y", "xyz": [6.310612252039725, 3.3072109628123654, 12.882361007507923]}, {"species": [{"element": "Y", "occu": 1}], "abc": [0.32195668, 0.17494481, 0.12119547], "properties": {"magmom": -0.078}, "label": "Y", "xyz": [2.4717587988827194, 1.435758104280749, 1.7843253617057873]}, {"species": [{"element": "Y", "occu": 1}], "abc": [0.16282607000000002, 0.64135033, 0.38164723], "properties": {"magmom": -0.012}, "label": "Y", "xyz": [1.2500269654346219, 5.2023547886277575, 5.624204375819102]}, {"species": [{"element": "Y", "occu": 1}], "abc": [0.66284731, 0.85860282, 0.61837063], "properties": {"magmom": -0.012}, "label": "Y", "xyz": [5.088850321086698, 7.069623959590802, 9.102032503825878]}, {"species": [{"element": "Y", "occu": 1}], "abc": [0.8371739300000001, 0.35864967000000003, 0.61835277], "properties": {"magmom": -0.012}, "label": "Y", "xyz": [6.427267984565378, 3.305078401372242, 9.0721497641809]}, {"species": [{"element": "Y", "occu": 1}], "abc": [0.33715269000000003, 0.14139718, 0.38162937], "properties": {"magmom": -0.012}, "label": "Y", "xyz": [2.5884446289133014, 1.4378092304091976, 5.594321636174124]}, {"species": [{"element": "Y", "occu": 1}], "abc": [0.50376932, 0.8256768, 0.25385776], "properties": {"magmom": -0.035}, "label": "Y", "xyz": [3.867534433370257, 6.465289965197924, 3.7646817487187647]}, {"species": [{"element": "Y", "occu": 1}], "abc": [0.00376543, 0.67425059, 0.74613769], "properties": {"magmom": -0.035}, "label": "Y", "xyz": [0.028885799138226698, 5.806507664246887, 10.961212162594704]}, {"species": [{"element": "Y", "occu": 1}], "abc": [0.49623068000000004, 0.174323199999999, 0.7461422400000001], "properties": {"magmom": -0.035}, "label": "Y", "xyz": [3.8097605166297424, 2.042143224802069, 10.931672391281237]}, {"species": [{"element": "Y", "occu": 1}], "abc": [0.99623457, 0.32574941, 0.25386231], "properties": {"magmom": -0.035}, "label": "Y", "xyz": [7.648409150861774, 2.7009255257531146, 3.7351419774052963]}, {"species": [{"element": "Si", "occu": 1}], "abc": [0.47369576, 0.85771825, 0.0417895], "properties": {"magmom": 0.012}, "label": "Si", "xyz": [3.6366320431972063, 6.4991921784869, 0.6625258298553645]}, {"species": [{"element": "Si", "occu": 1}], "abc": [0.97367596, 0.64225779, 0.9582212], "properties": {"magmom": 0.012}, "label": "Si", "xyz": [7.4752320882677425, 5.772883997162172, 14.063633840716516]}, {"species": [{"element": "Si", "occu": 1}], "abc": [0.52630424, 0.14228175, 0.9582105], "properties": {"magmom": 0.012}, "label": "Si", "xyz": [4.040662906802792, 2.0082410115131, 14.033828310144635]}, {"species": [{"element": "Si", "occu": 1}], "abc": [0.02632404, 0.35774221, 0.0417788], "properties": {"magmom": 0.012}, "label": "Si", "xyz": [0.2020628617322574, 2.734549192837828, 0.6327202992834831]}, {"species": [{"element": "Si", "occu": 1}], "abc": [0.46682288, 0.79004304, 0.45636859], "properties": {"magmom": 0.005}, "label": "Si", "xyz": [3.5839015350092462, 6.39500053809603, 6.72672937708315]}, {"species": [{"element": "Si", "occu": 1}], "abc": [0.9667974300000001, 0.70992045, 0.5436382200000001], "properties": {"magmom": 0.005}, "label": "Si", "xyz": [7.422388406900745, 5.876978838285333, 7.999372031308982]}, {"species": [{"element": "Si", "occu": 1}], "abc": [0.5331771200000001, 0.20995696, 0.54363141], "properties": {"magmom": 0.005}, "label": "Si", "xyz": [4.093393414990754, 2.11243265190397, 7.96962476291685]}, {"species": [{"element": "Si", "occu": 1}], "abc": [0.03320257, 0.29007955, 0.45636178], "properties": {"magmom": 0.005}, "label": "Si", "xyz": [0.25490654309925564, 2.6304543517146683, 6.696982108691017]}, {"species": [{"element": "Si", "occu": 1}], "abc": [0.10884386, 0.95317848, 0.24813234], "properties": {"magmom": 0.005}, "label": "Si", "xyz": [0.8355450356422033, 7.4197871040859775, 3.688417950193699]}, {"species": [{"element": "Si", "occu": 1}], "abc": [0.60884731, 0.54680218, 0.75186922], "properties": {"magmom": 0.005}, "label": "Si", "xyz": [4.6743165732004455, 4.852394646519143, 11.037577419025482]}, {"species": [{"element": "Si", "occu": 1}], "abc": [0.89115614, 0.04682152, 0.75186766], "properties": {"magmom": 0.005}, "label": "Si", "xyz": [6.841749914357797, 1.0876460859140225, 11.007936189806301]}, {"species": [{"element": "Si", "occu": 1}], "abc": [0.39115269, 0.45319782000000003, 0.24813078], "properties": {"magmom": 0.005}, "label": "Si", "xyz": [3.0029783767995544, 3.655038543480857, 3.6587767209745174]}, {"species": [{"element": "Si", "occu": 1}], "abc": [0.37149054, 0.7873850800000001, 0.75201414], "properties": {"magmom": 0.007}, "label": "Si", "xyz": [2.8520231498570077, 6.664085032727156, 11.053946246465456]}, {"species": [{"element": "Si", "occu": 1}], "abc": [0.87147808, 0.71260953, 0.24798472], "properties": {"magmom": 0.007}, "label": "Si", "xyz": [6.690569766092151, 5.608141725597604, 3.67203259614733]}, {"species": [{"element": "Si", "occu": 1}], "abc": [0.62850946, 0.21261492, 0.24798586], "properties": {"magmom": 0.007}, "label": "Si", "xyz": [4.825271800142991, 1.8433481572728454, 3.642407893534545]}, {"species": [{"element": "Si", "occu": 1}], "abc": [0.12852192, 0.28739047, 0.7520152800000001], "properties": {"magmom": 0.007}, "label": "Si", "xyz": [0.9867251839078491, 2.8992914644023964, 11.024321543852672]}]}, "task_ids": null, "uncorrected_energy_per_atom": null, "energy_per_atom": -16.02205263888889, "formation_energy_per_atom": -0.8372678411111121, "energy_above_hull": 0.010283171388888, "is_stable": false, "equilibrium_reaction_energy_per_atom": null, "decomposes_to": null, "xas": null, "grain_boundaries": null, "band_gap": 0.0, "cbm": null, "vbm": null, "efermi": 4.97658315, "is_gap_direct": null, "is_metal": null, "es_source_calc_id": null, "bandstructure": null, "dos": null, "dos_energy_up": null, "dos_energy_down": null, "is_magnetic": null, "ordering": null, "total_magnetization": 1.8225968, "total_magnetization_normalized_vol": null, "total_magnetization_normalized_formula_units": null, "num_magnetic_sites": null, "num_unique_magnetic_sites": null, "types_of_magnetic_species": null, "bulk_modulus": null, "shear_modulus": null, "universal_anisotropy": null, "homogeneous_poisson": null, "e_total": null, "e_ionic": null, "e_electronic": null, "n": null, "e_ij_max": null, "weighted_surface_energy_EV_PER_ANG2": null, "weighted_surface_energy": null, "weighted_work_function": null, "surface_anisotropy": null, "shape_factor": null, "has_reconstructed": null, "possible_species": null, "has_props": null, "theoretical": null, "database_IDs": null, "fields_not_requested": ["builder_meta", "nsites", "elements", "nelements", "composition", "composition_reduced", "chemsys", "symmetry", "property_name", "deprecated", "deprecation_reasons", "last_updated", "origins", "warnings", "task_ids", "uncorrected_energy_per_atom", "equilibrium_reaction_energy_per_atom", "decomposes_to", "xas", "grain_boundaries", "cbm", "vbm", "is_gap_direct", "is_metal", "es_source_calc_id", "bandstructure", "dos", "dos_energy_up", "dos_energy_down", "is_magnetic", "ordering", "total_magnetization_normalized_vol", "total_magnetization_normalized_formula_units", "num_magnetic_sites", "num_unique_magnetic_sites", "types_of_magnetic_species", "bulk_modulus", "shear_modulus", "universal_anisotropy", "homogeneous_poisson", "e_total", "e_ionic", "e_electronic", "n", "e_ij_max", "weighted_surface_energy_EV_PER_ANG2", "weighted_surface_energy", "weighted_work_function", "surface_anisotropy", "shape_factor", "has_reconstructed", "possible_species", "has_props", "theoretical", "database_IDs"]}