{
  "builder_meta": null,
  "nsites": null,
  "elements": null,
  "nelements": null,
  "composition": null,
  "composition_reduced": null,
  "formula_pretty": "Y5Sn4",
  "formula_anonymous": "A4B5",
  "chemsys": null,
  "volume": 1023.7742232940923,
  "density": 5.964786069114352,
  "density_atomic": 28.43817286928034,
  "symmetry": null,
  "property_name": null,
  "material_id": "mp-1203494",
  "deprecated": null,
  "deprecation_reasons": null,
  "last_updated": null,
  "origins": null,
  "warnings": null,
  "structure": {
    "@module": "pymatgen.core.structure",
    "@class": "Structure",
    "charge": 0,
    "lattice": {
      "matrix": [
        [-8.043224, 0.0, 0.0],
        [0.0, 0.0, -8.169165],
        [0.0, -15.581037, 0.0]
      ],
      "pbc": [true, true, true],
      "a": 8.043224,
      "b": 8.169165,
      "c": 15.581037,
      "alpha": 90.0,
      "beta": 90.0,
      "gamma": 90.0,
      "volume": 1023.7742232940923
    },
    "properties": {},
    "sites": [
      {
        "species": [{ "element": "Y", "occu": 1 }],
        "abc": [0.36686799999999903, 0.835896, 0.878297],
        "properties": { "magmom": -0.0 },
        "label": "Y",
        "xyz": [-2.9508015024319922, -13.684778053989, -6.82857234684]
      },
      {
        "species": [{ "element": "Y", "occu": 1 }],
        "abc": [0.866868, 0.664103999999999, 0.621703],
        "properties": { "magmom": -0.0 },
        "label": "Y",
        "xyz": [-6.972413502432, -9.686777446011, -5.425175153159992]
      },
      {
        "species": [{ "element": "Y", "occu": 1 }],
        "abc": [0.633131999999999, 0.164104, 0.378297],
        "properties": { "magmom": -0.0 },
        "label": "Y",
        "xyz": [-5.092422497567992, -5.894259553989, -1.3405926531599999]
      },
      {
        "species": [{ "element": "Y", "occu": 1 }],
        "abc": [0.133132, 0.335896, 0.121702999999999],
        "properties": { "magmom": -0.0 },
        "label": "Y",
        "xyz": [-1.070810497568, -1.8962589460109847, -2.7439898468399995]
      },
      {
        "species": [{ "element": "Y", "occu": 1 }],
        "abc": [0.633131999999999, 0.164104, 0.121702999999999],
        "properties": { "magmom": -0.0 },
        "label": "Y",
        "xyz": [-5.092422497567992, -1.8962589460109847, -1.3405926531599999]
      },
      {
        "species": [{ "element": "Y", "occu": 1 }],
        "abc": [0.133132, 0.335896, 0.378297],
        "properties": { "magmom": -0.0 },
        "label": "Y",
        "xyz": [-1.070810497568, -5.894259553989, -2.7439898468399995]
      },
      {
        "species": [{ "element": "Y", "occu": 1 }],
        "abc": [0.36686799999999903, 0.835896, 0.621703],
        "properties": { "magmom": -0.0 },
        "label": "Y",
        "xyz": [-2.9508015024319922, -9.686777446011, -6.82857234684]
      },
      {
        "species": [{ "element": "Y", "occu": 1 }],
        "abc": [0.866868, 0.664103999999999, 0.878297],
        "properties": { "magmom": -0.0 },
        "label": "Y",
        "xyz": [-6.972413502432, -13.684778053989, -5.425175153159992]
      },
      {
        "species": [{ "element": "Y", "occu": 1 }],
        "abc": [0.523116, 0.320244, 0.901851],
        "properties": { "magmom": 0.0 },
        "label": "Y",
        "xyz": [-4.2075391659840005, -14.051773799487, -2.6161260762599996]
      },
      {
        "species": [{ "element": "Y", "occu": 1 }],
        "abc": [0.023115999999999002, 0.179756, 0.598148999999999],
        "properties": { "magmom": 0.0 },
        "label": "Y",
        "xyz": [-0.18592716598399198, -9.319781700512985, -1.46845642374]
      },
      {
        "species": [{ "element": "Y", "occu": 1 }],
        "abc": [0.476884, 0.679755999999999, 0.401850999999999],
        "properties": { "magmom": 0.0 },
        "label": "Y",
        "xyz": [-3.835684834016, -6.261255299486985, -5.553038923739992]
      },
      {
        "species": [{ "element": "Y", "occu": 1 }],
        "abc": [0.976884, 0.820244, 0.098149],
        "properties": { "magmom": 0.0 },
        "label": "Y",
        "xyz": [-7.857296834016, -1.529263200513, -6.700708576259999]
      },
      {
        "species": [{ "element": "Y", "occu": 1 }],
        "abc": [0.476884, 0.679755999999999, 0.098149],
        "properties": { "magmom": 0.0 },
        "label": "Y",
        "xyz": [-3.835684834016, -1.529263200513, -5.553038923739992]
      },
      {
        "species": [{ "element": "Y", "occu": 1 }],
        "abc": [0.976884, 0.820244, 0.401850999999999],
        "properties": { "magmom": 0.0 },
        "label": "Y",
        "xyz": [-7.857296834016, -6.261255299486985, -6.700708576259999]
      },
      {
        "species": [{ "element": "Y", "occu": 1 }],
        "abc": [0.523116, 0.320244, 0.598148999999999],
        "properties": { "magmom": 0.0 },
        "label": "Y",
        "xyz": [-4.2075391659840005, -9.319781700512985, -2.6161260762599996]
      },
      {
        "species": [{ "element": "Y", "occu": 1 }],
        "abc": [0.023115999999999002, 0.179756, 0.901851],
        "properties": { "magmom": 0.0 },
        "label": "Y",
        "xyz": [-0.18592716598399198, -14.051773799487, -1.46845642374]
      },
      {
        "species": [{ "element": "Y", "occu": 1 }],
        "abc": [0.197946999999999, 0.502705, 0.75],
        "properties": { "magmom": -0.0 },
        "label": "Y",
        "xyz": [-1.592132061127992, -11.68577775, -4.106680091324999]
      },
      {
        "species": [{ "element": "Y", "occu": 1 }],
        "abc": [0.697947, 0.997294999999999, 0.75],
        "properties": { "magmom": -0.0 },
        "label": "Y",
        "xyz": [-5.613744061128, -11.68577775, -8.147067408674992]
      },
      {
        "species": [{ "element": "Y", "occu": 1 }],
        "abc": [0.802053, 0.497295, 0.25],
        "properties": { "magmom": -0.0 },
        "label": "Y",
        "xyz": [-6.4510919388720005, -3.89525925, -4.062484908675]
      },
      {
        "species": [{ "element": "Y", "occu": 1 }],
        "abc": [0.302052999999999, 0.002705, 0.25],
        "properties": { "magmom": -0.0 },
        "label": "Y",
        "xyz": [-2.4294799388719923, -3.89525925, -0.022097591325]
      },
      {
        "species": [{ "element": "Sn", "occu": 1 }],
        "abc": [0.291797, 0.033367, 0.041478999999999],
        "properties": { "magmom": 0.0 },
        "label": "Sn",
        "xyz": [-2.346988633528, -0.6462858337229844, -0.272580528555]
      },
      {
        "species": [{ "element": "Sn", "occu": 1 }],
        "abc": [0.791797, 0.466632999999999, 0.458520999999999],
        "properties": { "magmom": 0.0 },
        "label": "Sn",
        "xyz": [-6.368600633528, -7.144232666276984, -3.812001971444992]
      },
      {
        "species": [{ "element": "Sn", "occu": 1 }],
        "abc": [0.708202999999999, 0.966633, 0.541478999999999],
        "properties": { "magmom": 0.0 },
        "label": "Sn",
        "xyz": [-5.696235366471992, -8.436804333722986, -7.896584471444999]
      },
      {
        "species": [{ "element": "Sn", "occu": 1 }],
        "abc": [0.208203, 0.533366999999999, 0.958521],
        "properties": { "magmom": 0.0 },
        "label": "Sn",
        "xyz": [-1.674623366472, -14.934751166277, -4.357163028554992]
      },
      {
        "species": [{ "element": "Sn", "occu": 1 }],
        "abc": [0.708202999999999, 0.966633, 0.958521],
        "properties": { "magmom": 0.0 },
        "label": "Sn",
        "xyz": [-5.696235366471992, -14.934751166277, -7.896584471444999]
      },
      {
        "species": [{ "element": "Sn", "occu": 1 }],
        "abc": [0.208203, 0.533366999999999, 0.541478999999999],
        "properties": { "magmom": 0.0 },
        "label": "Sn",
        "xyz": [-1.674623366472, -8.436804333722986, -4.357163028554992]
      },
      {
        "species": [{ "element": "Sn", "occu": 1 }],
        "abc": [0.291797, 0.033367, 0.458520999999999],
        "properties": { "magmom": 0.0 },
        "label": "Sn",
        "xyz": [-2.346988633528, -7.144232666276984, -0.272580528555]
      },
      {
        "species": [{ "element": "Sn", "occu": 1 }],
        "abc": [0.791797, 0.466632999999999, 0.041478999999999],
        "properties": { "magmom": 0.0 },
        "label": "Sn",
        "xyz": [-6.368600633528, -0.6462858337229844, -3.812001971444992]
      },
      {
        "species": [{ "element": "Sn", "occu": 1 }],
        "abc": [0.564755999999999, 0.620339, 0.75],
        "properties": { "magmom": 0.0 },
        "label": "Sn",
        "xyz": [-4.542459013343993, -11.68577775, -5.0676516469349995]
      },
      {
        "species": [{ "element": "Sn", "occu": 1 }],
        "abc": [0.064756, 0.879660999999999, 0.75],
        "properties": { "magmom": 0.0 },
        "label": "Sn",
        "xyz": [-0.520847013344, -11.68577775, -7.186095853064992]
      },
      {
        "species": [{ "element": "Sn", "occu": 1 }],
        "abc": [0.435243999999999, 0.379660999999999, 0.25],
        "properties": { "magmom": 0.0 },
        "label": "Sn",
        "xyz": [-3.5007649866559922, -3.89525925, -3.101513353064992]
      },
      {
        "species": [{ "element": "Sn", "occu": 1 }],
        "abc": [0.935244, 0.12033899999999902, 0.25],
        "properties": { "magmom": 0.0 },
        "label": "Sn",
        "xyz": [-7.522376986656, -3.89525925, -0.9830691469349919]
      },
      {
        "species": [{ "element": "Sn", "occu": 1 }],
        "abc": [0.330133, 0.147102999999999, 0.75],
        "properties": { "magmom": -0.0 },
        "label": "Sn",
        "xyz": [-2.655333668792, -11.68577775, -1.2017086789949918]
      },
      {
        "species": [{ "element": "Sn", "occu": 1 }],
        "abc": [0.830133, 0.352896999999999, 0.75],
        "properties": { "magmom": -0.0 },
        "label": "Sn",
        "xyz": [-6.676945668792, -11.68577775, -2.882873821004992]
      },
      {
        "species": [{ "element": "Sn", "occu": 1 }],
        "abc": [0.669867, 0.852897, 0.25],
        "properties": { "magmom": -0.0 },
        "label": "Sn",
        "xyz": [-5.387890331208, -3.89525925, -6.967456321005]
      },
      {
        "species": [{ "element": "Sn", "occu": 1 }],
        "abc": [0.169867, 0.647103, 0.25],
        "properties": { "magmom": -0.0 },
        "label": "Sn",
        "xyz": [-1.366278331208, -3.89525925, -5.286291178995]
      }
    ]
  },
  "task_ids": null,
  "uncorrected_energy_per_atom": null,
  "energy_per_atom": -6.154017829722222,
  "formation_energy_per_atom": -0.7558239497222211,
  "energy_above_hull": 0.0,
  "is_stable": true,
  "equilibrium_reaction_energy_per_atom": null,
  "decomposes_to": null,
  "xas": null,
  "grain_boundaries": null,
  "band_gap": 0.0,
  "cbm": null,
  "vbm": null,
  "efermi": 5.35439916,
  "is_gap_direct": null,
  "is_metal": null,
  "es_source_calc_id": null,
  "bandstructure": null,
  "dos": null,
  "dos_energy_up": null,
  "dos_energy_down": null,
  "is_magnetic": null,
  "ordering": null,
  "total_magnetization": 0.0011129,
  "total_magnetization_normalized_vol": null,
  "total_magnetization_normalized_formula_units": null,
  "num_magnetic_sites": null,
  "num_unique_magnetic_sites": null,
  "types_of_magnetic_species": null,
  "bulk_modulus": null,
  "shear_modulus": null,
  "universal_anisotropy": null,
  "homogeneous_poisson": null,
  "e_total": null,
  "e_ionic": null,
  "e_electronic": null,
  "n": null,
  "e_ij_max": null,
  "weighted_surface_energy_EV_PER_ANG2": null,
  "weighted_surface_energy": null,
  "weighted_work_function": null,
  "surface_anisotropy": null,
  "shape_factor": null,
  "has_reconstructed": null,
  "possible_species": null,
  "has_props": null,
  "theoretical": null,
  "database_IDs": null,
  "fields_not_requested": [
    "builder_meta",
    "nsites",
    "elements",
    "nelements",
    "composition",
    "composition_reduced",
    "chemsys",
    "symmetry",
    "property_name",
    "deprecated",
    "deprecation_reasons",
    "last_updated",
    "origins",
    "warnings",
    "task_ids",
    "uncorrected_energy_per_atom",
    "equilibrium_reaction_energy_per_atom",
    "decomposes_to",
    "xas",
    "grain_boundaries",
    "cbm",
    "vbm",
    "is_gap_direct",
    "is_metal",
    "es_source_calc_id",
    "bandstructure",
    "dos",
    "dos_energy_up",
    "dos_energy_down",
    "is_magnetic",
    "ordering",
    "total_magnetization_normalized_vol",
    "total_magnetization_normalized_formula_units",
    "num_magnetic_sites",
    "num_unique_magnetic_sites",
    "types_of_magnetic_species",
    "bulk_modulus",
    "shear_modulus",
    "universal_anisotropy",
    "homogeneous_poisson",
    "e_total",
    "e_ionic",
    "e_electronic",
    "n",
    "e_ij_max",
    "weighted_surface_energy_EV_PER_ANG2",
    "weighted_surface_energy",
    "weighted_work_function",
    "surface_anisotropy",
    "shape_factor",
    "has_reconstructed",
    "possible_species",
    "has_props",
    "theoretical",
    "database_IDs"
  ]
}
