{"builder_meta": null, "nsites": null, "elements": null, "nelements": null, "composition": null, "composition_reduced": null, "formula_pretty": "Y5Sn3", "formula_anonymous": "A3B5", "chemsys": null, "volume": 458.30352128198496, "density": 5.801945225909033, "density_atomic": 28.64397008012406, "symmetry": null, "property_name": null, "material_id": "mp-567412", "deprecated": null, "deprecation_reasons": null, "last_updated": null, "origins": null, "warnings": null, "structure": {"@module": "pymatgen.core.structure", "@class": "Structure", "charge": 0, "lattice": {"matrix": [[8.95534086, -1e-08, 0.0], [-4.47767094, 7.7555517, 0.0], [-0.0, 0.0, 6.59869988]], "pbc": [true, true, true], "a": 8.95534086, "b": 8.955340262563638, "c": 6.59869988, "alpha": 90.0, "beta": 90.0, "gamma": 120.000006038556, "volume": 458.30352128198496}, "properties": {}, "sites": [{"species": [{"element": "Y", "occu": 1}], "abc": [0.7601769700000001, 0.7601769700000001, 0.25], "properties": {"magmom": 0.076}, "label": "Y", "xyz": [3.4038215524457422, 5.89559178438258, 1.64967497]}, {"species": [{"element": "Y", "occu": 1}], "abc": [0.0, 0.23982303, 0.25], "properties": {"magmom": 0.076}, "label": "Y", "xyz": [-1.0738486121737483, 1.8599599080156508, 1.64967497]}, {"species": [{"element": "Y", "occu": 1}], "abc": [0.7601769700000001, -0.0, 0.75], "properties": {"magmom": 0.076}, "label": "Y", "xyz": [6.8076438802719945, -7.6017697e-09, 4.94902491]}, {"species": [{"element": "Y", "occu": 1}], "abc": [0.333333, 0.666667, 0.5], "properties": {"magmom": 0.10200000000000001}, "label": "Y", "xyz": [-4.817670600676394e-06, 5.17037038185057, 3.29934994]}, {"species": [{"element": "Y", "occu": 1}], "abc": [0.23982303, 0.0, 0.25], "properties": {"magmom": 0.076}, "label": "Y", "xyz": [2.1476969797280057, -2.3982303e-09, 1.64967497]}, {"species": [{"element": "Y", "occu": 1}], "abc": [0.666667, 0.333333, 0.5], "properties": {"magmom": 0.10200000000000001}, "label": "Y", "xyz": [4.4776747376706005, 2.58518130814943, 3.29934994]}, {"species": [{"element": "Y", "occu": 1}], "abc": [-0.0, 0.7601769700000001, 0.75], "properties": {"magmom": 0.076}, "label": "Y", "xyz": [-3.4038223278262523, 5.89559179198435, 4.94902491]}, {"species": [{"element": "Y", "occu": 1}], "abc": [0.333333, 0.666667, -0.0], "properties": {"magmom": 0.10200000000000001}, "label": "Y", "xyz": [-4.817670600676394e-06, 5.17037038185057, 0.0]}, {"species": [{"element": "Y", "occu": 1}], "abc": [0.23982303, 0.23982303, 0.75], "properties": {"magmom": 0.076}, "label": "Y", "xyz": [1.0738483675542574, 1.8599599056174205, 4.94902491]}, {"species": [{"element": "Y", "occu": 1}], "abc": [0.666667, 0.333333, -0.0], "properties": {"magmom": 0.10200000000000001}, "label": "Y", "xyz": [4.4776747376706005, 2.58518130814943, 0.0]}, {"species": [{"element": "Sn", "occu": 1}], "abc": [0.60564643, 0.60564643, 0.75], "properties": {"magmom": -0.027}, "label": "Sn", "xyz": [2.711884801766385, 4.6971221937289656, 4.94902491]}, {"species": [{"element": "Sn", "occu": 1}], "abc": [0.39435357, 0.0, 0.75], "properties": {"magmom": -0.027}, "label": "Sn", "xyz": [3.53157063870787, -3.9435357e-09, 4.94902491]}, {"species": [{"element": "Sn", "occu": 1}], "abc": [0.60564643, -0.0, 0.25], "properties": {"magmom": -0.027}, "label": "Sn", "xyz": [5.423770221292129, -6.0564643e-09, 1.64967497]}, {"species": [{"element": "Sn", "occu": 1}], "abc": [0.0, 0.39435357, 0.75], "properties": {"magmom": -0.027}, "label": "Sn", "xyz": [-1.7657855204742559, 3.0584295002145687, 4.94902491]}, {"species": [{"element": "Sn", "occu": 1}], "abc": [0.39435357, 0.39435357, 0.25], "properties": {"magmom": -0.027}, "label": "Sn", "xyz": [1.7657851182336142, 3.058429496271033, 1.64967497]}, {"species": [{"element": "Sn", "occu": 1}], "abc": [-0.0, 0.60564643, 0.25], "properties": {"magmom": -0.027}, "label": "Sn", "xyz": [-2.711885419525744, 4.69712219978543, 1.64967497]}]}, "task_ids": null, "uncorrected_energy_per_atom": null, "energy_per_atom": -6.315189270000001, "formation_energy_per_atom": -0.7434176368750011, "energy_above_hull": 0.0, "is_stable": true, "equilibrium_reaction_energy_per_atom": null, "decomposes_to": null, "xas": null, "grain_boundaries": null, "band_gap": 0.0, "cbm": null, "vbm": null, "efermi": 5.0407156, "is_gap_direct": null, "is_metal": null, "es_source_calc_id": null, "bandstructure": null, "dos": null, "dos_energy_up": null, "dos_energy_down": null, "is_magnetic": null, "ordering": null, "total_magnetization": 1.2916532, "total_magnetization_normalized_vol": null, "total_magnetization_normalized_formula_units": null, "num_magnetic_sites": null, "num_unique_magnetic_sites": null, "types_of_magnetic_species": null, "bulk_modulus": null, "shear_modulus": null, "universal_anisotropy": null, "homogeneous_poisson": null, "e_total": null, "e_ionic": null, "e_electronic": null, "n": null, "e_ij_max": null, "weighted_surface_energy_EV_PER_ANG2": null, "weighted_surface_energy": null, "weighted_work_function": null, "surface_anisotropy": null, "shape_factor": null, "has_reconstructed": null, "possible_species": null, "has_props": null, "theoretical": null, "database_IDs": null, "fields_not_requested": ["builder_meta", "nsites", "elements", "nelements", "composition", "composition_reduced", "chemsys", "symmetry", "property_name", "deprecated", "deprecation_reasons", "last_updated", "origins", "warnings", "task_ids", "uncorrected_energy_per_atom", "equilibrium_reaction_energy_per_atom", "decomposes_to", "xas", "grain_boundaries", "cbm", "vbm", "is_gap_direct", "is_metal", "es_source_calc_id", "bandstructure", "dos", "dos_energy_up", "dos_energy_down", "is_magnetic", "ordering", "total_magnetization_normalized_vol", "total_magnetization_normalized_formula_units", "num_magnetic_sites", "num_unique_magnetic_sites", "types_of_magnetic_species", "bulk_modulus", "shear_modulus", "universal_anisotropy", "homogeneous_poisson", "e_total", "e_ionic", "e_electronic", "n", "e_ij_max", "weighted_surface_energy_EV_PER_ANG2", "weighted_surface_energy", "weighted_work_function", "surface_anisotropy", "shape_factor", "has_reconstructed", "possible_species", "has_props", "theoretical", "database_IDs"]}