{
  "builder_meta": null,
  "nsites": null,
  "elements": null,
  "nelements": null,
  "composition": null,
  "composition_reduced": null,
  "formula_pretty": "Y5Tl3",
  "formula_anonymous": "A3B5",
  "chemsys": null,
  "volume": 469.6971269995583,
  "density": 7.478510927766152,
  "density_atomic": 29.356070437472393,
  "symmetry": null,
  "property_name": null,
  "material_id": "mp-1188434",
  "deprecated": null,
  "deprecation_reasons": null,
  "last_updated": null,
  "origins": null,
  "warnings": null,
  "structure": {
    "@module": "pymatgen.core.structure",
    "@class": "Structure",
    "charge": 0,
    "lattice": {
      "matrix": [
        [0.0, 0.0, -6.6961658],
        [-4.49989181, -7.79400252, 0.0],
        [-4.49987716, 7.79399543, 0.0]
      ],
      "pbc": [true, true, true],
      "a": 6.6961658,
      "b": 8.99975008450076,
      "c": 8.999736619365622,
      "alpha": 119.9998116748356,
      "beta": 90.0,
      "gamma": 90.0,
      "volume": 469.6971269995583
    },
    "properties": {},
    "sites": [
      {
        "species": [{ "element": "Y", "occu": 1 }],
        "abc": [0.50000012, 0.33336761, 0.66673017],
        "properties": { "magmom": 0.024 },
        "label": "Y",
        "xyz": [-4.500322041824191, 2.5982239055967464, -3.3480837035398965]
      },
      {
        "species": [{ "element": "Y", "occu": 1 }],
        "abc": [0.49999988, 0.66663239, 0.33326883],
        "properties": { "magmom": 0.024 },
        "label": "Y",
        "xyz": [-4.499442428298648, -2.598238789592176, -3.348082096460104]
      },
      {
        "species": [{ "element": "Y", "occu": 1 }],
        "abc": [1.2e-7, 0.66663239, 0.33326983],
        "properties": { "magmom": 0.024 },
        "label": "Y",
        "xyz": [-4.499446928175809, -2.598230995596746, -8.03539896e-7]
      },
      {
        "species": [{ "element": "Y", "occu": 1 }],
        "abc": [-1.2e-7, 0.33336761, 0.66673117],
        "properties": { "magmom": 0.024 },
        "label": "Y",
        "xyz": [-4.500326541701352, 2.598231699592176, 8.03539896e-7]
      },
      {
        "species": [{ "element": "Y", "occu": 1 }],
        "abc": [0.749997999999999, 0.23846998, 1.51e-6],
        "properties": { "magmom": 0.06 },
        "label": "Y",
        "xyz": [-1.0730959047473754, -1.8586238561312503, -5.022110957668394]
      },
      {
        "species": [{ "element": "Y", "occu": 1 }],
        "abc": [0.75, 0.76155625, 0.76158993],
        "properties": { "magmom": 0.06 },
        "label": "Y",
        "xyz": [-6.853981863522311, 0.0002571023322683885, -5.02212435]
      },
      {
        "species": [{ "element": "Y", "occu": 1 }],
        "abc": [0.750000999999999, 0.99996792, 0.23840863],
        "properties": { "magmom": 0.06 },
        "label": "Y",
        "xyz": [-5.5725570023546265, -5.935596715706598, -5.022131046165794]
      },
      {
        "species": [{ "element": "Y", "occu": 1 }],
        "abc": [0.249998, 0.76153002, 0.9999984900000001],
        "properties": { "magmom": 0.06 },
        "label": "Y",
        "xyz": [-7.926673065252626, 1.8586167661312505, -1.6740280576684001]
      },
      {
        "species": [{ "element": "Y", "occu": 1 }],
        "abc": [0.25, 0.23844475, 0.23841007],
        "properties": { "magmom": 0.06 },
        "label": "Y",
        "xyz": [-2.1457916063694986, -0.00027198633478997536, -1.67404145]
      },
      {
        "species": [{ "element": "Y", "occu": 1 }],
        "abc": [0.250001, 3.2080000000000005e-5, 0.76159137],
        "properties": { "magmom": 0.06 },
        "label": "Y",
        "xyz": [-3.427211967645374, 5.935589625706598, -1.6740481461657999]
      },
      {
        "species": [{ "element": "Tl", "occu": 1 }],
        "abc": [0.75, 0.5984897100000001, 1.839999999999999e-6],
        "properties": { "magmom": 0.012 },
        "label": "Tl",
        "xyz": [-2.69314722417225, -4.6646159669824785, -5.02212435]
      },
      {
        "species": [{ "element": "Tl", "occu": 1 }],
        "abc": [0.75, 0.40151886000000003, 0.40153736],
        "properties": { "magmom": 0.012 },
        "label": "Tl",
        "xyz": [-3.6136602248252343, 0.00014134214673733325, -5.02212435]
      },
      {
        "species": [{ "element": "Tl", "occu": 1 }],
        "abc": [0.75, -1.648e-5, 0.5984617600000001],
        "properties": { "magmom": 0.012 },
        "label": "Tl",
        "xyz": [-2.6929302467403726, 4.664536667631287, -5.02212435]
      },
      {
        "species": [{ "element": "Tl", "occu": 1 }],
        "abc": [0.25, 0.40151029, -1.839999999999999e-6],
        "properties": { "magmom": 0.012 },
        "label": "Tl",
        "xyz": [-1.8067445858277504, -3.1293865530175218, -1.67404145]
      },
      {
        "species": [{ "element": "Tl", "occu": 1 }],
        "abc": [0.25, 0.59848114, 0.59846264],
        "properties": { "magmom": 0.012 },
        "label": "Tl",
        "xyz": [-5.386108745174766, -0.00014843214673732064, -1.67404145]
      },
      {
        "species": [{ "element": "Tl", "occu": 1 }],
        "abc": [0.25, 1.648e-5, 0.40153824],
        "properties": { "magmom": 0.012 },
        "label": "Tl",
        "xyz": [-1.806946913259627, 3.1294587623687136, -1.67404145]
      }
    ]
  },
  "task_ids": null,
  "uncorrected_energy_per_atom": null,
  "energy_per_atom": -33.109417565625,
  "formation_energy_per_atom": -0.471177748125001,
  "energy_above_hull": 0.0,
  "is_stable": true,
  "equilibrium_reaction_energy_per_atom": null,
  "decomposes_to": null,
  "xas": null,
  "grain_boundaries": null,
  "band_gap": 0.0,
  "cbm": null,
  "vbm": null,
  "efermi": 4.44750026,
  "is_gap_direct": null,
  "is_metal": null,
  "es_source_calc_id": null,
  "bandstructure": null,
  "dos": null,
  "dos_energy_up": null,
  "dos_energy_down": null,
  "is_magnetic": null,
  "ordering": null,
  "total_magnetization": 1.0305176,
  "total_magnetization_normalized_vol": null,
  "total_magnetization_normalized_formula_units": null,
  "num_magnetic_sites": null,
  "num_unique_magnetic_sites": null,
  "types_of_magnetic_species": null,
  "bulk_modulus": null,
  "shear_modulus": null,
  "universal_anisotropy": null,
  "homogeneous_poisson": null,
  "e_total": null,
  "e_ionic": null,
  "e_electronic": null,
  "n": null,
  "e_ij_max": null,
  "weighted_surface_energy_EV_PER_ANG2": null,
  "weighted_surface_energy": null,
  "weighted_work_function": null,
  "surface_anisotropy": null,
  "shape_factor": null,
  "has_reconstructed": null,
  "possible_species": null,
  "has_props": null,
  "theoretical": null,
  "database_IDs": null,
  "fields_not_requested": [
    "builder_meta",
    "nsites",
    "elements",
    "nelements",
    "composition",
    "composition_reduced",
    "chemsys",
    "symmetry",
    "property_name",
    "deprecated",
    "deprecation_reasons",
    "last_updated",
    "origins",
    "warnings",
    "task_ids",
    "uncorrected_energy_per_atom",
    "equilibrium_reaction_energy_per_atom",
    "decomposes_to",
    "xas",
    "grain_boundaries",
    "cbm",
    "vbm",
    "is_gap_direct",
    "is_metal",
    "es_source_calc_id",
    "bandstructure",
    "dos",
    "dos_energy_up",
    "dos_energy_down",
    "is_magnetic",
    "ordering",
    "total_magnetization_normalized_vol",
    "total_magnetization_normalized_formula_units",
    "num_magnetic_sites",
    "num_unique_magnetic_sites",
    "types_of_magnetic_species",
    "bulk_modulus",
    "shear_modulus",
    "universal_anisotropy",
    "homogeneous_poisson",
    "e_total",
    "e_ionic",
    "e_electronic",
    "n",
    "e_ij_max",
    "weighted_surface_energy_EV_PER_ANG2",
    "weighted_surface_energy",
    "weighted_work_function",
    "surface_anisotropy",
    "shape_factor",
    "has_reconstructed",
    "possible_species",
    "has_props",
    "theoretical",
    "database_IDs"
  ]
}
