{"builder_meta": null, "nsites": null, "elements": null, "nelements": null, "composition": null, "composition_reduced": null, "formula_pretty": "Y7Pt3", "formula_anonymous": "A3B7", "chemsys": null, "volume": 540.9349058813382, "density": 7.414035397692089, "density_atomic": 27.04674529406691, "symmetry": null, "property_name": null, "material_id": "mp-1188890", "deprecated": null, "deprecation_reasons": null, "last_updated": null, "origins": null, "warnings": null, "structure": {"@module": "pymatgen.core.structure", "@class": "Structure", "charge": 0, "lattice": {"matrix": [[0.0, 0.0, -6.308992], [-4.980488, -8.607621, 0.0], [-4.980488, 8.607621, 0.0]], "pbc": [true, true, true], "a": 6.308992, "b": 9.94466691235986, "c": 9.94466691235986, "alpha": 119.89146988944343, "beta": 90.0, "gamma": 90.0, "volume": 540.9349058813382}, "properties": {}, "sites": [{"species": [{"element": "Y", "occu": 1}], "abc": [0.449934, 0.333397, 0.666603], "properties": {"magmom": 0.23800000000000002}, "label": "Y", "xyz": [-4.980488, 2.868110962925999, -2.838630006528]}, {"species": [{"element": "Y", "occu": 1}], "abc": [0.949934, 0.666603, 0.333397], "properties": {"magmom": 0.23800000000000002}, "label": "Y", "xyz": [-4.980488, -2.868110962925999, -5.993126006528]}, {"species": [{"element": "Y", "occu": 1}], "abc": [0.254564, 0.127901, 0.872099], "properties": {"magmom": 0.094}, "label": "Y", "xyz": [-4.980487999999999, 6.405774332958, -1.606042239488]}, {"species": [{"element": "Y", "occu": 1}], "abc": [0.254842, 0.744444999999999, 0.872238], "properties": {"magmom": 0.094}, "label": "Y", "xyz": [-8.051870281303994, 1.099993710453008, -1.6077961392640001]}, {"species": [{"element": "Y", "occu": 1}], "abc": [0.254842, 0.127762, 0.255555], "properties": {"magmom": 0.094}, "label": "Y", "xyz": [-1.9091057186959999, 1.0999937104529998, -1.6077961392640001]}, {"species": [{"element": "Y", "occu": 1}], "abc": [0.754564, 0.872099, 0.127901], "properties": {"magmom": 0.094}, "label": "Y", "xyz": [-4.980487999999999, -6.405774332958, -4.760538239488]}, {"species": [{"element": "Y", "occu": 1}], "abc": [0.754842, 0.255555, 0.127762], "properties": {"magmom": 0.094}, "label": "Y", "xyz": [-1.9091057186959999, -1.0999937104529998, -4.762292139264]}, {"species": [{"element": "Y", "occu": 1}], "abc": [0.754842, 0.872238, 0.744444999999999], "properties": {"magmom": 0.094}, "label": "Y", "xyz": [-8.051870281303994, -1.099993710453008, -4.762292139264]}, {"species": [{"element": "Y", "occu": 1}], "abc": [0.442067999999999, 0.539225, 0.460775], "properties": {"magmom": 0.16}, "label": "Y", "xyz": [-4.980487999999999, -0.6752678674500001, -2.789003475455994]}, {"species": [{"element": "Y", "occu": 1}], "abc": [0.441855999999999, 0.9220839999999991, 0.461047999999999], "properties": {"magmom": 0.157}, "label": "Y", "xyz": [-6.888672328415991, -3.968423155356001, -2.787665969151994]}, {"species": [{"element": "Y", "occu": 1}], "abc": [0.441855999999999, 0.538952, 0.077916], "properties": {"magmom": 0.157}, "label": "Y", "xyz": [-3.072303671584, -3.9684231553559997, -2.787665969151994]}, {"species": [{"element": "Y", "occu": 1}], "abc": [0.9420679999999991, 0.460775, 0.539225], "properties": {"magmom": 0.16}, "label": "Y", "xyz": [-4.980487999999999, 0.6752678674500001, -5.943499475455995]}, {"species": [{"element": "Y", "occu": 1}], "abc": [0.941855999999999, 0.077916, 0.538952], "properties": {"magmom": 0.157}, "label": "Y", "xyz": [-3.072303671584, 3.9684231553559997, -5.942161969151994]}, {"species": [{"element": "Y", "occu": 1}], "abc": [0.941855999999999, 0.461047999999999, 0.9220839999999991], "properties": {"magmom": 0.157}, "label": "Y", "xyz": [-6.888672328415991, 3.968423155356001, -5.942161969151994]}, {"species": [{"element": "Pt", "occu": 1}], "abc": [0.184307, 0.810588, 0.189412], "properties": {"magmom": 0.023}, "label": "Pt", "xyz": [-4.980488, -5.346847582296, -1.162791388544]}, {"species": [{"element": "Pt", "occu": 1}], "abc": [0.184366, 0.378812999999999, 0.189313999999999], "properties": {"magmom": 0.024}, "label": "Pt", "xyz": [-2.8295497059759906, -1.6311355718790002, -1.163163619072]}, {"species": [{"element": "Pt", "occu": 1}], "abc": [0.184366, 0.810686, 0.621186999999999], "properties": {"magmom": 0.024}, "label": "Pt", "xyz": [-7.131426294023996, -1.6311355718790086, -1.163163619072]}, {"species": [{"element": "Pt", "occu": 1}], "abc": [0.684307, 0.189412, 0.810588], "properties": {"magmom": 0.023}, "label": "Pt", "xyz": [-4.980488, 5.346847582296, -4.317287388544]}, {"species": [{"element": "Pt", "occu": 1}], "abc": [0.684365999999999, 0.621186999999999, 0.810686], "properties": {"magmom": 0.024}, "label": "Pt", "xyz": [-7.131426294023996, 1.6311355718790086, -4.317659619071994]}, {"species": [{"element": "Pt", "occu": 1}], "abc": [0.684365999999999, 0.189313999999999, 0.378812999999999], "properties": {"magmom": 0.024}, "label": "Pt", "xyz": [-2.8295497059759906, 1.6311355718790002, -4.317659619071994]}]}, "task_ids": null, "uncorrected_energy_per_atom": null, "energy_per_atom": -30.559415885249997, "formation_energy_per_atom": -0.893580143249994, "energy_above_hull": 0.01789852225, "is_stable": false, "equilibrium_reaction_energy_per_atom": null, "decomposes_to": null, "xas": null, "grain_boundaries": null, "band_gap": 0.0, "cbm": null, "vbm": null, "efermi": 4.03969394, "is_gap_direct": null, "is_metal": null, "es_source_calc_id": null, "bandstructure": null, "dos": null, "dos_energy_up": null, "dos_energy_down": null, "is_magnetic": null, "ordering": null, "total_magnetization": 4.2044879, "total_magnetization_normalized_vol": null, "total_magnetization_normalized_formula_units": null, "num_magnetic_sites": null, "num_unique_magnetic_sites": null, "types_of_magnetic_species": null, "bulk_modulus": null, "shear_modulus": null, "universal_anisotropy": null, "homogeneous_poisson": null, "e_total": null, "e_ionic": null, "e_electronic": null, "n": null, "e_ij_max": null, "weighted_surface_energy_EV_PER_ANG2": null, "weighted_surface_energy": null, "weighted_work_function": null, "surface_anisotropy": null, "shape_factor": null, "has_reconstructed": null, "possible_species": null, "has_props": null, "theoretical": null, "database_IDs": null, "fields_not_requested": ["builder_meta", "nsites", "elements", "nelements", "composition", "composition_reduced", "chemsys", "symmetry", "property_name", "deprecated", "deprecation_reasons", "last_updated", "origins", "warnings", "task_ids", "uncorrected_energy_per_atom", "equilibrium_reaction_energy_per_atom", "decomposes_to", "xas", "grain_boundaries", "cbm", "vbm", "is_gap_direct", "is_metal", "es_source_calc_id", "bandstructure", "dos", "dos_energy_up", "dos_energy_down", "is_magnetic", "ordering", "total_magnetization_normalized_vol", "total_magnetization_normalized_formula_units", "num_magnetic_sites", "num_unique_magnetic_sites", "types_of_magnetic_species", "bulk_modulus", "shear_modulus", "universal_anisotropy", "homogeneous_poisson", "e_total", "e_ionic", "e_electronic", "n", "e_ij_max", "weighted_surface_energy_EV_PER_ANG2", "weighted_surface_energy", "weighted_work_function", "surface_anisotropy", "shape_factor", "has_reconstructed", "possible_species", "has_props", "theoretical", "database_IDs"]}