{
  "builder_meta": null,
  "nsites": null,
  "elements": null,
  "nelements": null,
  "composition": null,
  "composition_reduced": null,
  "formula_pretty": "Y7Rh3",
  "formula_anonymous": "A3B7",
  "chemsys": null,
  "volume": 520.4182881012184,
  "density": 5.94159469151198,
  "density_atomic": 26.02091440506092,
  "symmetry": null,
  "property_name": null,
  "material_id": "mp-1189474",
  "deprecated": null,
  "deprecation_reasons": null,
  "last_updated": null,
  "origins": null,
  "warnings": null,
  "structure": {
    "@module": "pymatgen.core.structure",
    "@class": "Structure",
    "charge": 0,
    "lattice": {
      "matrix": [
        [6.849e-5, 1.8290000000000003e-5, -6.23865115],
        [-4.90678306, -8.49935468, 7.868000000000001e-5],
        [-4.90761399, 8.49983505, 2.7970000000000005e-5]
      ],
      "pbc": [true, true, true],
      "a": 6.238651150402763,
      "b": 9.814048602922822,
      "c": 9.814880078372559,
      "alpha": 120.00045370177531,
      "beta": 90.0003323269529,
      "gamma": 90.00091930876333,
      "volume": 520.4182881012184
    },
    "properties": {},
    "sites": [
      {
        "species": [{ "element": "Y", "occu": 1 }],
        "abc": [0.46163969, 0.33337147, 0.66657996],
        "properties": { "magmom": 0.0 },
        "label": "Y",
        "xyz": [-4.90706700113057, 2.8323857873025475, -2.8799641089954027]
      },
      {
        "species": [{ "element": "Y", "occu": 1 }],
        "abc": [0.9615993700000001, 0.66661578, 0.33340943],
        "properties": { "magmom": 0.0 },
        "label": "Y",
        "xyz": [-4.907117939957762, -2.8318612027378514, -5.999021240698448]
      },
      {
        "species": [{ "element": "Y", "occu": 1 }],
        "abc": [0.25656006, 0.12406978, 0.8758855400000001],
        "properties": { "magmom": -0.0 },
        "label": "Y",
        "xyz": [-4.907274052706122, 6.390374239874104, -1.6005544530342246]
      },
      {
        "species": [{ "element": "Y", "occu": 1 }],
        "abc": [0.25660001, 0.75174503, 0.87579343],
        "properties": { "magmom": -0.0 },
        "label": "Y",
        "xyz": [-7.986688293526592, 1.0547567471906634, -1.6007543042353138]
      },
      {
        "species": [{ "element": "Y", "occu": 1 }],
        "abc": [0.25658061, 0.124185499999999, 0.24825904000000001],
        "properties": { "magmom": -0.0 },
        "label": "Y",
        "xyz": [-1.8276932723396158, 1.0546689719175775, -1.6007002029237125]
      },
      {
        "species": [{ "element": "Y", "occu": 1 }],
        "abc": [0.75656499, 0.87591507, 0.12412722],
        "properties": { "magmom": -0.0 },
        "label": "Y",
        "xyz": [-4.9070418917503575, -6.389638116698299, -4.719872656077188]
      },
      {
        "species": [{ "element": "Y", "occu": 1 }],
        "abc": [0.75661542, 0.24827904, 0.12421832000000001],
        "properties": { "magmom": -0.0 },
        "label": "Y",
        "xyz": [-1.8278151320812435, -1.0543625518857593, -4.720236651109456]
      },
      {
        "species": [{ "element": "Y", "occu": 1 }],
        "abc": [0.75657886, 0.875798699999999, 0.75171201],
        "properties": { "magmom": -0.0 },
        "label": "Y",
        "xyz": [-7.9864147837709165, -1.0542818516516084, -4.719941641778053]
      },
      {
        "species": [{ "element": "Y", "occu": 1 }],
        "abc": [0.44165287000000003, 0.54165596, 0.45832422],
        "properties": { "magmom": 0.0 },
        "label": "Y",
        "xyz": [-4.90703639409881, -0.7080377713249897, -2.7552627485069343]
      },
      {
        "species": [{ "element": "Y", "occu": 1 }],
        "abc": [0.44158346, 0.9165679800000001, 0.45831305],
        "properties": { "magmom": 0.0 },
        "label": "Y",
        "xyz": [-6.746593529530813, -3.8946429475272604, -2.7548002259653037]
      },
      {
        "species": [{ "element": "Y", "occu": 1 }],
        "abc": [0.44164573, 0.54165651, 0.08339201],
        "properties": { "magmom": 0.0 },
        "label": "Y",
        "xyz": [-3.067016534220893, -3.8949043860326142, -2.755228691348363]
      },
      {
        "species": [{ "element": "Y", "occu": 1 }],
        "abc": [0.9416412, 0.45840168000000003, 0.54164554],
        "properties": { "magmom": 0.0 },
        "label": "Y",
        "xyz": [-4.907400334818858, 0.7077965039578626, -5.874519738397443]
      },
      {
        "species": [{ "element": "Y", "occu": 1 }],
        "abc": [0.9415384, 0.08333628, 0.54164336],
        "properties": { "magmom": 0.0 },
        "label": "Y",
        "xyz": [-3.067025092149007, 3.8955918352333136, -5.87390791526587]
      },
      {
        "species": [{ "element": "Y", "occu": 1 }],
        "abc": [0.94165306, 0.45839481, 0.91669165],
        "properties": { "magmom": 0.0 },
        "label": "Y",
        "xyz": [-6.747948160738023, 3.895684965885589, -5.874583239300918]
      },
      {
        "species": [{ "element": "Rh", "occu": 1 }],
        "abc": [0.17889969, 0.81065577, 0.1892478],
        "properties": { "magmom": 0.0 },
        "label": "Rh",
        "xyz": [-4.90645489774421, -5.281472556967783, -1.1160236810961939]
      },
      {
        "species": [{ "element": "Rh", "occu": 1 }],
        "abc": [0.17895776, 0.37862878, 0.18939854],
        "properties": { "magmom": 0.0 },
        "label": "Rh",
        "xyz": [-2.787331951505059, -1.6082406714274327, -1.1164199472358496]
      },
      {
        "species": [{ "element": "Rh", "occu": 1 }],
        "abc": [0.17890404000000001, 0.8105567100000001, 0.62137277],
        "properties": { "magmom": 0.0 },
        "label": "Rh",
        "xyz": [-7.026671379716686, -1.6076396448274233, -1.1160387404873264]
      },
      {
        "species": [{ "element": "Rh", "occu": 1 }],
        "abc": [0.6789138, 0.18929978, 0.8107603600000001],
        "properties": { "magmom": 0.0 },
        "label": "Rh",
        "xyz": [-4.907705340233001, 5.28241577134605, -4.23546878804691]
      },
      {
        "species": [{ "element": "Rh", "occu": 1 }],
        "abc": [0.67894346, 0.6214500900000001, 0.81063646],
        "properties": { "magmom": 0.0 },
        "label": "Rh",
        "xyz": [-7.027565105309977, 1.608363882563884, -4.235619828319112]
      },
      {
        "species": [{ "element": "Rh", "occu": 1 }],
        "abc": [0.67892954, 0.18941126, 0.3785883],
        "properties": { "magmom": 0.0 },
        "label": "Rh",
        "xyz": [-2.7873186995873778, 1.6080770403555047, -4.235579063497283]
      }
    ]
  },
  "task_ids": null,
  "uncorrected_energy_per_atom": null,
  "energy_per_atom": -7.3321754755,
  "formation_energy_per_atom": -0.566519064499999,
  "energy_above_hull": 0.0,
  "is_stable": true,
  "equilibrium_reaction_energy_per_atom": null,
  "decomposes_to": null,
  "xas": null,
  "grain_boundaries": null,
  "band_gap": 0.0,
  "cbm": null,
  "vbm": null,
  "efermi": 3.98613265,
  "is_gap_direct": null,
  "is_metal": null,
  "es_source_calc_id": null,
  "bandstructure": null,
  "dos": null,
  "dos_energy_up": null,
  "dos_energy_down": null,
  "is_magnetic": null,
  "ordering": null,
  "total_magnetization": 0.001049,
  "total_magnetization_normalized_vol": null,
  "total_magnetization_normalized_formula_units": null,
  "num_magnetic_sites": null,
  "num_unique_magnetic_sites": null,
  "types_of_magnetic_species": null,
  "bulk_modulus": null,
  "shear_modulus": null,
  "universal_anisotropy": null,
  "homogeneous_poisson": null,
  "e_total": null,
  "e_ionic": null,
  "e_electronic": null,
  "n": null,
  "e_ij_max": null,
  "weighted_surface_energy_EV_PER_ANG2": null,
  "weighted_surface_energy": null,
  "weighted_work_function": null,
  "surface_anisotropy": null,
  "shape_factor": null,
  "has_reconstructed": null,
  "possible_species": null,
  "has_props": null,
  "theoretical": null,
  "database_IDs": null,
  "fields_not_requested": [
    "builder_meta",
    "nsites",
    "elements",
    "nelements",
    "composition",
    "composition_reduced",
    "chemsys",
    "symmetry",
    "property_name",
    "deprecated",
    "deprecation_reasons",
    "last_updated",
    "origins",
    "warnings",
    "task_ids",
    "uncorrected_energy_per_atom",
    "equilibrium_reaction_energy_per_atom",
    "decomposes_to",
    "xas",
    "grain_boundaries",
    "cbm",
    "vbm",
    "is_gap_direct",
    "is_metal",
    "es_source_calc_id",
    "bandstructure",
    "dos",
    "dos_energy_up",
    "dos_energy_down",
    "is_magnetic",
    "ordering",
    "total_magnetization_normalized_vol",
    "total_magnetization_normalized_formula_units",
    "num_magnetic_sites",
    "num_unique_magnetic_sites",
    "types_of_magnetic_species",
    "bulk_modulus",
    "shear_modulus",
    "universal_anisotropy",
    "homogeneous_poisson",
    "e_total",
    "e_ionic",
    "e_electronic",
    "n",
    "e_ij_max",
    "weighted_surface_energy_EV_PER_ANG2",
    "weighted_surface_energy",
    "weighted_work_function",
    "surface_anisotropy",
    "shape_factor",
    "has_reconstructed",
    "possible_species",
    "has_props",
    "theoretical",
    "database_IDs"
  ]
}
