{"builder_meta": null, "nsites": null, "elements": null, "nelements": null, "composition": null, "composition_reduced": null, "formula_pretty": "Y7Te2", "formula_anonymous": "A2B7", "chemsys": null, "volume": 1120.4073865403655, "density": 5.202361382196325, "density_atomic": 31.12242740389904, "symmetry": null, "property_name": null, "material_id": "mp-642301", "deprecated": null, "deprecation_reasons": null, "last_updated": null, "origins": null, "warnings": null, "structure": {"@module": "pymatgen.core.structure", "@class": "Structure", "charge": 0, "lattice": {"matrix": [[3.966506, 0.0, 0.0], [0.0, 12.167232, 0.0], [0.0, 0.0, 23.215394]], "pbc": [true, true, true], "a": 3.966506, "b": 12.167232, "c": 23.215394, "alpha": 90.0, "beta": 90.0, "gamma": 90.0, "volume": 1120.4073865403655}, "properties": {}, "sites": [{"species": [{"element": "Y", "occu": 1}], "abc": [0.25, 0.650166999999999, 0.426811], "properties": {"magmom": 0.062}, "label": "Y", "xyz": [0.9916265, 7.910732727743989, 9.908585528534]}, {"species": [{"element": "Y", "occu": 1}], "abc": [0.75, 0.979964, 0.829714], "properties": {"magmom": 0.028}, "label": "Y", "xyz": [2.9748795, 11.923449339648, 19.262137417315998]}, {"species": [{"element": "Y", "occu": 1}], "abc": [0.75, 0.873521999999999, 0.048267], "properties": {"magmom": 0.093}, "label": "Y", "xyz": [2.9748795, 10.628344831103988, 1.120537422198]}, {"species": [{"element": "Y", "occu": 1}], "abc": [0.75, 0.254212999999999, 0.723544], "properties": {"magmom": 0.053}, "label": "Y", "xyz": [2.9748795, 3.0930685484159883, 16.797359036335997]}, {"species": [{"element": "Y", "occu": 1}], "abc": [0.25, 0.849833, 0.926810999999999], "properties": {"magmom": 0.062}, "label": "Y", "xyz": [0.9916265, 10.340115272256, 21.516282528533978]}, {"species": [{"element": "Y", "occu": 1}], "abc": [0.75, 0.520035999999999, 0.329714], "properties": {"magmom": 0.028}, "label": "Y", "xyz": [2.9748795, 6.327398660351989, 7.6544404173160006]}, {"species": [{"element": "Y", "occu": 1}], "abc": [0.75, 0.6377200000000001, 0.898519], "properties": {"magmom": -0.016}, "label": "Y", "xyz": [2.9748795, 7.759287191040001, 20.859472601485997]}, {"species": [{"element": "Y", "occu": 1}], "abc": [0.75, 0.245786999999999, 0.223544], "properties": {"magmom": 0.053}, "label": "Y", "xyz": [2.9748795, 2.990547451583988, 5.189662036336]}, {"species": [{"element": "Y", "occu": 1}], "abc": [0.75, 0.349833, 0.573189], "properties": {"magmom": 0.062}, "label": "Y", "xyz": [2.9748795, 4.256499272256, 13.306808471465999]}, {"species": [{"element": "Y", "occu": 1}], "abc": [0.25, 0.754212999999999, 0.776455999999999], "properties": {"magmom": 0.053}, "label": "Y", "xyz": [0.9916265, 9.176684548415988, 18.02573196366398]}, {"species": [{"element": "Y", "occu": 1}], "abc": [0.25, 0.126478, 0.951732999999999], "properties": {"magmom": 0.093}, "label": "Y", "xyz": [0.9916265, 1.5388871688960002, 22.094856577801977]}, {"species": [{"element": "Y", "occu": 1}], "abc": [0.25, 0.617633, 0.024470000000000002], "properties": {"magmom": 0.015}, "label": "Y", "xyz": [0.9916265, 7.514884001856, 0.56808069118]}, {"species": [{"element": "Y", "occu": 1}], "abc": [0.75, 0.382366999999999, 0.9755300000000001], "properties": {"magmom": 0.015}, "label": "Y", "xyz": [2.9748795, 4.652347998143988, 22.647313308820003]}, {"species": [{"element": "Y", "occu": 1}], "abc": [0.25, 0.373521999999999, 0.451733], "properties": {"magmom": 0.093}, "label": "Y", "xyz": [0.9916265, 4.544728831103988, 10.487159577802]}, {"species": [{"element": "Y", "occu": 1}], "abc": [0.75, 0.86228, 0.398518999999999], "properties": {"magmom": -0.016}, "label": "Y", "xyz": [2.9748795, 10.491560808960001, 9.251775601485978]}, {"species": [{"element": "Y", "occu": 1}], "abc": [0.25, 0.079617, 0.345686999999999], "properties": {"magmom": 0.043000000000000003}, "label": "Y", "xyz": [0.9916265, 0.9687185101439999, 8.025259905677977]}, {"species": [{"element": "Y", "occu": 1}], "abc": [0.75, 0.117633, 0.47553000000000006], "properties": {"magmom": 0.015}, "label": "Y", "xyz": [2.9748795, 1.431268001856, 11.039616308820001]}, {"species": [{"element": "Y", "occu": 1}], "abc": [0.25, 0.36228000000000005, 0.101481], "properties": {"magmom": -0.016}, "label": "Y", "xyz": [0.9916265, 4.407944808960001, 2.355921398514]}, {"species": [{"element": "Y", "occu": 1}], "abc": [0.75, 0.150167, 0.073188999999999], "properties": {"magmom": 0.062}, "label": "Y", "xyz": [2.9748795, 1.827116727744, 1.699111471465977]}, {"species": [{"element": "Y", "occu": 1}], "abc": [0.25, 0.745787, 0.276456], "properties": {"magmom": 0.053}, "label": "Y", "xyz": [0.9916265, 9.074163451583999, 6.418034963664]}, {"species": [{"element": "Y", "occu": 1}], "abc": [0.75, 0.626478, 0.548267], "properties": {"magmom": 0.093}, "label": "Y", "xyz": [2.9748795, 7.622503168896, 12.728234422197998]}, {"species": [{"element": "Y", "occu": 1}], "abc": [0.25, 0.020035999999999003, 0.170286], "properties": {"magmom": 0.028}, "label": "Y", "xyz": [0.9916265, 0.24378266035198787, 3.953256582684]}, {"species": [{"element": "Y", "occu": 1}], "abc": [0.75, 0.579616999999999, 0.154313], "properties": {"magmom": 0.043000000000000003}, "label": "Y", "xyz": [2.9748795, 7.0523345101439885, 3.582437094322]}, {"species": [{"element": "Y", "occu": 1}], "abc": [0.25, 0.420383, 0.845687], "properties": {"magmom": 0.043000000000000003}, "label": "Y", "xyz": [0.9916265, 5.114897489856, 19.632956905678]}, {"species": [{"element": "Y", "occu": 1}], "abc": [0.75, 0.920383, 0.654312999999999], "properties": {"magmom": 0.043000000000000003}, "label": "Y", "xyz": [2.9748795, 11.198513489856, 15.190134094321978]}, {"species": [{"element": "Y", "occu": 1}], "abc": [0.25, 0.882367, 0.52447], "properties": {"magmom": 0.015}, "label": "Y", "xyz": [0.9916265, 10.735963998144001, 12.17577769118]}, {"species": [{"element": "Y", "occu": 1}], "abc": [0.25, 0.479964, 0.670285999999999], "properties": {"magmom": 0.028}, "label": "Y", "xyz": [0.9916265, 5.839833339648, 15.560953582683977]}, {"species": [{"element": "Y", "occu": 1}], "abc": [0.25, 0.13772, 0.601480999999999], "properties": {"magmom": -0.016}, "label": "Y", "xyz": [0.9916265, 1.6756711910400002, 13.963618398513978]}, {"species": [{"element": "Te", "occu": 1}], "abc": [0.25, 0.728744, 0.639633999999999], "properties": {"magmom": 0.001}, "label": "Te", "xyz": [0.9916265, 8.866797316608, 14.849355325795978]}, {"species": [{"element": "Te", "occu": 1}], "abc": [0.75, 0.228744, 0.860366], "properties": {"magmom": 0.001}, "label": "Te", "xyz": [2.9748795, 2.783181316608, 19.973735674204]}, {"species": [{"element": "Te", "occu": 1}], "abc": [0.75, 0.9505309999999991, 0.26743], "properties": {"magmom": 0.002}, "label": "Te", "xyz": [2.9748795, 11.56533120019199, 6.20849281742]}, {"species": [{"element": "Te", "occu": 1}], "abc": [0.75, 0.271256, 0.360365999999999], "properties": {"magmom": 0.001}, "label": "Te", "xyz": [2.9748795, 3.300434683392, 8.366038674203978]}, {"species": [{"element": "Te", "occu": 1}], "abc": [0.25, 0.771255999999999, 0.139633999999999], "properties": {"magmom": 0.001}, "label": "Te", "xyz": [0.9916265, 9.384050683391989, 3.241658325795977]}, {"species": [{"element": "Te", "occu": 1}], "abc": [0.75, 0.549469, 0.7674300000000001], "properties": {"magmom": 0.002}, "label": "Te", "xyz": [2.9748795, 6.685516799808, 17.81618981742]}, {"species": [{"element": "Te", "occu": 1}], "abc": [0.25, 0.049469, 0.73257], "properties": {"magmom": 0.002}, "label": "Te", "xyz": [0.9916265, 0.601900799808, 17.006901182580002]}, {"species": [{"element": "Te", "occu": 1}], "abc": [0.25, 0.450530999999999, 0.23257000000000003], "properties": {"magmom": 0.002}, "label": "Te", "xyz": [0.9916265, 5.481715200191988, 5.399204182580001]}]}, "task_ids": null, "uncorrected_energy_per_atom": null, "energy_per_atom": -6.374805915, "formation_energy_per_atom": -0.613666772037036, "energy_above_hull": 0.057704685000000006, "is_stable": false, "equilibrium_reaction_energy_per_atom": null, "decomposes_to": null, "xas": null, "grain_boundaries": null, "band_gap": 0.0, "cbm": null, "vbm": null, "efermi": 4.2858095800000005, "is_gap_direct": null, "is_metal": null, "es_source_calc_id": null, "bandstructure": null, "dos": null, "dos_energy_up": null, "dos_energy_down": null, "is_magnetic": null, "ordering": null, "total_magnetization": 2.5721893, "total_magnetization_normalized_vol": null, "total_magnetization_normalized_formula_units": null, "num_magnetic_sites": null, "num_unique_magnetic_sites": null, "types_of_magnetic_species": null, "bulk_modulus": null, "shear_modulus": null, "universal_anisotropy": null, "homogeneous_poisson": null, "e_total": null, "e_ionic": null, "e_electronic": null, "n": null, "e_ij_max": null, "weighted_surface_energy_EV_PER_ANG2": null, "weighted_surface_energy": null, "weighted_work_function": null, "surface_anisotropy": null, "shape_factor": null, "has_reconstructed": null, "possible_species": null, "has_props": null, "theoretical": null, "database_IDs": null, "fields_not_requested": ["builder_meta", "nsites", "elements", "nelements", "composition", "composition_reduced", "chemsys", "symmetry", "property_name", "deprecated", "deprecation_reasons", "last_updated", "origins", "warnings", "task_ids", "uncorrected_energy_per_atom", "equilibrium_reaction_energy_per_atom", "decomposes_to", "xas", "grain_boundaries", "cbm", "vbm", "is_gap_direct", "is_metal", "es_source_calc_id", "bandstructure", "dos", "dos_energy_up", "dos_energy_down", "is_magnetic", "ordering", "total_magnetization_normalized_vol", "total_magnetization_normalized_formula_units", "num_magnetic_sites", "num_unique_magnetic_sites", "types_of_magnetic_species", "bulk_modulus", "shear_modulus", "universal_anisotropy", "homogeneous_poisson", "e_total", "e_ionic", "e_electronic", "n", "e_ij_max", "weighted_surface_energy_EV_PER_ANG2", "weighted_surface_energy", "weighted_work_function", "surface_anisotropy", "shape_factor", "has_reconstructed", "possible_species", "has_props", "theoretical", "database_IDs"]}