{"builder_meta": null, "nsites": null, "elements": null, "nelements": null, "composition": null, "composition_reduced": null, "formula_pretty": "Y8Co5", "formula_anonymous": "A5B8", "chemsys": null, "volume": 1193.1363797258753, "density": 5.599887787725599, "density_atomic": 22.944930379343756, "symmetry": null, "property_name": null, "material_id": "mp-573425", "deprecated": null, "deprecation_reasons": null, "last_updated": null, "origins": null, "warnings": null, "structure": {"@module": "pymatgen.core.structure", "@class": "Structure", "charge": 0, "lattice": {"matrix": [[7.184873, 0.0, 0.0], [0.0, 7.040008, 0.0], [0.0, 5.127168, 23.588365]], "pbc": [true, true, true], "a": 7.184873, "b": 7.040008, "c": 24.139155227005126, "alpha": 77.73693666993726, "beta": 90.0, "gamma": 90.0, "volume": 1193.1363797258753}, "properties": {}, "sites": [{"species": [{"element": "Y", "occu": 1}], "abc": [0.182844999999999, 0.644408, 0.9628549999999991], "properties": {"magmom": -0.0}, "label": "Y", "xyz": [1.3137181036849928, 9.473356819903996, 22.71217518207498]}, {"species": [{"element": "Y", "occu": 1}], "abc": [0.682844999999999, 0.355591999999999, 0.537145], "properties": {"magmom": -0.0}, "label": "Y", "xyz": [4.906154603684993, 5.257403180095993, 12.670372317924999]}, {"species": [{"element": "Y", "occu": 1}], "abc": [0.817155, 0.355591999999999, 0.037145], "properties": {"magmom": -0.0}, "label": "Y", "xyz": [5.871154896315, 2.693819180095993, 0.876189817925]}, {"species": [{"element": "Y", "occu": 1}], "abc": [0.317154999999999, 0.644408, 0.462854999999999], "properties": {"magmom": -0.0}, "label": "Y", "xyz": [2.278718396314993, 6.909772819903996, 10.917992682074976]}, {"species": [{"element": "Y", "occu": 1}], "abc": [0.166708, 0.530424999999999, 0.8227200000000001], "properties": {"magmom": 0.0}, "label": "Y", "xyz": [1.197775808084, 7.9524199003599945, 19.406619652800003]}, {"species": [{"element": "Y", "occu": 1}], "abc": [0.666708, 0.469574999999999, 0.6772800000000001], "properties": {"magmom": 0.0}, "label": "Y", "xyz": [4.790212308084, 6.778340099639994, 15.975927847200003]}, {"species": [{"element": "Y", "occu": 1}], "abc": [0.833291999999999, 0.469574999999999, 0.17728000000000002], "properties": {"magmom": 0.0}, "label": "Y", "xyz": [5.987097191915993, 4.2147560996399935, 4.181745347200001]}, {"species": [{"element": "Y", "occu": 1}], "abc": [0.333292, 0.530424999999999, 0.32272], "properties": {"magmom": 0.0}, "label": "Y", "xyz": [2.3946606919159996, 5.388835900359993, 7.6124371528]}, {"species": [{"element": "Y", "occu": 1}], "abc": [0.815724999999999, 0.688197, 0.29761000000000004], "properties": {"magmom": 0.0}, "label": "Y", "xyz": [5.8608805279249925, 6.3708088540559995, 7.020133307650001]}, {"species": [{"element": "Y", "occu": 1}], "abc": [0.315725, 0.311803, 0.20239000000000001], "properties": {"magmom": 0.0}, "label": "Y", "xyz": [2.2684440279249998, 3.232783145944, 4.774049192350001]}, {"species": [{"element": "Y", "occu": 1}], "abc": [0.184275, 0.311803, 0.7023900000000001], "properties": {"magmom": 0.0}, "label": "Y", "xyz": [1.3239924720749998, 5.796367145944, 16.56823169235]}, {"species": [{"element": "Y", "occu": 1}], "abc": [0.684275, 0.688197, 0.79761], "properties": {"magmom": 0.0}, "label": "Y", "xyz": [4.916428972075, 8.934392854056, 18.81431580765]}, {"species": [{"element": "Y", "occu": 1}], "abc": [0.835151, 0.786493999999999, 0.441291999999999], "properties": {"magmom": -0.0}, "label": "Y", "xyz": [6.000453870823, 7.799502273007988, 10.409356767579977]}, {"species": [{"element": "Y", "occu": 1}], "abc": [0.335151, 0.213506, 0.058707999999999004], "properties": {"magmom": -0.0}, "label": "Y", "xyz": [2.4080173708229995, 1.8040897269919949, 1.3848257324199764]}, {"species": [{"element": "Y", "occu": 1}], "abc": [0.164849, 0.213506, 0.558708], "properties": {"magmom": -0.0}, "label": "Y", "xyz": [1.1844191291769999, 4.367673726992, 13.17900823242]}, {"species": [{"element": "Y", "occu": 1}], "abc": [0.664849, 0.786493999999999, 0.941291999999999], "properties": {"magmom": -0.0}, "label": "Y", "xyz": [4.776855629177, 10.363086273007989, 22.203539267579977]}, {"species": [{"element": "Y", "occu": 1}], "abc": [0.18644000000000002, 0.000832, 0.334555999999999], "properties": {"magmom": 0.0}, "label": "Y", "xyz": [1.33954772212, 1.7211821040639952, 7.891629040939977]}, {"species": [{"element": "Y", "occu": 1}], "abc": [0.68644, 0.999168, 0.165443999999999], "properties": {"magmom": 0.0}, "label": "Y", "xyz": [4.9319842221200005, 7.882409895935995, 3.9025534590599764]}, {"species": [{"element": "Y", "occu": 1}], "abc": [0.8135600000000001, 0.999168, 0.665443999999999], "properties": {"magmom": 0.0}, "label": "Y", "xyz": [5.84532527788, 10.445993895935995, 15.696735959059977]}, {"species": [{"element": "Y", "occu": 1}], "abc": [0.31356, 0.000832, 0.834556], "properties": {"magmom": 0.0}, "label": "Y", "xyz": [2.25288877788, 4.284766104064, 19.685811540939998]}, {"species": [{"element": "Y", "occu": 1}], "abc": [0.187811999999999, 0.817917999999999, 0.196272], "properties": {"magmom": 0.0}, "label": "Y", "xyz": [1.3494053678759927, 6.7644687810399935, 4.62973557528]}, {"species": [{"element": "Y", "occu": 1}], "abc": [0.687812, 0.182082, 0.303728], "properties": {"magmom": 0.0}, "label": "Y", "xyz": [4.941841867876, 2.83912321896, 7.16444692472]}, {"species": [{"element": "Y", "occu": 1}], "abc": [0.812187999999999, 0.182082, 0.803728], "properties": {"magmom": 0.0}, "label": "Y", "xyz": [5.835467632123993, 5.40270721896, 18.958629424719998]}, {"species": [{"element": "Y", "occu": 1}], "abc": [0.312187999999999, 0.817917999999999, 0.696272], "properties": {"magmom": 0.0}, "label": "Y", "xyz": [2.243031132123993, 9.328052781039993, 16.42391807528]}, {"species": [{"element": "Y", "occu": 1}], "abc": [0.959673999999999, 0.315615, 0.415106], "properties": {"magmom": -0.0}, "label": "Y", "xyz": [6.8951358114019925, 4.350250324728, 9.791671841689999]}, {"species": [{"element": "Y", "occu": 1}], "abc": [0.45967399999999903, 0.684385, 0.084894], "properties": {"magmom": -0.0}, "label": "Y", "xyz": [3.3026993114019927, 5.253341675272, 2.00251065831]}, {"species": [{"element": "Y", "occu": 1}], "abc": [0.040326, 0.684385, 0.584894], "properties": {"magmom": -0.0}, "label": "Y", "xyz": [0.289737188598, 7.8169256752719996, 13.796693158310001]}, {"species": [{"element": "Y", "occu": 1}], "abc": [0.540326, 0.315615, 0.915106], "properties": {"magmom": -0.0}, "label": "Y", "xyz": [3.8821736885979994, 6.9138343247280005, 21.58585434169]}, {"species": [{"element": "Y", "occu": 1}], "abc": [0.977812999999999, 0.859374, 0.064579], "properties": {"magmom": -0.0}, "label": "Y", "xyz": [7.025462222748993, 6.381107217264, 1.5233130233349998]}, {"species": [{"element": "Y", "occu": 1}], "abc": [0.477813, 0.140626, 0.435421], "properties": {"magmom": -0.0}, "label": "Y", "xyz": [3.4330257227489995, 3.222484782736, 10.270869476665]}, {"species": [{"element": "Y", "occu": 1}], "abc": [0.022187, 0.140626, 0.935421], "properties": {"magmom": -0.0}, "label": "Y", "xyz": [0.15941077725099997, 5.786068782736, 22.065051976665]}, {"species": [{"element": "Y", "occu": 1}], "abc": [0.522187, 0.859374, 0.564578999999999], "properties": {"magmom": -0.0}, "label": "Y", "xyz": [3.7518472772509996, 8.944691217263994, 13.317495523334978]}, {"species": [{"element": "Co", "occu": 1}], "abc": [0.146114, 0.9740400000000001, 0.48321000000000003], "properties": {"magmom": 0.002}, "label": "Co", "xyz": [1.0498105335219998, 9.334748241600002, 11.39813385165]}, {"species": [{"element": "Co", "occu": 1}], "abc": [0.646114, 0.02596, 0.016790000000000003], "properties": {"magmom": 0.002}, "label": "Co", "xyz": [4.642247033522, 0.2688437584, 0.3960486483500001]}, {"species": [{"element": "Co", "occu": 1}], "abc": [0.853885999999999, 0.02596, 0.5167900000000001], "properties": {"magmom": 0.002}, "label": "Co", "xyz": [6.135062466477993, 2.8324277584, 12.190231148350001]}, {"species": [{"element": "Co", "occu": 1}], "abc": [0.353886, 0.9740400000000001, 0.98321], "properties": {"magmom": 0.002}, "label": "Co", "xyz": [2.5426259664779995, 11.898332241600002, 23.19231635165]}, {"species": [{"element": "Co", "occu": 1}], "abc": [0.032806, 0.167264, 0.132137], "properties": {"magmom": 0.001}, "label": "Co", "xyz": [0.235706943638, 1.855028496128, 3.116895786005]}, {"species": [{"element": "Co", "occu": 1}], "abc": [0.532806, 0.832735999999999, 0.367863], "properties": {"magmom": 0.001}, "label": "Co", "xyz": [3.828143443638, 7.748563503871994, 8.677286713995]}, {"species": [{"element": "Co", "occu": 1}], "abc": [0.967194, 0.832735999999999, 0.867862999999999], "properties": {"magmom": 0.001}, "label": "Co", "xyz": [6.9491660563619995, 10.312147503871989, 20.47146921399498]}, {"species": [{"element": "Co", "occu": 1}], "abc": [0.467194, 0.167264, 0.632137], "properties": {"magmom": 0.001}, "label": "Co", "xyz": [3.3567295563619997, 4.418612496128, 14.911078286004999]}, {"species": [{"element": "Co", "occu": 1}], "abc": [0.030843, 0.360183, 0.282261], "properties": {"magmom": -0.001}, "label": "Co", "xyz": [0.221603037939, 3.982890768312, 6.658075493265]}, {"species": [{"element": "Co", "occu": 1}], "abc": [0.530843, 0.639817, 0.217739], "properties": {"magmom": -0.001}, "label": "Co", "xyz": [3.8140395379389993, 5.620701231688, 5.136107006734999]}, {"species": [{"element": "Co", "occu": 1}], "abc": [0.969156999999999, 0.639817, 0.717739], "properties": {"magmom": -0.001}, "label": "Co", "xyz": [6.963269962060993, 8.184285231688001, 16.930289506735]}, {"species": [{"element": "Co", "occu": 1}], "abc": [0.469157, 0.360183, 0.782261], "properties": {"magmom": -0.001}, "label": "Co", "xyz": [3.370833462061, 6.546474768312, 18.452257993265]}, {"species": [{"element": "Co", "occu": 1}], "abc": [0.027548999999999, 0.905474, 0.76543], "properties": {"magmom": -0.001}, "label": "Co", "xyz": [0.1979360662769928, 10.299032406032001, 18.05524222195]}, {"species": [{"element": "Co", "occu": 1}], "abc": [0.527548999999999, 0.094526, 0.7345700000000001], "properties": {"magmom": -0.001}, "label": "Co", "xyz": [3.790372566276993, 4.4317275939680005, 17.32730527805]}, {"species": [{"element": "Co", "occu": 1}], "abc": [0.972451, 0.094526, 0.23457000000000003], "properties": {"magmom": -0.001}, "label": "Co", "xyz": [6.986936933722999, 1.868143593968, 5.533122778050001]}, {"species": [{"element": "Co", "occu": 1}], "abc": [0.472450999999999, 0.905474, 0.26543], "properties": {"magmom": -0.001}, "label": "Co", "xyz": [3.394500433722993, 7.735448406032001, 6.26105972195]}, {"species": [{"element": "Co", "occu": 1}], "abc": [0.882185, 0.509456, 0.904341], "properties": {"magmom": 0.0}, "label": "Co", "xyz": [6.338387187505, 8.223282551936, 21.331925592464998]}, {"species": [{"element": "Co", "occu": 1}], "abc": [0.382185, 0.490544, 0.595658999999999], "properties": {"magmom": 0.0}, "label": "Co", "xyz": [2.7459506875049997, 6.5074774480639945, 14.050621907534977]}, {"species": [{"element": "Co", "occu": 1}], "abc": [0.117814999999999, 0.490544, 0.095659], "properties": {"magmom": 0.0}, "label": "Co", "xyz": [0.8464858124949928, 3.9438934480639998, 2.256439407535]}, {"species": [{"element": "Co", "occu": 1}], "abc": [0.617815, 0.509456, 0.404341], "properties": {"magmom": 0.0}, "label": "Co", "xyz": [4.4389223124949995, 5.659698551936001, 9.537743092465]}]}, "task_ids": null, "uncorrected_energy_per_atom": null, "energy_per_atom": -6.884852629999999, "formation_energy_per_atom": -0.13563604538461502, "energy_above_hull": 0.001223444423077, "is_stable": false, "equilibrium_reaction_energy_per_atom": null, "decomposes_to": null, "xas": null, "grain_boundaries": null, "band_gap": 0.0, "cbm": null, "vbm": null, "efermi": 3.64292133, "is_gap_direct": null, "is_metal": null, "es_source_calc_id": null, "bandstructure": null, "dos": null, "dos_energy_up": null, "dos_energy_down": null, "is_magnetic": null, "ordering": null, "total_magnetization": 0.0038499, "total_magnetization_normalized_vol": null, "total_magnetization_normalized_formula_units": null, "num_magnetic_sites": null, "num_unique_magnetic_sites": null, "types_of_magnetic_species": null, "bulk_modulus": null, "shear_modulus": null, "universal_anisotropy": null, "homogeneous_poisson": null, "e_total": null, "e_ionic": null, "e_electronic": null, "n": null, "e_ij_max": null, "weighted_surface_energy_EV_PER_ANG2": null, "weighted_surface_energy": null, "weighted_work_function": null, "surface_anisotropy": null, "shape_factor": null, "has_reconstructed": null, "possible_species": null, "has_props": null, "theoretical": null, "database_IDs": null, "fields_not_requested": ["builder_meta", "nsites", "elements", "nelements", "composition", "composition_reduced", "chemsys", "symmetry", "property_name", "deprecated", "deprecation_reasons", "last_updated", "origins", "warnings", "task_ids", "uncorrected_energy_per_atom", "equilibrium_reaction_energy_per_atom", "decomposes_to", "xas", "grain_boundaries", "cbm", "vbm", "is_gap_direct", "is_metal", "es_source_calc_id", "bandstructure", "dos", "dos_energy_up", "dos_energy_down", "is_magnetic", "ordering", "total_magnetization_normalized_vol", "total_magnetization_normalized_formula_units", "num_magnetic_sites", "num_unique_magnetic_sites", "types_of_magnetic_species", "bulk_modulus", "shear_modulus", "universal_anisotropy", "homogeneous_poisson", "e_total", "e_ionic", "e_electronic", "n", "e_ij_max", "weighted_surface_energy_EV_PER_ANG2", "weighted_surface_energy", "weighted_work_function", "surface_anisotropy", "shape_factor", "has_reconstructed", "possible_species", "has_props", "theoretical", "database_IDs"]}