{
  "builder_meta": null,
  "nsites": null,
  "elements": null,
  "nelements": null,
  "composition": null,
  "composition_reduced": null,
  "formula_pretty": "Y8Te3",
  "formula_anonymous": "A3B8",
  "chemsys": null,
  "volume": 1320.2617684754248,
  "density": 5.504082585642282,
  "density_atomic": 30.00594928353238,
  "symmetry": null,
  "property_name": null,
  "material_id": "mp-1207735",
  "deprecated": null,
  "deprecation_reasons": null,
  "last_updated": null,
  "origins": null,
  "warnings": null,
  "structure": {
    "@module": "pymatgen.core.structure",
    "@class": "Structure",
    "charge": 0,
    "lattice": {
      "matrix": [
        [2.037813, 15.678405, 0.0],
        [-2.037813, 15.678405, 0.0],
        [0.0, 13.320064, 20.661595]
      ],
      "pbc": [true, true, true],
      "a": 15.810283525825652,
      "b": 15.810283525825652,
      "c": 24.58303506298848,
      "alpha": 57.49861254108325,
      "beta": 57.49861254108325,
      "gamma": 14.8110955478199,
      "volume": 1320.2617684754248
    },
    "properties": {},
    "sites": [
      {
        "species": [{ "element": "Y", "occu": 1 }],
        "abc": [0.48948, 0.48948, 0.43244000000000005],
        "properties": { "magmom": 0.008 },
        "label": "Y",
        "xyz": [0.0, 21.10865983496, 8.9349001418]
      },
      {
        "species": [{ "element": "Y", "occu": 1 }],
        "abc": [0.5105200000000001, 0.5105200000000001, 0.5675600000000001],
        "properties": { "magmom": 0.008 },
        "label": "Y",
        "xyz": [0.0, 23.568214165040004, 11.7266948582]
      },
      {
        "species": [{ "element": "Y", "occu": 1 }],
        "abc": [0.666455, 0.666455, 0.15491000000000002],
        "properties": { "magmom": 0.008 },
        "label": "Y",
        "xyz": [0.0, 22.96131392279, 3.2006876814500003]
      },
      {
        "species": [{ "element": "Y", "occu": 1 }],
        "abc": [0.333545, 0.333545, 0.8450900000000001],
        "properties": { "magmom": 0.008 },
        "label": "Y",
        "xyz": [0.0, 21.71556007721, 17.46090731855]
      },
      {
        "species": [{ "element": "Y", "occu": 1 }],
        "abc": [0.7920600000000001, 0.7920600000000001, 0.132594],
        "properties": { "magmom": 0.001 },
        "label": "Y",
        "xyz": [0.0, 26.602635494616003, 2.7396035274299995]
      },
      {
        "species": [{ "element": "Y", "occu": 1 }],
        "abc": [0.20794, 0.20794, 0.867406],
        "properties": { "magmom": 0.001 },
        "label": "Y",
        "xyz": [0.0, 18.074238505384002, 17.92199147257]
      },
      {
        "species": [{ "element": "Y", "occu": 1 }],
        "abc": [0.126026, 0.126026, 0.067735999999999],
        "properties": { "magmom": 0.001 },
        "label": "Y",
        "xyz": [0.0, 4.854021192163987, 1.3995337989199794]
      },
      {
        "species": [{ "element": "Y", "occu": 1 }],
        "abc": [0.873973999999999, 0.873973999999999, 0.932264],
        "properties": { "magmom": 0.001 },
        "label": "Y",
        "xyz": [0.0, 39.82285280783597, 19.262061201079998]
      },
      {
        "species": [{ "element": "Y", "occu": 1 }],
        "abc": [0.803102, 0.803102, 0.750733],
        "properties": { "magmom": 0.004 },
        "label": "Y",
        "xyz": [0.0, 35.182528431532, 15.511341199134998]
      },
      {
        "species": [{ "element": "Y", "occu": 1 }],
        "abc": [0.196898, 0.196898, 0.249267],
        "properties": { "magmom": 0.004 },
        "label": "Y",
        "xyz": [0.0, 9.494345568467999, 5.150253800864999]
      },
      {
        "species": [{ "element": "Y", "occu": 1 }],
        "abc": [0.935117, 0.935117, 0.056192],
        "properties": { "magmom": -0.001 },
        "label": "Y",
        "xyz": [0.0, 30.070767133058, 1.1610163462399998]
      },
      {
        "species": [{ "element": "Y", "occu": 1 }],
        "abc": [0.064883, 0.064883, 0.943808],
        "properties": { "magmom": -0.001 },
        "label": "Y",
        "xyz": [0.0, 14.606106866942, 19.500578653759998]
      },
      {
        "species": [{ "element": "Y", "occu": 1 }],
        "abc": [0.908366999999999, 0.908366999999999, 0.411425],
        "properties": { "magmom": 0.01 },
        "label": "Y",
        "xyz": [0.0, 33.96369876046997, 8.500696722874999]
      },
      {
        "species": [{ "element": "Y", "occu": 1 }],
        "abc": [0.091632999999999, 0.091632999999999, 0.588575],
        "properties": { "magmom": 0.01 },
        "label": "Y",
        "xyz": [0.0, 10.713175239529969, 12.160898277124998]
      },
      {
        "species": [{ "element": "Y", "occu": 1 }],
        "abc": [0.829228, 0.829228, 0.340821],
        "properties": { "magmom": -0.008 },
        "label": "Y",
        "xyz": [0.0, 30.541702375224, 7.041905469494999]
      },
      {
        "species": [{ "element": "Y", "occu": 1 }],
        "abc": [0.170771999999999, 0.170771999999999, 0.659179],
        "properties": { "magmom": -0.008 },
        "label": "Y",
        "xyz": [0.0, 14.13517162477597, 13.619689530504997]
      },
      {
        "species": [{ "element": "Y", "occu": 1 }],
        "abc": [0.780397, 0.780397, 0.605178],
        "properties": { "magmom": 0.002 },
        "label": "Y",
        "xyz": [0.0, 32.531770144962, 12.503942738909998]
      },
      {
        "species": [{ "element": "Y", "occu": 1 }],
        "abc": [0.219603, 0.219603, 0.394822],
        "properties": { "magmom": 0.002 },
        "label": "Y",
        "xyz": [0.0, 12.145103855038, 8.15765226109]
      },
      {
        "species": [{ "element": "Y", "occu": 1 }],
        "abc": [0.92022, 0.92022, 0.573348],
        "properties": { "magmom": 0.007 },
        "label": "Y",
        "xyz": [0.0, 36.492195752472, 11.846284170059999]
      },
      {
        "species": [{ "element": "Y", "occu": 1 }],
        "abc": [0.07978, 0.07978, 0.426652],
        "properties": { "magmom": 0.007 },
        "label": "Y",
        "xyz": [0.0, 8.184678247528, 8.81531082994]
      },
      {
        "species": [{ "element": "Y", "occu": 1 }],
        "abc": [0.265301, 0.265301, 0.038765],
        "properties": { "magmom": 0.005 },
        "label": "Y",
        "xyz": [0.0, 8.83534533077, 0.800946730175]
      },
      {
        "species": [{ "element": "Y", "occu": 1 }],
        "abc": [0.734699, 0.734699, 0.961235],
        "properties": { "magmom": 0.005 },
        "label": "Y",
        "xyz": [0.0, 35.84152866923, 19.860648269825]
      },
      {
        "species": [{ "element": "Y", "occu": 1 }],
        "abc": [0.953538, 0.953538, 0.720155],
        "properties": { "magmom": 0.011 },
        "label": "Y",
        "xyz": [0.0, 39.492420583699996, 14.879550947224999]
      },
      {
        "species": [{ "element": "Y", "occu": 1 }],
        "abc": [0.046461999999999004, 0.046461999999999004, 0.279845],
        "properties": { "magmom": 0.011 },
        "label": "Y",
        "xyz": [0.0, 5.184453416299969, 5.782044052774999]
      },
      {
        "species": [{ "element": "Y", "occu": 1 }],
        "abc": [0.700974, 0.700974, 0.52942],
        "properties": { "magmom": -0.004 },
        "label": "Y",
        "xyz": [0.0, 29.03221681582, 10.9386616249]
      },
      {
        "species": [{ "element": "Y", "occu": 1 }],
        "abc": [0.299026, 0.299026, 0.47058000000000005],
        "properties": { "magmom": -0.004 },
        "label": "Y",
        "xyz": [0.0, 15.644657184180002, 9.7229333751]
      },
      {
        "species": [{ "element": "Y", "occu": 1 }],
        "abc": [0.348887, 0.348887, 0.198673],
        "properties": { "magmom": 0.0 },
        "label": "Y",
        "xyz": [0.0, 13.586320445542, 4.104901063434999]
      },
      {
        "species": [{ "element": "Y", "occu": 1 }],
        "abc": [0.651112999999999, 0.651112999999999, 0.801327],
        "properties": { "magmom": 0.0 },
        "label": "Y",
        "xyz": [0.0, 31.090553554457973, 16.556693936564997]
      },
      {
        "species": [{ "element": "Y", "occu": 1 }],
        "abc": [0.509208, 0.509208, 0.089553],
        "properties": { "magmom": 0.002 },
        "label": "Y",
        "xyz": [0.0, 17.159990197872, 1.8503078170349998]
      },
      {
        "species": [{ "element": "Y", "occu": 1 }],
        "abc": [0.49079199999999906, 0.49079199999999906, 0.910447],
        "properties": { "magmom": 0.002 },
        "label": "Y",
        "xyz": [0.0, 27.51688380212797, 18.811287182965]
      },
      {
        "species": [{ "element": "Y", "occu": 1 }],
        "abc": [0.439949, 0.439949, 0.282051999999999],
        "properties": { "magmom": 0.008 },
        "label": "Y",
        "xyz": [0.0, 17.552347894017988, 5.82764419293998]
      },
      {
        "species": [{ "element": "Y", "occu": 1 }],
        "abc": [0.560051, 0.560051, 0.717947999999999],
        "properties": { "magmom": 0.008 },
        "label": "Y",
        "xyz": [0.0, 27.124526105981985, 14.83395080705998]
      },
      {
        "species": [{ "element": "Te", "occu": 1 }],
        "abc": [0.629896, 0.629896, 0.472182],
        "properties": { "magmom": -0.0 },
        "label": "Te",
        "xyz": [0.0, 26.041023651408, 9.756033250289999]
      },
      {
        "species": [{ "element": "Te", "occu": 1 }],
        "abc": [0.370104, 0.370104, 0.527818],
        "properties": { "magmom": -0.0 },
        "label": "Te",
        "xyz": [0.0, 18.635850348592, 10.90556174971]
      },
      {
        "species": [{ "element": "Te", "occu": 1 }],
        "abc": [0.372339, 0.372339, 0.030618999999999],
        "properties": { "magmom": -0.0 },
        "label": "Te",
        "xyz": [0.0, 12.083210318205987, 0.6326373773049793]
      },
      {
        "species": [{ "element": "Te", "occu": 1 }],
        "abc": [0.627661, 0.627661, 0.969380999999999],
        "properties": { "magmom": -0.0 },
        "label": "Te",
        "xyz": [0.0, 32.59366368179399, 20.02895762269498]
      },
      {
        "species": [{ "element": "Te", "occu": 1 }],
        "abc": [0.928276, 0.928276, 0.192155],
        "properties": { "magmom": -0.0 },
        "label": "Te",
        "xyz": [0.0, 31.66729105748, 3.9702287872249995]
      },
      {
        "species": [{ "element": "Te", "occu": 1 }],
        "abc": [0.071724, 0.071724, 0.807844999999999],
        "properties": { "magmom": -0.0 },
        "label": "Te",
        "xyz": [0.0, 13.009582942519987, 16.69136621277498]
      },
      {
        "species": [{ "element": "Te", "occu": 1 }],
        "abc": [0.554868, 0.554868, 0.176678],
        "properties": { "magmom": 0.0 },
        "label": "Te",
        "xyz": [0.0, 19.752252718472, 3.65044928141]
      },
      {
        "species": [{ "element": "Te", "occu": 1 }],
        "abc": [0.44513199999999903, 0.44513199999999903, 0.823322],
        "properties": { "magmom": 0.0 },
        "label": "Te",
        "xyz": [0.0, 24.92462128152797, 17.011145718589997]
      },
      {
        "species": [{ "element": "Te", "occu": 1 }],
        "abc": [0.605843, 0.605843, 0.31352],
        "properties": { "magmom": -0.0 },
        "label": "Te",
        "xyz": [0.0, 23.17341030611, 6.4778232644]
      },
      {
        "species": [{ "element": "Te", "occu": 1 }],
        "abc": [0.394157, 0.394157, 0.6864800000000001],
        "properties": { "magmom": -0.0 },
        "label": "Te",
        "xyz": [0.0, 21.50346369389, 14.1837717356]
      },
      {
        "species": [{ "element": "Te", "occu": 1 }],
        "abc": [0.758716, 0.758716, 0.280145],
        "properties": { "magmom": -0.0 },
        "label": "Te",
        "xyz": [0.0, 27.52246278524, 5.788242531274999]
      },
      {
        "species": [{ "element": "Te", "occu": 1 }],
        "abc": [0.241284, 0.241284, 0.719855],
        "properties": { "magmom": -0.0 },
        "label": "Te",
        "xyz": [0.0, 17.15441121476, 14.873352468724999]
      }
    ]
  },
  "task_ids": null,
  "uncorrected_energy_per_atom": null,
  "energy_per_atom": -6.405552781363636,
  "formation_energy_per_atom": -0.8144028104545441,
  "energy_above_hull": 0.009553068636365,
  "is_stable": false,
  "equilibrium_reaction_energy_per_atom": null,
  "decomposes_to": null,
  "xas": null,
  "grain_boundaries": null,
  "band_gap": 0.0,
  "cbm": null,
  "vbm": null,
  "efermi": 4.8772888,
  "is_gap_direct": null,
  "is_metal": null,
  "es_source_calc_id": null,
  "bandstructure": null,
  "dos": null,
  "dos_energy_up": null,
  "dos_energy_down": null,
  "is_magnetic": null,
  "ordering": null,
  "total_magnetization": 0.1230597,
  "total_magnetization_normalized_vol": null,
  "total_magnetization_normalized_formula_units": null,
  "num_magnetic_sites": null,
  "num_unique_magnetic_sites": null,
  "types_of_magnetic_species": null,
  "bulk_modulus": null,
  "shear_modulus": null,
  "universal_anisotropy": null,
  "homogeneous_poisson": null,
  "e_total": null,
  "e_ionic": null,
  "e_electronic": null,
  "n": null,
  "e_ij_max": null,
  "weighted_surface_energy_EV_PER_ANG2": null,
  "weighted_surface_energy": null,
  "weighted_work_function": null,
  "surface_anisotropy": null,
  "shape_factor": null,
  "has_reconstructed": null,
  "possible_species": null,
  "has_props": null,
  "theoretical": null,
  "database_IDs": null,
  "fields_not_requested": [
    "builder_meta",
    "nsites",
    "elements",
    "nelements",
    "composition",
    "composition_reduced",
    "chemsys",
    "symmetry",
    "property_name",
    "deprecated",
    "deprecation_reasons",
    "last_updated",
    "origins",
    "warnings",
    "task_ids",
    "uncorrected_energy_per_atom",
    "equilibrium_reaction_energy_per_atom",
    "decomposes_to",
    "xas",
    "grain_boundaries",
    "cbm",
    "vbm",
    "is_gap_direct",
    "is_metal",
    "es_source_calc_id",
    "bandstructure",
    "dos",
    "dos_energy_up",
    "dos_energy_down",
    "is_magnetic",
    "ordering",
    "total_magnetization_normalized_vol",
    "total_magnetization_normalized_formula_units",
    "num_magnetic_sites",
    "num_unique_magnetic_sites",
    "types_of_magnetic_species",
    "bulk_modulus",
    "shear_modulus",
    "universal_anisotropy",
    "homogeneous_poisson",
    "e_total",
    "e_ionic",
    "e_electronic",
    "n",
    "e_ij_max",
    "weighted_surface_energy_EV_PER_ANG2",
    "weighted_surface_energy",
    "weighted_work_function",
    "surface_anisotropy",
    "shape_factor",
    "has_reconstructed",
    "possible_species",
    "has_props",
    "theoretical",
    "database_IDs"
  ]
}
