{"builder_meta": null, "nsites": null, "elements": null, "nelements": null, "composition": null, "composition_reduced": null, "formula_pretty": "YAl", "formula_anonymous": "AB", "chemsys": null, "volume": 99.76944931186016, "density": 3.857604455549091, "density_atomic": 24.94236232796504, "symmetry": null, "property_name": null, "material_id": "mp-11228", "deprecated": null, "deprecation_reasons": null, "last_updated": null, "origins": null, "warnings": null, "structure": {"@module": "pymatgen.core.structure", "@class": "Structure", "charge": 0, "lattice": {"matrix": [[3.79431019, 0.0, -1.27903985], [0.0, 4.33716413, -0.0], [-0.06201888, 0.0, 6.08350579]], "pbc": [true, true, true], "a": 4.00408950397289, "b": 4.33716413, "c": 6.083821910480284, "alpha": 90.0, "beta": 109.21274872213908, "gamma": 90.0, "volume": 99.76944931186016}, "properties": {}, "sites": [{"species": [{"element": "Y", "occu": 1}], "abc": [0.85114967, 0.25, 0.70229934], "properties": {"magmom": 0.19}, "label": "Y", "xyz": [3.1859700476045982, 1.0842910325, 3.1837877549588294]}, {"species": [{"element": "Y", "occu": 1}], "abc": [0.14885033, 0.75, 0.29770066], "properties": {"magmom": 0.19}, "label": "Y", "xyz": [0.5463212623954019, 3.2528730974999998, 1.620678185041171]}, {"species": [{"element": "Al", "occu": 1}], "abc": [0.56818637, 0.25, 0.13637074], "properties": {"magmom": -0.017}, "label": "Al", "xyz": [2.1474177729505395, 1.0842910325, 0.10287917691974002]}, {"species": [{"element": "Al", "occu": 1}], "abc": [0.43181363, 0.75, 0.8636292600000001], "properties": {"magmom": -0.017}, "label": "Al", "xyz": [1.5848735370494609, 3.2528730974999998, 4.70158676308026]}]}, "task_ids": null, "uncorrected_energy_per_atom": null, "energy_per_atom": -13.9912782475, "formation_energy_per_atom": -0.468428602500001, "energy_above_hull": 0.0, "is_stable": true, "equilibrium_reaction_energy_per_atom": null, "decomposes_to": null, "xas": null, "grain_boundaries": null, "band_gap": 0.0, "cbm": null, "vbm": null, "efermi": 4.33870841, "is_gap_direct": null, "is_metal": null, "es_source_calc_id": null, "bandstructure": null, "dos": null, "dos_energy_up": null, "dos_energy_down": null, "is_magnetic": null, "ordering": null, "total_magnetization": 0.6984216, "total_magnetization_normalized_vol": null, "total_magnetization_normalized_formula_units": null, "num_magnetic_sites": null, "num_unique_magnetic_sites": null, "types_of_magnetic_species": null, "bulk_modulus": null, "shear_modulus": null, "universal_anisotropy": null, "homogeneous_poisson": null, "e_total": null, "e_ionic": null, "e_electronic": null, "n": null, "e_ij_max": null, "weighted_surface_energy_EV_PER_ANG2": null, "weighted_surface_energy": null, "weighted_work_function": null, "surface_anisotropy": null, "shape_factor": null, "has_reconstructed": null, "possible_species": null, "has_props": null, "theoretical": null, "database_IDs": null, "fields_not_requested": ["builder_meta", "nsites", "elements", "nelements", "composition", "composition_reduced", "chemsys", "symmetry", "property_name", "deprecated", "deprecation_reasons", "last_updated", "origins", "warnings", "task_ids", "uncorrected_energy_per_atom", "equilibrium_reaction_energy_per_atom", "decomposes_to", "xas", "grain_boundaries", "cbm", "vbm", "is_gap_direct", "is_metal", "es_source_calc_id", "bandstructure", "dos", "dos_energy_up", "dos_energy_down", "is_magnetic", "ordering", "total_magnetization_normalized_vol", "total_magnetization_normalized_formula_units", "num_magnetic_sites", "num_unique_magnetic_sites", "types_of_magnetic_species", "bulk_modulus", "shear_modulus", "universal_anisotropy", "homogeneous_poisson", "e_total", "e_ionic", "e_electronic", "n", "e_ij_max", "weighted_surface_energy_EV_PER_ANG2", "weighted_surface_energy", "weighted_work_function", "surface_anisotropy", "shape_factor", "has_reconstructed", "possible_species", "has_props", "theoretical", "database_IDs"]}