{"builder_meta": null, "nsites": null, "elements": null, "nelements": null, "composition": null, "composition_reduced": null, "formula_pretty": "YAl3", "formula_anonymous": "AB3", "chemsys": null, "volume": 156.22186005953927, "density": 3.610804964601175, "density_atomic": 19.52773250744241, "symmetry": null, "property_name": null, "material_id": "mp-865527", "deprecated": null, "deprecation_reasons": null, "last_updated": null, "origins": null, "warnings": null, "structure": {"@module": "pymatgen.core.structure", "@class": "Structure", "charge": 0, "lattice": {"matrix": [[6.26584768, -4.139999999999998e-06, -0.0], [-3.13292848, 5.42638175, 0.0], [0.0, 0.0, 4.59464322]], "pbc": [true, true, true], "a": 6.265847680001368, "b": 6.265848686134079, "c": 4.59464322, "alpha": 90.0, "beta": 90.0, "gamma": 120.00008153754307, "volume": 156.22186005953927}, "properties": {}, "sites": [{"species": [{"element": "Y", "occu": 1}], "abc": [0.333333, 0.666667, 0.75], "properties": {"magmom": -0.0}, "label": "Y", "xyz": [-6.226258720154476e-06, 3.6175882621286304, 3.445982415]}, {"species": [{"element": "Y", "occu": 1}], "abc": [0.666667999999999, 0.333333, 0.25], "properties": {"magmom": -0.0}, "label": "Y", "xyz": [3.132931692106394, 1.8087893478672301, 1.148660805]}, {"species": [{"element": "Al", "occu": 1}], "abc": [0.14520738, 0.29041476, 0.25], "properties": {"magmom": 0.0}, "label": "Al", "xyz": [-1.3475244863281333e-06, 1.5759007524360769, 1.148660805]}, {"species": [{"element": "Al", "occu": 1}], "abc": [0.70958624, 0.85479262, 0.25], "properties": {"magmom": 0.0}, "label": "Al", "xyz": [1.7681551519721057, 4.638428135515652, 1.148660805]}, {"species": [{"element": "Al", "occu": 1}], "abc": [0.14520738, 0.85479262, 0.25], "properties": {"magmom": 0.0}, "label": "Al", "xyz": [-1.7681568185999392, 4.638430472044132, 1.148660805]}, {"species": [{"element": "Al", "occu": 1}], "abc": [0.8547946200000001, 0.70958524, 0.75], "properties": {"magmom": 0.0}, "label": "Al", "xyz": [3.1329330792198467, 3.8504768575556434, 3.445982415]}, {"species": [{"element": "Al", "occu": 1}], "abc": [0.29041576, 0.14520838, 0.75], "properties": {"magmom": 0.0}, "label": "Al", "xyz": [1.3647734467947745, 0.7879549008578185, 3.445982415]}, {"species": [{"element": "Al", "occu": 1}], "abc": [0.85479362, 0.14520838, 0.75], "properties": {"magmom": 0.0}, "label": "Al", "xyz": [4.90107915151914, 0.7879525643334782, 3.445982415]}]}, "task_ids": null, "uncorrected_energy_per_atom": null, "energy_per_atom": -10.6019941, "formation_energy_per_atom": -0.47452011250000004, "energy_above_hull": 0.0, "is_stable": true, "equilibrium_reaction_energy_per_atom": null, "decomposes_to": null, "xas": null, "grain_boundaries": null, "band_gap": 0.0, "cbm": null, "vbm": null, "efermi": 6.05470019, "is_gap_direct": null, "is_metal": null, "es_source_calc_id": null, "bandstructure": null, "dos": null, "dos_energy_up": null, "dos_energy_down": null, "is_magnetic": null, "ordering": null, "total_magnetization": 0.0, "total_magnetization_normalized_vol": null, "total_magnetization_normalized_formula_units": null, "num_magnetic_sites": null, "num_unique_magnetic_sites": null, "types_of_magnetic_species": null, "bulk_modulus": null, "shear_modulus": null, "universal_anisotropy": null, "homogeneous_poisson": null, "e_total": null, "e_ionic": null, "e_electronic": null, "n": null, "e_ij_max": null, "weighted_surface_energy_EV_PER_ANG2": null, "weighted_surface_energy": null, "weighted_work_function": null, "surface_anisotropy": null, "shape_factor": null, "has_reconstructed": null, "possible_species": null, "has_props": null, "theoretical": null, "database_IDs": null, "fields_not_requested": ["builder_meta", "nsites", "elements", "nelements", "composition", "composition_reduced", "chemsys", "symmetry", "property_name", "deprecated", "deprecation_reasons", "last_updated", "origins", "warnings", "task_ids", "uncorrected_energy_per_atom", "equilibrium_reaction_energy_per_atom", "decomposes_to", "xas", "grain_boundaries", "cbm", "vbm", "is_gap_direct", "is_metal", "es_source_calc_id", "bandstructure", "dos", "dos_energy_up", "dos_energy_down", "is_magnetic", "ordering", "total_magnetization_normalized_vol", "total_magnetization_normalized_formula_units", "num_magnetic_sites", "num_unique_magnetic_sites", "types_of_magnetic_species", "bulk_modulus", "shear_modulus", "universal_anisotropy", "homogeneous_poisson", "e_total", "e_ionic", "e_electronic", "n", "e_ij_max", "weighted_surface_energy_EV_PER_ANG2", "weighted_surface_energy", "weighted_work_function", "surface_anisotropy", "shape_factor", "has_reconstructed", "possible_species", "has_props", "theoretical", "database_IDs"]}