{"builder_meta": null, "nsites": null, "elements": null, "nelements": null, "composition": null, "composition_reduced": null, "formula_pretty": "YAu", "formula_anonymous": "AB", "chemsys": null, "volume": 95.13620728764339, "density": 9.979424939186112, "density_atomic": 23.784051821910847, "symmetry": null, "property_name": null, "material_id": "mp-1066254", "deprecated": null, "deprecation_reasons": null, "last_updated": null, "origins": null, "warnings": null, "structure": {"@module": "pymatgen.core.structure", "@class": "Structure", "charge": 0, "lattice": {"matrix": [[-3.745980969999999, 1e-08, 0.0], [-0.0, 0.0, -4.64122669], [1.872991509999999, -5.47201761, -0.0]], "pbc": [true, true, true], "a": 3.745980969999999, "b": 4.64122669, "c": 5.7836903375511195, "alpha": 90.0, "beta": 108.8953245933034, "gamma": 90.0, "volume": 95.13620728764334}, "properties": {}, "sites": [{"species": [{"element": "Y", "occu": 1}], "abc": [0.86154612, 0.75, 0.72309323], "properties": {"magmom": 0.0}, "label": "Y", "xyz": [-1.872987889568859, -3.9567788796163192, -3.4809200175]}, {"species": [{"element": "Y", "occu": 1}], "abc": [0.13845388, 0.25, 0.27690677], "properties": {"magmom": 0.0}, "label": "Y", "xyz": [-1.5704311410180694e-06, -1.515238720383681, -1.1603066725]}, {"species": [{"element": "Au", "occu": 1}], "abc": [0.5871231100000001, 0.75, 0.17424623], "properties": {"magmom": 0.0}, "label": "Au", "xyz": [-1.8729902876677094, -0.9534784331648792, -3.4809200175]}, {"species": [{"element": "Au", "occu": 1}], "abc": [0.41287689, 0.25, 0.82575477], "properties": {"magmom": 0.0}, "label": "Au", "xyz": [2.7006592189238177e-06, -4.51854463885273, -1.1603066725]}]}, "task_ids": null, "uncorrected_energy_per_atom": null, "energy_per_atom": -36.420554915, "formation_energy_per_atom": -0.9712743599999951, "energy_above_hull": 0.0, "is_stable": true, "equilibrium_reaction_energy_per_atom": null, "decomposes_to": null, "xas": null, "grain_boundaries": null, "band_gap": 0.0, "cbm": null, "vbm": null, "efermi": 4.51534504, "is_gap_direct": null, "is_metal": null, "es_source_calc_id": null, "bandstructure": null, "dos": null, "dos_energy_up": null, "dos_energy_down": null, "is_magnetic": null, "ordering": null, "total_magnetization": 5e-07, "total_magnetization_normalized_vol": null, "total_magnetization_normalized_formula_units": null, "num_magnetic_sites": null, "num_unique_magnetic_sites": null, "types_of_magnetic_species": null, "bulk_modulus": null, "shear_modulus": null, "universal_anisotropy": null, "homogeneous_poisson": null, "e_total": null, "e_ionic": null, "e_electronic": null, "n": null, "e_ij_max": null, "weighted_surface_energy_EV_PER_ANG2": null, "weighted_surface_energy": null, "weighted_work_function": null, "surface_anisotropy": null, "shape_factor": null, "has_reconstructed": null, "possible_species": null, "has_props": null, "theoretical": null, "database_IDs": null, "fields_not_requested": ["builder_meta", "nsites", "elements", "nelements", "composition", "composition_reduced", "chemsys", "symmetry", "property_name", "deprecated", "deprecation_reasons", "last_updated", "origins", "warnings", "task_ids", "uncorrected_energy_per_atom", "equilibrium_reaction_energy_per_atom", "decomposes_to", "xas", "grain_boundaries", "cbm", "vbm", "is_gap_direct", "is_metal", "es_source_calc_id", "bandstructure", "dos", "dos_energy_up", "dos_energy_down", "is_magnetic", "ordering", "total_magnetization_normalized_vol", "total_magnetization_normalized_formula_units", "num_magnetic_sites", "num_unique_magnetic_sites", "types_of_magnetic_species", "bulk_modulus", "shear_modulus", "universal_anisotropy", "homogeneous_poisson", "e_total", "e_ionic", "e_electronic", "n", "e_ij_max", "weighted_surface_energy_EV_PER_ANG2", "weighted_surface_energy", "weighted_work_function", "surface_anisotropy", "shape_factor", "has_reconstructed", "possible_species", "has_props", "theoretical", "database_IDs"]}