{
  "builder_meta": null,
  "nsites": null,
  "elements": null,
  "nelements": null,
  "composition": null,
  "composition_reduced": null,
  "formula_pretty": "YAu3",
  "formula_anonymous": "AB3",
  "chemsys": null,
  "volume": 158.9349691506055,
  "density": 14.205101509417853,
  "density_atomic": 19.866871143825687,
  "symmetry": null,
  "property_name": null,
  "material_id": "mp-1079467",
  "deprecated": null,
  "deprecation_reasons": null,
  "last_updated": null,
  "origins": null,
  "warnings": null,
  "structure": {
    "@module": "pymatgen.core.structure",
    "@class": "Structure",
    "charge": 0,
    "lattice": {
      "matrix": [
        [0.0, 5.00048911, 0.0],
        [0.0, 0.0, 5.10345142],
        [6.227919509999999, 0.0, 0.0]
      ],
      "pbc": [true, true, true],
      "a": 5.00048911,
      "b": 5.10345142,
      "c": 6.227919509999999,
      "alpha": 90.0,
      "beta": 90.0,
      "gamma": 90.0,
      "volume": 158.93496915060544
    },
    "properties": {},
    "sites": [
      {
        "species": [{ "element": "Y", "occu": 1 }],
        "abc": [0.75, 0.34451764, 0.75],
        "properties": { "magmom": 0.0 },
        "label": "Y",
        "xyz": [4.670939632499999, 3.7503668325, 1.7582290390730488]
      },
      {
        "species": [{ "element": "Y", "occu": 1 }],
        "abc": [0.25, 0.65548236, 0.25],
        "properties": { "magmom": 0.0 },
        "label": "Y",
        "xyz": [1.5569798774999997, 1.2501222775, 3.3452223809269515]
      },
      {
        "species": [{ "element": "Au", "occu": 1 }],
        "abc": [0.75, 0.83860764, 0.00770612],
        "properties": { "magmom": 0.0 },
        "label": "Au",
        "xyz": [0.047993095094401195, 3.7503668325, 4.279793351180849]
      },
      {
        "species": [{ "element": "Au", "occu": 1 }],
        "abc": [0.75, 0.83860764, 0.49229388],
        "properties": { "magmom": 0.0 },
        "label": "Au",
        "xyz": [3.065966659905598, 3.7503668325, 4.279793351180849]
      },
      {
        "species": [{ "element": "Au", "occu": 1 }],
        "abc": [0.25, 0.16139236, 0.9922938800000001],
        "properties": { "magmom": 0.0 },
        "label": "Au",
        "xyz": [6.179926414905598, 1.2501222775, 0.8236580688191513]
      },
      {
        "species": [{ "element": "Au", "occu": 1 }],
        "abc": [0.25, 0.16139236, 0.50770612],
        "properties": { "magmom": 0.0 },
        "label": "Au",
        "xyz": [3.161952850094401, 1.2501222775, 0.8236580688191513]
      },
      {
        "species": [{ "element": "Au", "occu": 1 }],
        "abc": [0.25, 0.6690897100000001, 0.75],
        "properties": { "magmom": 0.0 },
        "label": "Au",
        "xyz": [4.670939632499999, 1.2501222775, 3.4146668306068886]
      },
      {
        "species": [{ "element": "Au", "occu": 1 }],
        "abc": [0.75, 0.33091029, 0.25],
        "properties": { "magmom": 0.0 },
        "label": "Au",
        "xyz": [1.5569798774999997, 3.7503668325, 1.6887845893931117]
      }
    ]
  },
  "task_ids": null,
  "uncorrected_energy_per_atom": null,
  "energy_per_atom": -43.79001614375,
  "formation_energy_per_atom": -0.7728957912500001,
  "energy_above_hull": 0.0,
  "is_stable": true,
  "equilibrium_reaction_energy_per_atom": null,
  "decomposes_to": null,
  "xas": null,
  "grain_boundaries": null,
  "band_gap": 0.0,
  "cbm": null,
  "vbm": null,
  "efermi": 4.86804292,
  "is_gap_direct": null,
  "is_metal": null,
  "es_source_calc_id": null,
  "bandstructure": null,
  "dos": null,
  "dos_energy_up": null,
  "dos_energy_down": null,
  "is_magnetic": null,
  "ordering": null,
  "total_magnetization": 0.0,
  "total_magnetization_normalized_vol": null,
  "total_magnetization_normalized_formula_units": null,
  "num_magnetic_sites": null,
  "num_unique_magnetic_sites": null,
  "types_of_magnetic_species": null,
  "bulk_modulus": null,
  "shear_modulus": null,
  "universal_anisotropy": null,
  "homogeneous_poisson": null,
  "e_total": null,
  "e_ionic": null,
  "e_electronic": null,
  "n": null,
  "e_ij_max": null,
  "weighted_surface_energy_EV_PER_ANG2": null,
  "weighted_surface_energy": null,
  "weighted_work_function": null,
  "surface_anisotropy": null,
  "shape_factor": null,
  "has_reconstructed": null,
  "possible_species": null,
  "has_props": null,
  "theoretical": null,
  "database_IDs": null,
  "fields_not_requested": [
    "builder_meta",
    "nsites",
    "elements",
    "nelements",
    "composition",
    "composition_reduced",
    "chemsys",
    "symmetry",
    "property_name",
    "deprecated",
    "deprecation_reasons",
    "last_updated",
    "origins",
    "warnings",
    "task_ids",
    "uncorrected_energy_per_atom",
    "equilibrium_reaction_energy_per_atom",
    "decomposes_to",
    "xas",
    "grain_boundaries",
    "cbm",
    "vbm",
    "is_gap_direct",
    "is_metal",
    "es_source_calc_id",
    "bandstructure",
    "dos",
    "dos_energy_up",
    "dos_energy_down",
    "is_magnetic",
    "ordering",
    "total_magnetization_normalized_vol",
    "total_magnetization_normalized_formula_units",
    "num_magnetic_sites",
    "num_unique_magnetic_sites",
    "types_of_magnetic_species",
    "bulk_modulus",
    "shear_modulus",
    "universal_anisotropy",
    "homogeneous_poisson",
    "e_total",
    "e_ionic",
    "e_electronic",
    "n",
    "e_ij_max",
    "weighted_surface_energy_EV_PER_ANG2",
    "weighted_surface_energy",
    "weighted_work_function",
    "surface_anisotropy",
    "shape_factor",
    "has_reconstructed",
    "possible_species",
    "has_props",
    "theoretical",
    "database_IDs"
  ]
}
