{
  "builder_meta": null,
  "nsites": null,
  "elements": null,
  "nelements": null,
  "composition": null,
  "composition_reduced": null,
  "formula_pretty": "Yb2Au",
  "formula_anonymous": "AB2",
  "chemsys": null,
  "volume": 293.13470385144615,
  "density": 12.304923722229468,
  "density_atomic": 24.427891987620512,
  "symmetry": null,
  "property_name": null,
  "material_id": "mp-570901",
  "deprecated": null,
  "deprecation_reasons": null,
  "last_updated": null,
  "origins": null,
  "warnings": null,
  "structure": {
    "@module": "pymatgen.core.structure",
    "@class": "Structure",
    "charge": 0.0,
    "lattice": {
      "matrix": [
        [4.83761923862637, 0.0, 0.0],
        [-0.0, 6.967291473385657, 0.0],
        [0.0, 0.0, 8.697042150536433]
      ],
      "pbc": [true, true, true],
      "a": 4.83761923862637,
      "b": 6.967291473385657,
      "c": 8.697042150536433,
      "alpha": 90.0,
      "beta": 90.0,
      "gamma": 90.0,
      "volume": 293.13470385144615
    },
    "properties": {},
    "sites": [
      {
        "species": [{ "element": "Yb", "occu": 1 }],
        "abc": [0.75, 0.146983064438089, 0.079759786299433],
        "properties": { "magmom": 0.0 },
        "label": "Yb",
        "xyz": [3.6282144289697777, 1.0240738515915921, 0.6936742233639471]
      },
      {
        "species": [{ "element": "Yb", "occu": 1 }],
        "abc": [0.75, 0.015025187607712001, 0.676305031851086],
        "properties": { "magmom": 0.0 },
        "label": "Yb",
        "xyz": [3.6282144289697777, 0.10468486150523167, 5.88185336862878]
      },
      {
        "species": [{ "element": "Yb", "occu": 1 }],
        "abc": [0.25, 0.35301693556191005, 0.579759786299433],
        "properties": { "magmom": 0.0 },
        "label": "Yb",
        "xyz": [1.2094048096565926, 2.45957188510123, 5.042195298632164]
      },
      {
        "species": [{ "element": "Yb", "occu": 1 }],
        "abc": [0.25, 0.484974812392287, 0.176305031851086],
        "properties": { "magmom": 0.0 },
        "label": "Yb",
        "xyz": [1.2094048096565926, 3.37896087518759, 1.5333322933605633]
      },
      {
        "species": [{ "element": "Yb", "occu": 1 }],
        "abc": [0.25, 0.9849748123922871, 0.323694968148913],
        "properties": { "magmom": 0.0 },
        "label": "Yb",
        "xyz": [1.2094048096565926, 6.86260661188042, 2.8151887819076444]
      },
      {
        "species": [{ "element": "Yb", "occu": 1 }],
        "abc": [0.75, 0.6469830644380891, 0.420240213700566],
        "properties": { "magmom": 0.0 },
        "label": "Yb",
        "xyz": [3.6282144289697777, 4.507719588284421, 3.654846851904261]
      },
      {
        "species": [{ "element": "Yb", "occu": 1 }],
        "abc": [0.25, 0.85301693556191, 0.9202402137005661],
        "properties": { "magmom": 0.0 },
        "label": "Yb",
        "xyz": [1.2094048096565926, 5.943217621794059, 8.003367927172478]
      },
      {
        "species": [{ "element": "Yb", "occu": 1 }],
        "abc": [0.75, 0.515025187607712, 0.8236949681489131],
        "properties": { "magmom": 0.0 },
        "label": "Yb",
        "xyz": [3.6282144289697777, 3.58833059819806, 7.163709857175862]
      },
      {
        "species": [{ "element": "Au", "occu": 1 }],
        "abc": [0.75, 0.24267192858791703, 0.401708992056505],
        "properties": { "magmom": -0.0 },
        "label": "Au",
        "xyz": [3.6282144289697777, 1.6907660588806475, 3.493680036164929]
      },
      {
        "species": [{ "element": "Au", "occu": 1 }],
        "abc": [0.75, 0.7426719285879171, 0.098291007943494],
        "properties": { "magmom": -0.0 },
        "label": "Au",
        "xyz": [3.6282144289697777, 5.1744117955734765, 0.8548410391032787]
      },
      {
        "species": [{ "element": "Au", "occu": 1 }],
        "abc": [0.25, 0.757328071412082, 0.5982910079434941],
        "properties": { "magmom": -0.0 },
        "label": "Au",
        "xyz": [1.2094048096565926, 5.276525414505003, 5.203362114371496]
      },
      {
        "species": [{ "element": "Au", "occu": 1 }],
        "abc": [0.25, 0.257328071412082, 0.9017089920565051],
        "properties": { "magmom": -0.0 },
        "label": "Au",
        "xyz": [1.2094048096565926, 1.7928796778121745, 7.8422011114331465]
      }
    ]
  },
  "task_ids": null,
  "uncorrected_energy_per_atom": null,
  "energy_per_atom": -41.99982717416667,
  "formation_energy_per_atom": -0.7852546008333351,
  "energy_above_hull": 0.0,
  "is_stable": true,
  "equilibrium_reaction_energy_per_atom": null,
  "decomposes_to": null,
  "xas": null,
  "grain_boundaries": null,
  "band_gap": 0.0,
  "cbm": null,
  "vbm": null,
  "efermi": 2.73118019,
  "is_gap_direct": null,
  "is_metal": null,
  "es_source_calc_id": null,
  "bandstructure": null,
  "dos": null,
  "dos_energy_up": null,
  "dos_energy_down": null,
  "is_magnetic": null,
  "ordering": null,
  "total_magnetization": 0.0,
  "total_magnetization_normalized_vol": null,
  "total_magnetization_normalized_formula_units": null,
  "num_magnetic_sites": null,
  "num_unique_magnetic_sites": null,
  "types_of_magnetic_species": null,
  "bulk_modulus": null,
  "shear_modulus": null,
  "universal_anisotropy": null,
  "homogeneous_poisson": null,
  "e_total": null,
  "e_ionic": null,
  "e_electronic": null,
  "n": null,
  "e_ij_max": null,
  "weighted_surface_energy_EV_PER_ANG2": null,
  "weighted_surface_energy": null,
  "weighted_work_function": null,
  "surface_anisotropy": null,
  "shape_factor": null,
  "has_reconstructed": null,
  "possible_species": null,
  "has_props": null,
  "theoretical": null,
  "database_IDs": null,
  "fields_not_requested": [
    "builder_meta",
    "nsites",
    "elements",
    "nelements",
    "composition",
    "composition_reduced",
    "chemsys",
    "symmetry",
    "property_name",
    "deprecated",
    "deprecation_reasons",
    "last_updated",
    "origins",
    "warnings",
    "task_ids",
    "uncorrected_energy_per_atom",
    "equilibrium_reaction_energy_per_atom",
    "decomposes_to",
    "xas",
    "grain_boundaries",
    "cbm",
    "vbm",
    "is_gap_direct",
    "is_metal",
    "es_source_calc_id",
    "bandstructure",
    "dos",
    "dos_energy_up",
    "dos_energy_down",
    "is_magnetic",
    "ordering",
    "total_magnetization_normalized_vol",
    "total_magnetization_normalized_formula_units",
    "num_magnetic_sites",
    "num_unique_magnetic_sites",
    "types_of_magnetic_species",
    "bulk_modulus",
    "shear_modulus",
    "universal_anisotropy",
    "homogeneous_poisson",
    "e_total",
    "e_ionic",
    "e_electronic",
    "n",
    "e_ij_max",
    "weighted_surface_energy_EV_PER_ANG2",
    "weighted_surface_energy",
    "weighted_work_function",
    "surface_anisotropy",
    "shape_factor",
    "has_reconstructed",
    "possible_species",
    "has_props",
    "theoretical",
    "database_IDs"
  ]
}
