{
  "builder_meta": null,
  "nsites": null,
  "elements": null,
  "nelements": null,
  "composition": null,
  "composition_reduced": null,
  "formula_pretty": "Yb2Ge",
  "formula_anonymous": "AB2",
  "chemsys": null,
  "volume": 285.13500914137603,
  "density": 9.753988751651423,
  "density_atomic": 23.761250761781337,
  "symmetry": null,
  "property_name": null,
  "material_id": "mp-1694",
  "deprecated": null,
  "deprecation_reasons": null,
  "last_updated": null,
  "origins": null,
  "warnings": null,
  "structure": {
    "@module": "pymatgen.core.structure",
    "@class": "Structure",
    "charge": 0.0,
    "lattice": {
      "matrix": [
        [4.266072517332621, 0.0, 0.0],
        [0.0, 7.392358447075339, 0.0],
        [0.0, 0.0, 9.041475148132639]
      ],
      "pbc": [true, true, true],
      "a": 4.266072517332621,
      "b": 7.392358447075339,
      "c": 9.041475148132639,
      "alpha": 90.0,
      "beta": 90.0,
      "gamma": 90.0,
      "volume": 285.13500914137603
    },
    "properties": {},
    "sites": [
      {
        "species": [{ "element": "Yb", "occu": 1 }],
        "abc": [0.75, 0.868223641169045, 0.06723185172354801],
        "properties": { "magmom": -0.0 },
        "label": "Yb",
        "xyz": [3.1995543879994655, 6.418220367746498, 0.6078751165213978]
      },
      {
        "species": [{ "element": "Yb", "occu": 1 }],
        "abc": [0.25, 0.131776358830954, 0.932768148276451],
        "properties": { "magmom": -0.0 },
        "label": "Yb",
        "xyz": [1.0665181293331552, 0.9741380793288339, 8.433600031611233]
      },
      {
        "species": [{ "element": "Yb", "occu": 1 }],
        "abc": [0.75, 0.36822364116904505, 0.43276814827645105],
        "properties": { "magmom": -0.0 },
        "label": "Yb",
        "xyz": [3.1995543879994655, 2.722041144208829, 3.912862457544913]
      },
      {
        "species": [{ "element": "Yb", "occu": 1 }],
        "abc": [0.25, 0.6317763588309541, 0.5672318517235481],
        "properties": { "magmom": -0.0 },
        "label": "Yb",
        "xyz": [1.0665181293331552, 4.670317302866504, 5.128612690587718]
      },
      {
        "species": [{ "element": "Yb", "occu": 1 }],
        "abc": [0.25, 0.543398705465158, 0.168927791963803],
        "properties": { "magmom": -0.0 },
        "label": "Yb",
        "xyz": [1.0665181293331552, 4.016998010475165, 1.5273564328696454]
      },
      {
        "species": [{ "element": "Yb", "occu": 1 }],
        "abc": [0.75, 0.45660129453484105, 0.8310722080361971],
        "properties": { "magmom": -0.0 },
        "label": "Yb",
        "xyz": [3.1995543879994655, 3.3753604366001673, 7.5141187152629945]
      },
      {
        "species": [{ "element": "Yb", "occu": 1 }],
        "abc": [0.25, 0.043398705465158005, 0.331072208036197],
        "properties": { "magmom": -0.0 },
        "label": "Yb",
        "xyz": [1.0665181293331552, 0.3208187869374955, 2.993381141196674]
      },
      {
        "species": [{ "element": "Yb", "occu": 1 }],
        "abc": [0.75, 0.9566012945348411, 0.668927791963803],
        "properties": { "magmom": -0.0 },
        "label": "Yb",
        "xyz": [3.1995543879994655, 7.071539660137837, 6.0480940069359646]
      },
      {
        "species": [{ "element": "Ge", "occu": 1 }],
        "abc": [0.25, 0.7372710712699081, 0.8718689645329291],
        "properties": { "magmom": 0.0 },
        "label": "Ge",
        "xyz": [1.0665181293331552, 5.45017203148639, 7.882981575252615]
      },
      {
        "species": [{ "element": "Ge", "occu": 1 }],
        "abc": [0.75, 0.262728928730091, 0.12813103546707],
        "properties": { "magmom": 0.0 },
        "label": "Ge",
        "xyz": [3.1995543879994655, 1.942186415588943, 1.1584935728800152]
      },
      {
        "species": [{ "element": "Ge", "occu": 1 }],
        "abc": [0.25, 0.237271071269908, 0.62813103546707],
        "properties": { "magmom": 0.0 },
        "label": "Ge",
        "xyz": [1.0665181293331552, 1.7539928079487193, 5.679231146946335]
      },
      {
        "species": [{ "element": "Ge", "occu": 1 }],
        "abc": [0.75, 0.762728928730091, 0.371868964532929],
        "properties": { "magmom": 0.0 },
        "label": "Ge",
        "xyz": [3.1995543879994655, 5.638365639126612, 3.362244001186295]
      }
    ]
  },
  "task_ids": null,
  "uncorrected_energy_per_atom": null,
  "energy_per_atom": -29.680751354999998,
  "formation_energy_per_atom": -0.7038396383333301,
  "energy_above_hull": 0.0,
  "is_stable": true,
  "equilibrium_reaction_energy_per_atom": null,
  "decomposes_to": null,
  "xas": null,
  "grain_boundaries": null,
  "band_gap": 0.022699999999999002,
  "cbm": null,
  "vbm": null,
  "efermi": 2.6723784200000003,
  "is_gap_direct": null,
  "is_metal": null,
  "es_source_calc_id": null,
  "bandstructure": null,
  "dos": null,
  "dos_energy_up": null,
  "dos_energy_down": null,
  "is_magnetic": null,
  "ordering": null,
  "total_magnetization": 0.0026202,
  "total_magnetization_normalized_vol": null,
  "total_magnetization_normalized_formula_units": null,
  "num_magnetic_sites": null,
  "num_unique_magnetic_sites": null,
  "types_of_magnetic_species": null,
  "bulk_modulus": null,
  "shear_modulus": null,
  "universal_anisotropy": null,
  "homogeneous_poisson": null,
  "e_total": null,
  "e_ionic": null,
  "e_electronic": null,
  "n": null,
  "e_ij_max": null,
  "weighted_surface_energy_EV_PER_ANG2": null,
  "weighted_surface_energy": null,
  "weighted_work_function": null,
  "surface_anisotropy": null,
  "shape_factor": null,
  "has_reconstructed": null,
  "possible_species": null,
  "has_props": null,
  "theoretical": null,
  "database_IDs": null,
  "fields_not_requested": [
    "builder_meta",
    "nsites",
    "elements",
    "nelements",
    "composition",
    "composition_reduced",
    "chemsys",
    "symmetry",
    "property_name",
    "deprecated",
    "deprecation_reasons",
    "last_updated",
    "origins",
    "warnings",
    "task_ids",
    "uncorrected_energy_per_atom",
    "equilibrium_reaction_energy_per_atom",
    "decomposes_to",
    "xas",
    "grain_boundaries",
    "cbm",
    "vbm",
    "is_gap_direct",
    "is_metal",
    "es_source_calc_id",
    "bandstructure",
    "dos",
    "dos_energy_up",
    "dos_energy_down",
    "is_magnetic",
    "ordering",
    "total_magnetization_normalized_vol",
    "total_magnetization_normalized_formula_units",
    "num_magnetic_sites",
    "num_unique_magnetic_sites",
    "types_of_magnetic_species",
    "bulk_modulus",
    "shear_modulus",
    "universal_anisotropy",
    "homogeneous_poisson",
    "e_total",
    "e_ionic",
    "e_electronic",
    "n",
    "e_ij_max",
    "weighted_surface_energy_EV_PER_ANG2",
    "weighted_surface_energy",
    "weighted_work_function",
    "surface_anisotropy",
    "shape_factor",
    "has_reconstructed",
    "possible_species",
    "has_props",
    "theoretical",
    "database_IDs"
  ]
}
