{
  "builder_meta": null,
  "nsites": null,
  "elements": null,
  "nelements": null,
  "composition": null,
  "composition_reduced": null,
  "formula_pretty": "Yb2Mg",
  "formula_anonymous": "AB2",
  "chemsys": null,
  "volume": 162.6693449018444,
  "density": 7.56182749188249,
  "density_atomic": 27.111557483640734,
  "symmetry": null,
  "property_name": null,
  "material_id": "mp-1187899",
  "deprecated": null,
  "deprecation_reasons": null,
  "last_updated": null,
  "origins": null,
  "warnings": null,
  "structure": {
    "@module": "pymatgen.core.structure",
    "@class": "Structure",
    "charge": 0.0,
    "lattice": {
      "matrix": [
        [1.808642566640065, -8.407893218485263, -0.0],
        [1.808642566640065, 8.407893218485263, 0.0],
        [0.0, -0.0, 5.348546634039545]
      ],
      "pbc": [true, true, true],
      "a": 8.600224200991091,
      "b": 8.600224200991091,
      "c": 5.348546634039545,
      "alpha": 90.0,
      "beta": 90.0,
      "gamma": 155.7199227089224,
      "volume": 162.66934490184434
    },
    "properties": {},
    "sites": [
      {
        "species": [{ "element": "Yb", "occu": 1 }],
        "abc": [0.5925480337798841, 0.40745196622011504, 0.75],
        "properties": { "magmom": -0.0 },
        "label": "Yb",
        "xyz": [1.8086425666400634, -1.5562679712040723, 4.011409975529659]
      },
      {
        "species": [{ "element": "Yb", "occu": 1 }],
        "abc": [0.27169237791314005, 0.7283076220868591, 0.75],
        "properties": { "magmom": -0.0 },
        "label": "Yb",
        "xyz": [1.8086425666400632, 3.8391722149452048, 4.011409975529659]
      },
      {
        "species": [{ "element": "Yb", "occu": 1 }],
        "abc": [0.40745196622011504, 0.5925480337798841, 0.25],
        "properties": { "magmom": -0.0 },
        "label": "Yb",
        "xyz": [1.8086425666400634, 1.5562679712040723, 1.3371366585098863]
      },
      {
        "species": [{ "element": "Yb", "occu": 1 }],
        "abc": [0.7283076220868591, 0.27169237791314005, 0.25],
        "properties": { "magmom": -0.0 },
        "label": "Yb",
        "xyz": [1.8086425666400632, -3.8391722149452048, 1.3371366585098863]
      },
      {
        "species": [{ "element": "Mg", "occu": 1 }],
        "abc": [0.9324893321239921, 0.067510667876007, 0.75],
        "properties": { "magmom": -0.0 },
        "label": "Mg",
        "xyz": [1.8086425666400634, -7.272648245265075, 4.011409975529659]
      },
      {
        "species": [{ "element": "Mg", "occu": 1 }],
        "abc": [0.067510667876007, 0.9324893321239921, 0.25],
        "properties": { "magmom": -0.0 },
        "label": "Mg",
        "xyz": [1.8086425666400634, 7.272648245265075, 1.3371366585098863]
      }
    ]
  },
  "task_ids": null,
  "uncorrected_energy_per_atom": null,
  "energy_per_atom": -25.804636536666667,
  "formation_energy_per_atom": -0.061949485000004,
  "energy_above_hull": 0.0,
  "is_stable": true,
  "equilibrium_reaction_energy_per_atom": null,
  "decomposes_to": null,
  "xas": null,
  "grain_boundaries": null,
  "band_gap": 0.0,
  "cbm": null,
  "vbm": null,
  "efermi": 2.18765881,
  "is_gap_direct": null,
  "is_metal": null,
  "es_source_calc_id": null,
  "bandstructure": null,
  "dos": null,
  "dos_energy_up": null,
  "dos_energy_down": null,
  "is_magnetic": null,
  "ordering": null,
  "total_magnetization": 5.6e-6,
  "total_magnetization_normalized_vol": null,
  "total_magnetization_normalized_formula_units": null,
  "num_magnetic_sites": null,
  "num_unique_magnetic_sites": null,
  "types_of_magnetic_species": null,
  "bulk_modulus": null,
  "shear_modulus": null,
  "universal_anisotropy": null,
  "homogeneous_poisson": null,
  "e_total": null,
  "e_ionic": null,
  "e_electronic": null,
  "n": null,
  "e_ij_max": null,
  "weighted_surface_energy_EV_PER_ANG2": null,
  "weighted_surface_energy": null,
  "weighted_work_function": null,
  "surface_anisotropy": null,
  "shape_factor": null,
  "has_reconstructed": null,
  "possible_species": null,
  "has_props": null,
  "theoretical": null,
  "database_IDs": null,
  "fields_not_requested": [
    "builder_meta",
    "nsites",
    "elements",
    "nelements",
    "composition",
    "composition_reduced",
    "chemsys",
    "symmetry",
    "property_name",
    "deprecated",
    "deprecation_reasons",
    "last_updated",
    "origins",
    "warnings",
    "task_ids",
    "uncorrected_energy_per_atom",
    "equilibrium_reaction_energy_per_atom",
    "decomposes_to",
    "xas",
    "grain_boundaries",
    "cbm",
    "vbm",
    "is_gap_direct",
    "is_metal",
    "es_source_calc_id",
    "bandstructure",
    "dos",
    "dos_energy_up",
    "dos_energy_down",
    "is_magnetic",
    "ordering",
    "total_magnetization_normalized_vol",
    "total_magnetization_normalized_formula_units",
    "num_magnetic_sites",
    "num_unique_magnetic_sites",
    "types_of_magnetic_species",
    "bulk_modulus",
    "shear_modulus",
    "universal_anisotropy",
    "homogeneous_poisson",
    "e_total",
    "e_ionic",
    "e_electronic",
    "n",
    "e_ij_max",
    "weighted_surface_energy_EV_PER_ANG2",
    "weighted_surface_energy",
    "weighted_work_function",
    "surface_anisotropy",
    "shape_factor",
    "has_reconstructed",
    "possible_species",
    "has_props",
    "theoretical",
    "database_IDs"
  ]
}
