{
  "builder_meta": null,
  "nsites": null,
  "elements": null,
  "nelements": null,
  "composition": null,
  "composition_reduced": null,
  "formula_pretty": "Yb2O3",
  "formula_anonymous": "A2B3",
  "chemsys": null,
  "volume": 551.1761931198969,
  "density": 9.497975486804972,
  "density_atomic": 13.779404827997421,
  "symmetry": null,
  "property_name": null,
  "material_id": "mp-2814",
  "deprecated": null,
  "deprecation_reasons": null,
  "last_updated": null,
  "origins": null,
  "warnings": null,
  "structure": {
    "@module": "pymatgen.core.structure",
    "@class": "Structure",
    "charge": 0.0,
    "lattice": {
      "matrix": [
        [-5.165077232702524, 5.165077232702524, 5.165077232702524],
        [5.165077232702524, -5.165077232702524, 5.165077232702524],
        [5.165077232702524, 5.165077232702524, -5.165077232702524]
      ],
      "pbc": [true, true, true],
      "a": 8.94617619205803,
      "b": 8.94617619205803,
      "c": 8.94617619205803,
      "alpha": 109.47122063449069,
      "beta": 109.47122063449069,
      "gamma": 109.47122063449069,
      "volume": 551.1761931198969
    },
    "properties": {},
    "sites": [
      {
        "species": [{ "element": "Yb", "occu": 1 }],
        "abc": [0.499877380351378, 0.5, 0.0],
        "properties": { "magmom": 0.0 },
        "label": "Yb",
        "xyz": [
          0.0006333399553795083, -0.0006333399553795083, 5.164443892747144
        ]
      },
      {
        "species": [{ "element": "Yb", "occu": 1 }],
        "abc": [0.0, 0.499877380351378, 0.5],
        "properties": { "magmom": 0.0 },
        "label": "Yb",
        "xyz": [
          5.164443892747144, 0.0006333399553795083, -0.0006333399553795083
        ]
      },
      {
        "species": [{ "element": "Yb", "occu": 1 }],
        "abc": [0.5, 0.0, 0.499877380351378],
        "properties": { "magmom": 0.0 },
        "label": "Yb",
        "xyz": [
          -0.0006333399553795083, 5.164443892747144, 0.0006333399553795083
        ]
      },
      {
        "species": [{ "element": "Yb", "occu": 1 }],
        "abc": [0.000122619648621, 0.000122619648621, 0.000122619648621],
        "properties": { "magmom": 0.0 },
        "label": "Yb",
        "xyz": [
          0.0006333399553743106, 0.0006333399553743106, 0.0006333399553743106
        ]
      },
      {
        "species": [{ "element": "Yb", "occu": 1 }],
        "abc": [0.216569746027708, 0.75, 0.9665697460277081],
        "properties": { "magmom": 0.0 },
        "label": "Yb",
        "xyz": [7.747615849053787, 2.2371989289997654, -8.881784197001252e-16]
      },
      {
        "species": [{ "element": "Yb", "occu": 1 }],
        "abc": [0.25, 0.533430253972291, 0.28343025397229105],
        "properties": { "magmom": 0.0 },
        "label": "Yb",
        "xyz": [2.927878303702749, 2.220446049250313e-16, 2.582538616351262]
      },
      {
        "species": [{ "element": "Yb", "occu": 1 }],
        "abc": [0.9665697460277081, 0.216569746027708, 0.75],
        "properties": { "magmom": 0.0 },
        "label": "Yb",
        "xyz": [-4.440892098500626e-16, 7.747615849053787, 2.237198928999766]
      },
      {
        "species": [{ "element": "Yb", "occu": 1 }],
        "abc": [0.28343025397229105, 0.25, 0.533430253972291],
        "properties": { "magmom": 0.0 },
        "label": "Yb",
        "xyz": [2.582538616351262, 2.927878303702749, 0.0]
      },
      {
        "species": [{ "element": "Yb", "occu": 1 }],
        "abc": [0.75, 0.9665697460277081, 0.216569746027708],
        "properties": { "magmom": 0.0 },
        "label": "Yb",
        "xyz": [2.2371989289997654, -6.661338147750939e-16, 7.747615849053786]
      },
      {
        "species": [{ "element": "Yb", "occu": 1 }],
        "abc": [0.533430253972291, 0.28343025397229105, 0.25],
        "properties": { "magmom": 0.0 },
        "label": "Yb",
        "xyz": [2.220446049250313e-16, 2.582538616351262, 2.9278783037027494]
      },
      {
        "species": [{ "element": "Yb", "occu": 1 }],
        "abc": [0.716701348708767, 0.75, 0.46670134870876706],
        "properties": { "magmom": 0.0 },
        "label": "Yb",
        "xyz": [2.5825386163512625, 2.238558405023166, 5.165077232702524]
      },
      {
        "species": [{ "element": "Yb", "occu": 1 }],
        "abc": [0.25, 0.033298651291232, 0.7832986512912321],
        "properties": { "magmom": 0.0 },
        "label": "Yb",
        "xyz": [2.9265188276793483, 5.165077232702524, -2.5825386163512625]
      },
      {
        "species": [{ "element": "Yb", "occu": 1 }],
        "abc": [0.46670134870876706, 0.716701348708767, 0.75],
        "properties": { "magmom": 0.0 },
        "label": "Yb",
        "xyz": [5.165077232702524, 2.5825386163512625, 2.238558405023166]
      },
      {
        "species": [{ "element": "Yb", "occu": 1 }],
        "abc": [0.7832986512912321, 0.25, 0.033298651291232],
        "properties": { "magmom": 0.0 },
        "label": "Yb",
        "xyz": [-2.5825386163512625, 2.9265188276793483, 5.165077232702525]
      },
      {
        "species": [{ "element": "Yb", "occu": 1 }],
        "abc": [0.75, 0.46670134870876706, 0.716701348708767],
        "properties": { "magmom": 0.0 },
        "label": "Yb",
        "xyz": [2.238558405023166, 5.165077232702524, 2.5825386163512625]
      },
      {
        "species": [{ "element": "Yb", "occu": 1 }],
        "abc": [0.033298651291232, 0.7832986512912321, 0.25],
        "properties": { "magmom": 0.0 },
        "label": "Yb",
        "xyz": [5.165077232702524, -2.5825386163512625, 2.9265188276793483]
      },
      {
        "species": [{ "element": "O", "occu": 1 }],
        "abc": [0.46751250690452606, 0.7389297850379031, 0.011142334217886001],
        "properties": { "magmom": -0.0 },
        "label": "O",
        "xyz": [1.4594422206367597, -1.344340187060829, 6.173816597893328]
      },
      {
        "species": [{ "element": "O", "occu": 1 }],
        "abc": [0.45637017268663904, 0.48885766578211304, 0.22778745082002402],
        "properties": { "magmom": -0.0 },
        "label": "O",
        "xyz": [1.3443401870608653, 1.0087393651908387, 3.7056350120657178]
      },
      {
        "species": [{ "element": "O", "occu": 1 }],
        "abc": [0.22858272186661502, 0.272212549179975, 0.761070214962096],
        "properties": { "magmom": -0.0 },
        "label": "O",
        "xyz": [4.156337867511716, 3.70563501206576, -1.3443401870609066]
      },
      {
        "species": [{ "element": "O", "occu": 1 }],
        "abc": [0.22778745082002402, 0.45637017268663904, 0.48885766578211304],
        "properties": { "magmom": -0.0 },
        "label": "O",
        "xyz": [3.705635012065718, 1.3443401870608653, 1.0087393651908387]
      },
      {
        "species": [{ "element": "O", "occu": 1 }],
        "abc": [0.761070214962096, 0.22858272186661502, 0.272212549179975],
        "properties": { "magmom": -0.0 },
        "label": "O",
        "xyz": [-1.3443401870609062, 4.156337867511716, 3.70563501206576]
      },
      {
        "species": [{ "element": "O", "occu": 1 }],
        "abc": [0.011142334217886001, 0.46751250690452606, 0.7389297850379031],
        "properties": { "magmom": -0.0 },
        "label": "O",
        "xyz": [6.173816597893327, 1.4594422206367597, -1.344340187060829]
      },
      {
        "species": [{ "element": "O", "occu": 1 }],
        "abc": [0.272212549179975, 0.761070214962096, 0.22858272186661502],
        "properties": { "magmom": -0.0 },
        "label": "O",
        "xyz": [3.70563501206576, -1.3443401870609064, 4.156337867511717]
      },
      {
        "species": [{ "element": "O", "occu": 1 }],
        "abc": [0.7389297850379031, 0.011142334217886001, 0.46751250690452606],
        "properties": { "magmom": -0.0 },
        "label": "O",
        "xyz": [-1.344340187060829, 6.173816597893327, 1.4594422206367597]
      },
      {
        "species": [{ "element": "O", "occu": 1 }],
        "abc": [0.48885766578211304, 0.22778745082002402, 0.45637017268663904],
        "properties": { "magmom": -0.0 },
        "label": "O",
        "xyz": [1.0087393651908387, 3.705635012065718, 1.3443401870608653]
      },
      {
        "species": [{ "element": "O", "occu": 1 }],
        "abc": [0.032487493095473004, 0.04362982731336, 0.271417278133384],
        "properties": { "magmom": -0.0 },
        "label": "O",
        "xyz": [1.459442220636801, 1.34434018706086, -1.008739365190844]
      },
      {
        "species": [{ "element": "O", "occu": 1 }],
        "abc": [0.04362982731336, 0.271417278133384, 0.032487493095473004],
        "properties": { "magmom": -0.0 },
        "label": "O",
        "xyz": [1.34434018706086, -1.008739365190844, 1.459442220636801]
      },
      {
        "species": [{ "element": "O", "occu": 1 }],
        "abc": [0.271417278133384, 0.032487493095473004, 0.04362982731336],
        "properties": { "magmom": -0.0 },
        "label": "O",
        "xyz": [-1.008739365190844, 1.459442220636801, 1.34434018706086]
      },
      {
        "species": [{ "element": "O", "occu": 1 }],
        "abc": [0.543680916851037, 0.51134142801979, 0.7724303611601111],
        "properties": { "magmom": -0.0 },
        "label": "O",
        "xyz": [3.8226265147967657, 4.15669842975579, 1.4596094212084614]
      },
      {
        "species": [{ "element": "O", "occu": 1 }],
        "abc": [0.771250555690933, 0.727569638839888, 0.23891106685968502],
        "properties": { "magmom": -0.0 },
        "label": "O",
        "xyz": [1.0083788029467249, 1.4596094212085344, 6.5075279506082815]
      },
      {
        "species": [{ "element": "O", "occu": 1 }],
        "abc": [0.5323404888312521, 0.261088933140314, 0.9886585719802091],
        "properties": { "magmom": -0.0 },
        "label": "O",
        "xyz": [3.7054626464167635, 6.507533115685573, -1.008373637869508]
      },
      {
        "species": [{ "element": "O", "occu": 1 }],
        "abc": [0.23891106685968502, 0.771250555690933, 0.727569638839888],
        "properties": { "magmom": -0.0 },
        "label": "O",
        "xyz": [6.5075279506082815, 1.008378802946725, 1.4596094212085347]
      },
      {
        "species": [{ "element": "O", "occu": 1 }],
        "abc": [0.9886585719802091, 0.5323404888312521, 0.261088933140314],
        "properties": { "magmom": -0.0 },
        "label": "O",
        "xyz": [-1.0083736378695083, 3.7054626464167635, 6.507533115685573]
      },
      {
        "species": [{ "element": "O", "occu": 1 }],
        "abc": [0.7724303611601111, 0.543680916851037, 0.51134142801979],
        "properties": { "magmom": -0.0 },
        "label": "O",
        "xyz": [1.4596094212084614, 3.8226265147967657, 4.15669842975579]
      },
      {
        "species": [{ "element": "O", "occu": 1 }],
        "abc": [0.261088933140314, 0.9886585719802091, 0.5323404888312521],
        "properties": { "magmom": -0.0 },
        "label": "O",
        "xyz": [6.507533115685573, -1.008373637869508, 3.7054626464167635]
      },
      {
        "species": [{ "element": "O", "occu": 1 }],
        "abc": [0.51134142801979, 0.7724303611601111, 0.543680916851037],
        "properties": { "magmom": -0.0 },
        "label": "O",
        "xyz": [4.15669842975579, 1.4596094212084614, 3.8226265147967657]
      },
      {
        "species": [{ "element": "O", "occu": 1 }],
        "abc": [0.727569638839888, 0.23891106685968502, 0.771250555690933],
        "properties": { "magmom": -0.0 },
        "label": "O",
        "xyz": [1.4596094212085342, 6.507527950608282, 1.0083788029467247]
      },
      {
        "species": [{ "element": "O", "occu": 1 }],
        "abc": [0.9563190831489621, 0.7287494443090661, 0.967659511168747],
        "properties": { "magmom": -0.0 },
        "label": "O",
        "xyz": [3.8226213497194665, 6.173450870572032, 3.705472976571281]
      },
      {
        "species": [{ "element": "O", "occu": 1 }],
        "abc": [0.7287494443090661, 0.967659511168747, 0.9563190831489621],
        "properties": { "magmom": -0.0 },
        "label": "O",
        "xyz": [6.173450870572032, 3.70547297657128, 3.8226213497194657]
      },
      {
        "species": [{ "element": "O", "occu": 1 }],
        "abc": [0.967659511168747, 0.9563190831489621, 0.7287494443090661],
        "properties": { "magmom": -0.0 },
        "label": "O",
        "xyz": [3.70547297657128, 3.8226213497194665, 6.173450870572032]
      }
    ]
  },
  "task_ids": null,
  "uncorrected_energy_per_atom": null,
  "energy_per_atom": -22.2479269245,
  "formation_energy_per_atom": -4.054763188500002,
  "energy_above_hull": 0.0,
  "is_stable": true,
  "equilibrium_reaction_energy_per_atom": null,
  "decomposes_to": null,
  "xas": null,
  "grain_boundaries": null,
  "band_gap": 0.0,
  "cbm": null,
  "vbm": null,
  "efermi": -0.6564491100000001,
  "is_gap_direct": null,
  "is_metal": null,
  "es_source_calc_id": null,
  "bandstructure": null,
  "dos": null,
  "dos_energy_up": null,
  "dos_energy_down": null,
  "is_magnetic": null,
  "ordering": null,
  "total_magnetization": 0.0,
  "total_magnetization_normalized_vol": null,
  "total_magnetization_normalized_formula_units": null,
  "num_magnetic_sites": null,
  "num_unique_magnetic_sites": null,
  "types_of_magnetic_species": null,
  "bulk_modulus": null,
  "shear_modulus": null,
  "universal_anisotropy": null,
  "homogeneous_poisson": null,
  "e_total": null,
  "e_ionic": null,
  "e_electronic": null,
  "n": null,
  "e_ij_max": null,
  "weighted_surface_energy_EV_PER_ANG2": null,
  "weighted_surface_energy": null,
  "weighted_work_function": null,
  "surface_anisotropy": null,
  "shape_factor": null,
  "has_reconstructed": null,
  "possible_species": null,
  "has_props": null,
  "theoretical": null,
  "database_IDs": null,
  "fields_not_requested": [
    "builder_meta",
    "nsites",
    "elements",
    "nelements",
    "composition",
    "composition_reduced",
    "chemsys",
    "symmetry",
    "property_name",
    "deprecated",
    "deprecation_reasons",
    "last_updated",
    "origins",
    "warnings",
    "task_ids",
    "uncorrected_energy_per_atom",
    "equilibrium_reaction_energy_per_atom",
    "decomposes_to",
    "xas",
    "grain_boundaries",
    "cbm",
    "vbm",
    "is_gap_direct",
    "is_metal",
    "es_source_calc_id",
    "bandstructure",
    "dos",
    "dos_energy_up",
    "dos_energy_down",
    "is_magnetic",
    "ordering",
    "total_magnetization_normalized_vol",
    "total_magnetization_normalized_formula_units",
    "num_magnetic_sites",
    "num_unique_magnetic_sites",
    "types_of_magnetic_species",
    "bulk_modulus",
    "shear_modulus",
    "universal_anisotropy",
    "homogeneous_poisson",
    "e_total",
    "e_ionic",
    "e_electronic",
    "n",
    "e_ij_max",
    "weighted_surface_energy_EV_PER_ANG2",
    "weighted_surface_energy",
    "weighted_work_function",
    "surface_anisotropy",
    "shape_factor",
    "has_reconstructed",
    "possible_species",
    "has_props",
    "theoretical",
    "database_IDs"
  ]
}
