{
  "builder_meta": null,
  "nsites": null,
  "elements": null,
  "nelements": null,
  "composition": null,
  "composition_reduced": null,
  "formula_pretty": "Yb2Se3",
  "formula_anonymous": "A2B3",
  "chemsys": null,
  "volume": 545.3058795515068,
  "density": 7.100806285538691,
  "density_atomic": 27.26529397757534,
  "symmetry": null,
  "property_name": null,
  "material_id": "mp-1188185",
  "deprecated": null,
  "deprecation_reasons": null,
  "last_updated": null,
  "origins": null,
  "warnings": null,
  "structure": {
    "@module": "pymatgen.core.structure",
    "@class": "Structure",
    "charge": 0.0,
    "lattice": {
      "matrix": [
        [2e-16, 5.647065180171548, 12.000573563550796],
        [4.023327452956936, 1e-16, 12.000573563550796],
        [4.023327452956936, 5.647065180171548, 1e-16]
      ],
      "pbc": [true, true, true],
      "a": 13.262847017262175,
      "b": 12.657050590398665,
      "c": 6.933722589116388,
      "alpha": 79.37110235262647,
      "beta": 69.71007738379544,
      "gamma": 30.918820263578095,
      "volume": 545.3058795515068
    },
    "properties": {},
    "sites": [
      {
        "species": [{ "element": "Yb", "occu": 1 }],
        "abc": [0.33381973330207104, 0.33381973330207104, 0.16618026669792801],
        "properties": { "magmom": 0.0 },
        "label": "Yb",
        "xyz": [2.011663726478464, 2.823532590085769, 8.012056532912823]
      },
      {
        "species": [{ "element": "Yb", "occu": 1 }],
        "abc": [0.16618026669792801, 0.16618026669792801, 0.33381973330207104],
        "properties": { "magmom": 0.0 },
        "label": "Yb",
        "xyz": [2.011663726478464, 2.823532590085769, 3.9885170306379516]
      },
      {
        "species": [{ "element": "Yb", "occu": 1 }],
        "abc": [0.9161802666979281, 0.9161802666979281, 0.083819733302071],
        "properties": { "magmom": 0.0 },
        "label": "Yb",
        "xyz": [4.0233274529569325, 5.647065180171543, 21.989377375964146]
      },
      {
        "species": [{ "element": "Yb", "occu": 1 }],
        "abc": [0.083819733302071, 0.083819733302071, 0.9161802666979281],
        "properties": { "magmom": 0.0 },
        "label": "Yb",
        "xyz": [4.0233274529569325, 5.647065180171543, 2.011769751137423]
      },
      {
        "species": [{ "element": "Yb", "occu": 1 }],
        "abc": [0.997561138623517, 0.997561138623517, 0.5024388613764821],
        "properties": { "magmom": 0.0 },
        "label": "Yb",
        "xyz": [6.0349911794354, 8.470597770257317, 23.94261165638202]
      },
      {
        "species": [{ "element": "Yb", "occu": 1 }],
        "abc": [0.5024388613764821, 0.5024388613764821, 0.997561138623517],
        "properties": { "magmom": 0.0 },
        "label": "Yb",
        "xyz": [6.0349911794354, 8.470597770257317, 12.059109034270348]
      },
      {
        "species": [{ "element": "Yb", "occu": 1 }],
        "abc": [0.252438861376482, 0.252438861376482, 0.747561138623517],
        "properties": { "magmom": 0.0 },
        "label": "Yb",
        "xyz": [4.0233274529569325, 5.647065180171543, 6.058822252494949]
      },
      {
        "species": [{ "element": "Yb", "occu": 1 }],
        "abc": [0.747561138623517, 0.747561138623517, 0.252438861376482],
        "properties": { "magmom": 0.0 },
        "label": "Yb",
        "xyz": [4.0233274529569325, 5.647065180171543, 17.942324874606623]
      },
      {
        "species": [{ "element": "Se", "occu": 1 }],
        "abc": [0.006879605989176, 0.493120394010823, 0.493120394010823],
        "properties": { "magmom": -0.0 },
        "label": "Se",
        "xyz": [3.9679696376733706, 2.823532590085769, 6.000286781775387]
      },
      {
        "species": [{ "element": "Se", "occu": 1 }],
        "abc": [0.493120394010823, 0.006879605989176, 0.006879605989176],
        "properties": { "magmom": -0.0 },
        "label": "Se",
        "xyz": [0.05535781528355762, 2.823532590085769, 6.000286781775387]
      },
      {
        "species": [{ "element": "Se", "occu": 1 }],
        "abc": [0.24312039401082303, 0.756879605989176, 0.756879605989176],
        "properties": { "magmom": -0.0 },
        "label": "Se",
        "xyz": [6.090348994718962, 5.647065180171543, 12.000573563550786]
      },
      {
        "species": [{ "element": "Se", "occu": 1 }],
        "abc": [0.756879605989176, 0.24312039401082303, 0.24312039401082303],
        "properties": { "magmom": -0.0 },
        "label": "Se",
        "xyz": [1.9563059111949026, 5.647065180171543, 12.000573563550786]
      },
      {
        "species": [{ "element": "Se", "occu": 1 }],
        "abc": [0.6648898337571011, 0.172751046239589, 0.84117764783322],
        "properties": { "magmom": -0.0 },
        "label": "Se",
        "xyz": [4.0793671502039075, 8.504861234277357, 10.052171000237704]
      },
      {
        "species": [{ "element": "Se", "occu": 1 }],
        "abc": [0.84117764783322, 0.32118247217009305, 0.6648898337571011],
        "properties": { "magmom": -0.0 },
        "label": "Se",
        "xyz": [3.967291779037431, 8.504861234277357, 13.94898812743749]
      },
      {
        "species": [{ "element": "Se", "occu": 1 }],
        "abc": [0.32118247217009305, 0.84117764783322, 0.172751046239589],
        "properties": { "magmom": -0.0 },
        "label": "Se",
        "xyz": [4.0793671502039075, 2.7892747731309377, 13.94898812743749]
      },
      {
        "species": [{ "element": "Se", "occu": 1 }],
        "abc": [0.172751046239589, 0.6648898337571011, 0.32118247217009305],
        "properties": { "magmom": -0.0 },
        "label": "Se",
        "xyz": [3.9672917790374305, 2.789274773130938, 10.052171000237704]
      },
      {
        "species": [{ "element": "Se", "occu": 1 }],
        "abc": [0.585110166242898, 0.07724895376041001, 0.40882235216678],
        "properties": { "magmom": -0.0 },
        "label": "Se",
        "xyz": [1.955624029231493, 5.612801716151509, 7.948689345088468]
      },
      {
        "species": [{ "element": "Se", "occu": 1 }],
        "abc": [0.40882235216678, 0.9288175278299061, 0.585110166242898],
        "properties": { "magmom": -0.0 },
        "label": "Se",
        "xyz": [6.091026853354903, 5.612801716151509, 16.05244578143949]
      },
      {
        "species": [{ "element": "Se", "occu": 1 }],
        "abc": [0.9288175278299061, 0.40882235216678, 0.07724895376041001],
        "properties": { "magmom": -0.0 },
        "label": "Se",
        "xyz": [1.9556240292314933, 5.681322997126374, 16.05244578143949]
      },
      {
        "species": [{ "element": "Se", "occu": 1 }],
        "abc": [0.07724895376041001, 0.585110166242898, 0.9288175278299061],
        "properties": { "magmom": -0.0 },
        "label": "Se",
        "xyz": [6.091026853354903, 5.681322997126374, 7.948689345088468]
      }
    ]
  },
  "task_ids": null,
  "uncorrected_energy_per_atom": null,
  "energy_per_atom": -25.36744655,
  "formation_energy_per_atom": -2.168758897437499,
  "energy_above_hull": 0.0,
  "is_stable": true,
  "equilibrium_reaction_energy_per_atom": null,
  "decomposes_to": null,
  "xas": null,
  "grain_boundaries": null,
  "band_gap": 0.0,
  "cbm": null,
  "vbm": null,
  "efermi": 0.19750457,
  "is_gap_direct": null,
  "is_metal": null,
  "es_source_calc_id": null,
  "bandstructure": null,
  "dos": null,
  "dos_energy_up": null,
  "dos_energy_down": null,
  "is_magnetic": null,
  "ordering": null,
  "total_magnetization": 0.0,
  "total_magnetization_normalized_vol": null,
  "total_magnetization_normalized_formula_units": null,
  "num_magnetic_sites": null,
  "num_unique_magnetic_sites": null,
  "types_of_magnetic_species": null,
  "bulk_modulus": null,
  "shear_modulus": null,
  "universal_anisotropy": null,
  "homogeneous_poisson": null,
  "e_total": null,
  "e_ionic": null,
  "e_electronic": null,
  "n": null,
  "e_ij_max": null,
  "weighted_surface_energy_EV_PER_ANG2": null,
  "weighted_surface_energy": null,
  "weighted_work_function": null,
  "surface_anisotropy": null,
  "shape_factor": null,
  "has_reconstructed": null,
  "possible_species": null,
  "has_props": null,
  "theoretical": null,
  "database_IDs": null,
  "fields_not_requested": [
    "builder_meta",
    "nsites",
    "elements",
    "nelements",
    "composition",
    "composition_reduced",
    "chemsys",
    "symmetry",
    "property_name",
    "deprecated",
    "deprecation_reasons",
    "last_updated",
    "origins",
    "warnings",
    "task_ids",
    "uncorrected_energy_per_atom",
    "equilibrium_reaction_energy_per_atom",
    "decomposes_to",
    "xas",
    "grain_boundaries",
    "cbm",
    "vbm",
    "is_gap_direct",
    "is_metal",
    "es_source_calc_id",
    "bandstructure",
    "dos",
    "dos_energy_up",
    "dos_energy_down",
    "is_magnetic",
    "ordering",
    "total_magnetization_normalized_vol",
    "total_magnetization_normalized_formula_units",
    "num_magnetic_sites",
    "num_unique_magnetic_sites",
    "types_of_magnetic_species",
    "bulk_modulus",
    "shear_modulus",
    "universal_anisotropy",
    "homogeneous_poisson",
    "e_total",
    "e_ionic",
    "e_electronic",
    "n",
    "e_ij_max",
    "weighted_surface_energy_EV_PER_ANG2",
    "weighted_surface_energy",
    "weighted_work_function",
    "surface_anisotropy",
    "shape_factor",
    "has_reconstructed",
    "possible_species",
    "has_props",
    "theoretical",
    "database_IDs"
  ]
}
