{"builder_meta": null, "nsites": null, "elements": null, "nelements": null, "composition": null, "composition_reduced": null, "formula_pretty": "Yb2Si", "formula_anonymous": "AB2", "chemsys": null, "volume": 279.4834153248053, "density": 8.892354909887604, "density_atomic": 23.290284610400445, "symmetry": null, "property_name": null, "material_id": "mp-1207599", "deprecated": null, "deprecation_reasons": null, "last_updated": null, "origins": null, "warnings": null, "structure": {"@module": "pymatgen.core.structure", "@class": "Structure", "charge": 0.0, "lattice": {"matrix": [[4.272201138437732, -0.0, 0.0], [-0.0, 7.284578583534464, 0.0], [0.0, 0.0, 8.980487602405315]], "pbc": [true, true, true], "a": 4.272201138437732, "b": 7.284578583534464, "c": 8.980487602405315, "alpha": 90.0, "beta": 90.0, "gamma": 90.0, "volume": 279.4834153248053}, "properties": {}, "sites": [{"species": [{"element": "Yb", "occu": 1}], "abc": [0.25, 0.6334138251875451, 0.5663921344152171], "properties": {"magmom": -0.0}, "label": "Yb", "xyz": [1.068050284609433, 4.6141527854758335, 5.086477541215742]}, {"species": [{"element": "Yb", "occu": 1}], "abc": [0.75, 0.36658617481245404, 0.43360786558478903], "properties": {"magmom": -0.0}, "label": "Yb", "xyz": [3.204150853828299, 2.670425798058624, 3.8940100611896282]}, {"species": [{"element": "Yb", "occu": 1}], "abc": [0.75, 0.866586174812454, 0.066392134415217], "properties": {"magmom": -0.0}, "label": "Yb", "xyz": [3.204150853828299, 6.312715089825856, 0.5962337400130836]}, {"species": [{"element": "Yb", "occu": 1}], "abc": [0.25, 0.13341382518754502, 0.933607865584782], "properties": {"magmom": -0.0}, "label": "Yb", "xyz": [1.068050284609433, 0.9718634937086014, 8.384253862392223]}, {"species": [{"element": "Yb", "occu": 1}], "abc": [0.25, 0.543779137756629, 0.169910976394881], "properties": {"magmom": -0.0}, "label": "Yb", "xyz": [1.068050284609433, 3.961201861074777, 1.525883417026811]}, {"species": [{"element": "Yb", "occu": 1}], "abc": [0.75, 0.45622086224337005, 0.830089023605118], "properties": {"magmom": -0.0}, "label": "Yb", "xyz": [3.204150853828299, 3.3233767224596806, 7.4546041853784955]}, {"species": [{"element": "Yb", "occu": 1}], "abc": [0.75, 0.9562208622433701, 0.6699109763948811], "properties": {"magmom": -0.0}, "label": "Yb", "xyz": [3.204150853828299, 6.965666014226913, 6.016127218229469]}, {"species": [{"element": "Yb", "occu": 1}], "abc": [0.25, 0.043779137756629005, 0.33008902360511805], "properties": {"magmom": -0.0}, "label": "Yb", "xyz": [1.068050284609433, 0.3189125693075447, 2.964360384175838]}, {"species": [{"element": "Si", "occu": 1}], "abc": [0.25, 0.736319489023415, 0.8728119584125901], "properties": {"magmom": 0.0}, "label": "Si", "xyz": [1.068050284609433, 5.363777180379009, 7.838276971755368]}, {"species": [{"element": "Si", "occu": 1}], "abc": [0.75, 0.263680510976584, 0.127188041587409], "properties": {"magmom": 0.0}, "label": "Si", "xyz": [3.204150853828299, 1.9208014031554481, 1.1422106306499382]}, {"species": [{"element": "Si", "occu": 1}], "abc": [0.75, 0.7636805109765841, 0.37281195841259], "properties": {"magmom": 0.0}, "label": "Si", "xyz": [3.204150853828299, 5.56309069492268, 3.3480331705527107]}, {"species": [{"element": "Si", "occu": 1}], "abc": [0.25, 0.236319489023415, 0.627188041587409], "properties": {"magmom": 0.0}, "label": "Si", "xyz": [1.068050284609433, 1.7214878886117768, 5.632454431852596]}]}, "task_ids": null, "uncorrected_energy_per_atom": null, "energy_per_atom": -27.880921114166668, "formation_energy_per_atom": -0.6034137258333341, "energy_above_hull": 0.10930632361110701, "is_stable": false, "equilibrium_reaction_energy_per_atom": null, "decomposes_to": null, "xas": null, "grain_boundaries": null, "band_gap": 0.050300000000000004, "cbm": null, "vbm": null, "efermi": 2.6333051, "is_gap_direct": null, "is_metal": null, "es_source_calc_id": null, "bandstructure": null, "dos": null, "dos_energy_up": null, "dos_energy_down": null, "is_magnetic": null, "ordering": null, "total_magnetization": 0.000308799999999, "total_magnetization_normalized_vol": null, "total_magnetization_normalized_formula_units": null, "num_magnetic_sites": null, "num_unique_magnetic_sites": null, "types_of_magnetic_species": null, "bulk_modulus": null, "shear_modulus": null, "universal_anisotropy": null, "homogeneous_poisson": null, "e_total": null, "e_ionic": null, "e_electronic": null, "n": null, "e_ij_max": null, "weighted_surface_energy_EV_PER_ANG2": null, "weighted_surface_energy": null, "weighted_work_function": null, "surface_anisotropy": null, "shape_factor": null, "has_reconstructed": null, "possible_species": null, "has_props": null, "theoretical": null, "database_IDs": null, "fields_not_requested": ["builder_meta", "nsites", "elements", "nelements", "composition", "composition_reduced", "chemsys", "symmetry", "property_name", "deprecated", "deprecation_reasons", "last_updated", "origins", "warnings", "task_ids", "uncorrected_energy_per_atom", "equilibrium_reaction_energy_per_atom", "decomposes_to", "xas", "grain_boundaries", "cbm", "vbm", "is_gap_direct", "is_metal", "es_source_calc_id", "bandstructure", "dos", "dos_energy_up", "dos_energy_down", "is_magnetic", "ordering", "total_magnetization_normalized_vol", "total_magnetization_normalized_formula_units", "num_magnetic_sites", "num_unique_magnetic_sites", "types_of_magnetic_species", "bulk_modulus", "shear_modulus", "universal_anisotropy", "homogeneous_poisson", "e_total", "e_ionic", "e_electronic", "n", "e_ij_max", "weighted_surface_energy_EV_PER_ANG2", "weighted_surface_energy", "weighted_work_function", "surface_anisotropy", "shape_factor", "has_reconstructed", "possible_species", "has_props", "theoretical", "database_IDs"]}