{"builder_meta": null, "nsites": null, "elements": null, "nelements": null, "composition": null, "composition_reduced": null, "formula_pretty": "Yb2S3", "formula_anonymous": "A2B3", "chemsys": null, "volume": 236.10847497127722, "density": 6.2209958009330855, "density_atomic": 23.610847497127722, "symmetry": null, "property_name": null, "material_id": "mp-3216704", "deprecated": null, "deprecation_reasons": null, "last_updated": null, "origins": null, "warnings": null, "structure": {"@module": "pymatgen.core.structure", "@class": "Structure", "charge": 0.0, "lattice": {"matrix": [[4.862588671730628, 5.270150108338333, 0.8575737430272491], [-4.862588671730628, 5.270150108338333, 0.8575737430272491], [-1e-16, 4.531412649891003, 5.344076282743946]], "pbc": [true, true, true], "a": 7.22181995618773, "b": 7.22181995618773, "c": 7.006629140990591, "alpha": 55.769327387331415, "beta": 55.769327387331415, "gamma": 84.64749485235646, "volume": 236.10847497127725}, "properties": {}, "sites": [{"species": [{"element": "Yb", "occu": 1}], "abc": [0.515116655551565, 0.8314702095010771, 0.826182610303355], "properties": {"magmom": -0.0}, "label": "Yb", "xyz": [-1.5382972076966213, 10.84048924419275, 5.5699804311121675]}, {"species": [{"element": "Yb", "occu": 1}], "abc": [0.48488334444843406, 0.168529790498922, 0.173817389696644], "properties": {"magmom": -0.0}, "label": "Yb", "xyz": [1.5382972076966213, 4.231223622374905, 1.4892433376862702]}, {"species": [{"element": "Yb", "occu": 1}], "abc": [0.8314702095010771, 0.515116655551565, 0.32618261030335505], "properties": {"magmom": -0.0}, "label": "Yb", "xyz": [1.5382972076966213, 8.574782919247248, 2.897942289740194]}, {"species": [{"element": "Yb", "occu": 1}], "abc": [0.168529790498922, 0.48488334444843406, 0.6738173896966441], "properties": {"magmom": -0.0}, "label": "Yb", "xyz": [-1.5382972076966213, 6.496929947320407, 4.1612814790582435]}, {"species": [{"element": "S", "occu": 1}], "abc": [0.19635670663632201, 0.396070225945912, 0.336856629810164], "properties": {"magmom": -0.0}, "label": "S", "xyz": [-0.9711246965862684, 4.648615256452235, 2.308237308098253]}, {"species": [{"element": "S", "occu": 1}], "abc": [0.8012818444391241, 0.19871815556088201, 0.25], "properties": {"magmom": 0.0}, "label": "S", "xyz": [2.9300193675355586, 6.403003270811116, 2.1935928137132406]}, {"species": [{"element": "S", "occu": 1}], "abc": [0.6039297740540871, 0.803643293363677, 0.16314337018983502], "properties": {"magmom": -0.0}, "label": "S", "xyz": [-0.9711246965862683, 8.157391285169918, 2.0789483193282114]}, {"species": [{"element": "S", "occu": 1}], "abc": [0.803643293363677, 0.6039297740540871, 0.663143370189835], "properties": {"magmom": -0.0}, "label": "S", "xyz": [0.9711246965862682, 10.42309761011542, 4.750986460700185]}, {"species": [{"element": "S", "occu": 1}], "abc": [0.19871815556088201, 0.8012818444391241, 0.75], "properties": {"magmom": 0.0}, "label": "S", "xyz": [-2.9300193675355586, 8.668709595756617, 4.865630955085214]}, {"species": [{"element": "S", "occu": 1}], "abc": [0.396070225945912, 0.19635670663632201, 0.8368566298101641], "properties": {"magmom": -0.0}, "label": "S", "xyz": [0.9711246965862683, 6.914321581397736, 4.980275449470226]}]}, "task_ids": null, "uncorrected_energy_per_atom": null, "energy_per_atom": -21.763866751000002, "formation_energy_per_atom": -2.3311157876875, "energy_above_hull": 0.0, "is_stable": true, "equilibrium_reaction_energy_per_atom": null, "decomposes_to": null, "xas": null, "grain_boundaries": null, "band_gap": 2.5394, "cbm": null, "vbm": null, "efermi": 2.00306884, "is_gap_direct": null, "is_metal": null, "es_source_calc_id": null, "bandstructure": null, "dos": null, "dos_energy_up": null, "dos_energy_down": null, "is_magnetic": null, "ordering": null, "total_magnetization": 0.0, "total_magnetization_normalized_vol": null, "total_magnetization_normalized_formula_units": null, "num_magnetic_sites": null, "num_unique_magnetic_sites": null, "types_of_magnetic_species": null, "bulk_modulus": null, "shear_modulus": null, "universal_anisotropy": null, "homogeneous_poisson": null, "e_total": null, "e_ionic": null, "e_electronic": null, "n": null, "e_ij_max": null, "weighted_surface_energy_EV_PER_ANG2": null, "weighted_surface_energy": null, "weighted_work_function": null, "surface_anisotropy": null, "shape_factor": null, "has_reconstructed": null, "possible_species": null, "has_props": null, "theoretical": null, "database_IDs": null, "fields_not_requested": ["builder_meta", "nsites", "elements", "nelements", "composition", "composition_reduced", "chemsys", "symmetry", "property_name", "deprecated", "deprecation_reasons", "last_updated", "origins", "warnings", "task_ids", "uncorrected_energy_per_atom", "equilibrium_reaction_energy_per_atom", "decomposes_to", "xas", "grain_boundaries", "cbm", "vbm", "is_gap_direct", "is_metal", "es_source_calc_id", "bandstructure", "dos", "dos_energy_up", "dos_energy_down", "is_magnetic", "ordering", "total_magnetization_normalized_vol", "total_magnetization_normalized_formula_units", "num_magnetic_sites", "num_unique_magnetic_sites", "types_of_magnetic_species", "bulk_modulus", "shear_modulus", "universal_anisotropy", "homogeneous_poisson", "e_total", "e_ionic", "e_electronic", "n", "e_ij_max", "weighted_surface_energy_EV_PER_ANG2", "weighted_surface_energy", "weighted_work_function", "surface_anisotropy", "shape_factor", "has_reconstructed", "possible_species", "has_props", "theoretical", "database_IDs"]}