{"builder_meta": null, "nsites": null, "elements": null, "nelements": null, "composition": null, "composition_reduced": null, "formula_pretty": "Yb2Tl", "formula_anonymous": "AB2", "chemsys": null, "volume": 322.10911630968485, "density": 11.351008314843805, "density_atomic": 26.842426359140404, "symmetry": null, "property_name": null, "material_id": "mp-569605", "deprecated": null, "deprecation_reasons": null, "last_updated": null, "origins": null, "warnings": null, "structure": {"@module": "pymatgen.core.structure", "@class": "Structure", "charge": 0.0, "lattice": {"matrix": [[4.870381615896347, -0.0, 0.0], [-0.0, 6.789117464137885, 0.0], [0.0, 0.0, 9.741519452716558]], "pbc": [true, true, true], "a": 4.870381615896347, "b": 6.789117464137885, "c": 9.741519452716558, "alpha": 90.0, "beta": 90.0, "gamma": 90.0, "volume": 322.10911630968485}, "properties": {}, "sites": [{"species": [{"element": "Yb", "occu": 1}], "abc": [0.25, 0.159009619305919, 0.9429325776518451], "properties": {"magmom": 0.0}, "label": "Yb", "xyz": [1.2175954039740868, 1.0795349833957313, 9.185596047795615]}, {"species": [{"element": "Yb", "occu": 1}], "abc": [0.75, 0.84099038069408, 0.057067422348154005], "properties": {"magmom": 0.0}, "label": "Yb", "xyz": [3.6527862119222605, 5.709582480742147, 0.5559234049209338]}, {"species": [{"element": "Yb", "occu": 1}], "abc": [0.75, 0.445073953694318, 0.799357284461578], "properties": {"magmom": 0.0}, "label": "Yb", "xyz": [3.6527862119222605, 3.0216593518589905, 7.786954536253146]}, {"species": [{"element": "Yb", "occu": 1}], "abc": [0.25, 0.5549260463056811, 0.20064271553842103], "properties": {"magmom": 0.0}, "label": "Yb", "xyz": [1.2175954039740868, 3.767458112278888, 1.9545649164634031]}, {"species": [{"element": "Yb", "occu": 1}], "abc": [0.25, 0.6590096193059191, 0.5570674223481541], "properties": {"magmom": 0.0}, "label": "Yb", "xyz": [1.2175954039740868, 4.474093715464674, 5.426683131279214]}, {"species": [{"element": "Yb", "occu": 1}], "abc": [0.75, 0.34099038069408005, 0.442932577651845], "properties": {"magmom": 0.0}, "label": "Yb", "xyz": [3.6527862119222605, 2.315023748673205, 4.314836321437335]}, {"species": [{"element": "Yb", "occu": 1}], "abc": [0.75, 0.9450739536943181, 0.7006427155384211], "properties": {"magmom": 0.0}, "label": "Yb", "xyz": [3.6527862119222605, 6.416218083927934, 6.825324642821682]}, {"species": [{"element": "Yb", "occu": 1}], "abc": [0.25, 0.05492604630568101, 0.299357284461578], "properties": {"magmom": 0.0}, "label": "Yb", "xyz": [1.2175954039740868, 0.37289938020994506, 2.9161948098948662]}, {"species": [{"element": "Tl", "occu": 1}], "abc": [0.25, 0.7069353377968851, 0.8753144498849961], "properties": {"magmom": 0.0}, "label": "Tl", "xyz": [1.2175954039740868, 4.799467047853048, 8.526892740798582]}, {"species": [{"element": "Tl", "occu": 1}], "abc": [0.75, 0.7930646622031141, 0.375314449884996], "properties": {"magmom": 0.0}, "label": "Tl", "xyz": [3.6527862119222605, 5.384209148353774, 3.6561330144403024]}, {"species": [{"element": "Tl", "occu": 1}], "abc": [0.25, 0.20693533779688503, 0.624685550115003], "properties": {"magmom": 0.0}, "label": "Tl", "xyz": [1.2175954039740868, 1.4049083157841047, 6.085386438276246]}, {"species": [{"element": "Tl", "occu": 1}], "abc": [0.75, 0.293064662203114, 0.12468555011500301], "properties": {"magmom": 0.0}, "label": "Tl", "xyz": [3.6527862119222605, 1.9896504162848312, 1.214626711917967]}]}, "task_ids": null, "uncorrected_energy_per_atom": null, "energy_per_atom": -42.44197744, "formation_energy_per_atom": -0.36262339000000504, "energy_above_hull": 0.0, "is_stable": true, "equilibrium_reaction_energy_per_atom": null, "decomposes_to": null, "xas": null, "grain_boundaries": null, "band_gap": 0.0, "cbm": null, "vbm": null, "efermi": 3.14140319, "is_gap_direct": null, "is_metal": null, "es_source_calc_id": null, "bandstructure": null, "dos": null, "dos_energy_up": null, "dos_energy_down": null, "is_magnetic": null, "ordering": null, "total_magnetization": 2.299999999999998e-06, "total_magnetization_normalized_vol": null, "total_magnetization_normalized_formula_units": null, "num_magnetic_sites": null, "num_unique_magnetic_sites": null, "types_of_magnetic_species": null, "bulk_modulus": null, "shear_modulus": null, "universal_anisotropy": null, "homogeneous_poisson": null, "e_total": null, "e_ionic": null, "e_electronic": null, "n": null, "e_ij_max": null, "weighted_surface_energy_EV_PER_ANG2": null, "weighted_surface_energy": null, "weighted_work_function": null, "surface_anisotropy": null, "shape_factor": null, "has_reconstructed": null, "possible_species": null, "has_props": null, "theoretical": null, "database_IDs": null, "fields_not_requested": ["builder_meta", "nsites", "elements", "nelements", "composition", "composition_reduced", "chemsys", "symmetry", "property_name", "deprecated", "deprecation_reasons", "last_updated", "origins", "warnings", "task_ids", "uncorrected_energy_per_atom", "equilibrium_reaction_energy_per_atom", "decomposes_to", "xas", "grain_boundaries", "cbm", "vbm", "is_gap_direct", "is_metal", "es_source_calc_id", "bandstructure", "dos", "dos_energy_up", "dos_energy_down", "is_magnetic", "ordering", "total_magnetization_normalized_vol", "total_magnetization_normalized_formula_units", "num_magnetic_sites", "num_unique_magnetic_sites", "types_of_magnetic_species", "bulk_modulus", "shear_modulus", "universal_anisotropy", "homogeneous_poisson", "e_total", "e_ionic", "e_electronic", "n", "e_ij_max", "weighted_surface_energy_EV_PER_ANG2", "weighted_surface_energy", "weighted_work_function", "surface_anisotropy", "shape_factor", "has_reconstructed", "possible_species", "has_props", "theoretical", "database_IDs"]}