{"builder_meta": null, "nsites": null, "elements": null, "nelements": null, "composition": null, "composition_reduced": null, "formula_pretty": "Yb3Ag2", "formula_anonymous": "A2B3", "chemsys": null, "volume": 244.00610448718407, "density": 10.001862560820708, "density_atomic": 24.400610448718407, "symmetry": null, "property_name": null, "material_id": "mp-571608", "deprecated": null, "deprecation_reasons": null, "last_updated": null, "origins": null, "warnings": null, "structure": {"@module": "pymatgen.core.structure", "@class": "Structure", "charge": 0.0, "lattice": {"matrix": [[0.0, 0.0, 3.744500652937184], [8.072413321956892, -0.0, 0.0], [0.0, 8.072413321956892, 0.0]], "pbc": [true, true, true], "a": 3.744500652937184, "b": 8.072413321956892, "c": 8.072413321956892, "alpha": 90.0, "beta": 90.0, "gamma": 90.0, "volume": 244.00610448718405}, "properties": {}, "sites": [{"species": [{"element": "Yb", "occu": 1}], "abc": [0.5, 0.335025488711984, 0.835025488711977], "properties": {"magmom": -0.333}, "label": "Yb", "xyz": [2.704464218273738, 6.740670879252128, 1.872250326468592]}, {"species": [{"element": "Yb", "occu": 1}], "abc": [0.5, 0.835025488711977, 0.6649745112880221], "properties": {"magmom": -0.333}, "label": "Yb", "xyz": [6.740670879252128, 5.367949103683204, 1.872250326468592]}, {"species": [{"element": "Yb", "occu": 1}], "abc": [0.0, 0.0, 0.0], "properties": {"magmom": -0.485}, "label": "Yb", "xyz": [0.0, 0.0, 0.0]}, {"species": [{"element": "Yb", "occu": 1}], "abc": [0.5, 0.6649745112880221, 0.16497451128801502], "properties": {"magmom": -0.333}, "label": "Yb", "xyz": [5.367949103683204, 1.3317424427047002, 1.872250326468592]}, {"species": [{"element": "Yb", "occu": 1}], "abc": [0.5, 0.16497451128801502, 0.335025488711984], "properties": {"magmom": -0.333}, "label": "Yb", "xyz": [1.3317424427047002, 2.704464218273738, 1.872250326468592]}, {"species": [{"element": "Yb", "occu": 1}], "abc": [0.0, 0.5, 0.5], "properties": {"magmom": -0.485}, "label": "Yb", "xyz": [4.036206660978446, 4.036206660978446, 0.0]}, {"species": [{"element": "Ag", "occu": 1}], "abc": [0.0, 0.870799980987449, 0.37079998098744904], "properties": {"magmom": -0.051000000000000004}, "label": "Ag", "xyz": [7.029457367282892, 2.9932507063044462, 0.0]}, {"species": [{"element": "Ag", "occu": 1}], "abc": [0.0, 0.12920001901255002, 0.6292000190125501], "properties": {"magmom": -0.051000000000000004}, "label": "Ag", "xyz": [1.0429559546739926, 5.079162615652439, 0.0]}, {"species": [{"element": "Ag", "occu": 1}], "abc": [0.0, 0.37079998098744904, 0.12920001901255002], "properties": {"magmom": -0.051000000000000004}, "label": "Ag", "xyz": [2.9932507063044462, 1.0429559546739926, 0.0]}, {"species": [{"element": "Ag", "occu": 1}], "abc": [0.0, 0.6292000190125501, 0.870799980987449], "properties": {"magmom": -0.051000000000000004}, "label": "Ag", "xyz": [5.079162615652439, 7.029457367282892, 0.0]}]}, "task_ids": null, "uncorrected_energy_per_atom": null, "energy_per_atom": -30.709392577, "formation_energy_per_atom": -0.249414447999998, "energy_above_hull": 0.045435116000000005, "is_stable": false, "equilibrium_reaction_energy_per_atom": null, "decomposes_to": null, "xas": null, "grain_boundaries": null, "band_gap": 0.0, "cbm": null, "vbm": null, "efermi": 2.10693677, "is_gap_direct": null, "is_metal": null, "es_source_calc_id": null, "bandstructure": null, "dos": null, "dos_energy_up": null, "dos_energy_down": null, "is_magnetic": null, "ordering": null, "total_magnetization": 2.745742899999999, "total_magnetization_normalized_vol": null, "total_magnetization_normalized_formula_units": null, "num_magnetic_sites": null, "num_unique_magnetic_sites": null, "types_of_magnetic_species": null, "bulk_modulus": null, "shear_modulus": null, "universal_anisotropy": null, "homogeneous_poisson": null, "e_total": null, "e_ionic": null, "e_electronic": null, "n": null, "e_ij_max": null, "weighted_surface_energy_EV_PER_ANG2": null, "weighted_surface_energy": null, "weighted_work_function": null, "surface_anisotropy": null, "shape_factor": null, "has_reconstructed": null, "possible_species": null, "has_props": null, "theoretical": null, "database_IDs": null, "fields_not_requested": ["builder_meta", "nsites", "elements", "nelements", "composition", "composition_reduced", "chemsys", "symmetry", "property_name", "deprecated", "deprecation_reasons", "last_updated", "origins", "warnings", "task_ids", "uncorrected_energy_per_atom", "equilibrium_reaction_energy_per_atom", "decomposes_to", "xas", "grain_boundaries", "cbm", "vbm", "is_gap_direct", "is_metal", "es_source_calc_id", "bandstructure", "dos", "dos_energy_up", "dos_energy_down", "is_magnetic", "ordering", "total_magnetization_normalized_vol", "total_magnetization_normalized_formula_units", "num_magnetic_sites", "num_unique_magnetic_sites", "types_of_magnetic_species", "bulk_modulus", "shear_modulus", "universal_anisotropy", "homogeneous_poisson", "e_total", "e_ionic", "e_electronic", "n", "e_ij_max", "weighted_surface_energy_EV_PER_ANG2", "weighted_surface_energy", "weighted_work_function", "surface_anisotropy", "shape_factor", "has_reconstructed", "possible_species", "has_props", "theoretical", "database_IDs"]}