{
  "builder_meta": null,
  "nsites": null,
  "elements": null,
  "nelements": null,
  "composition": null,
  "composition_reduced": null,
  "formula_pretty": "Yb3Co",
  "formula_anonymous": "AB3",
  "chemsys": null,
  "volume": 377.56629562949774,
  "density": 10.169127106751805,
  "density_atomic": 23.59789347684361,
  "symmetry": null,
  "property_name": null,
  "material_id": "mp-1105958",
  "deprecated": null,
  "deprecation_reasons": null,
  "last_updated": null,
  "origins": null,
  "warnings": null,
  "structure": {
    "@module": "pymatgen.core.structure",
    "@class": "Structure",
    "charge": 0.0,
    "lattice": {
      "matrix": [
        [6.109056454404279, -0.0, 0.0],
        [0.0, 6.778145641868916, 0.0],
        [0.0, 0.0, 9.118180481979127]
      ],
      "pbc": [true, true, true],
      "a": 6.109056454404279,
      "b": 6.778145641868916,
      "c": 9.118180481979127,
      "alpha": 90.0,
      "beta": 90.0,
      "gamma": 90.0,
      "volume": 377.5662956294977
    },
    "properties": {},
    "sites": [
      {
        "species": [{ "element": "Yb", "occu": 1 }],
        "abc": [0.320752299924677, 0.6743349379572761, 0.06745862975958501],
        "properties": { "magmom": -0.0 },
        "label": "Yb",
        "xyz": [1.9594939081198655, 4.570740420875056, 0.6150999612149044]
      },
      {
        "species": [{ "element": "Yb", "occu": 1 }],
        "abc": [0.179247700075322, 0.174334937957276, 0.43254137024041406],
        "properties": { "magmom": -0.0 },
        "label": "Yb",
        "xyz": [1.0950343190822684, 1.1816675999405981, 3.943990279774651]
      },
      {
        "species": [{ "element": "Yb", "occu": 1 }],
        "abc": [0.6792477000753221, 0.32566506204272305, 0.567458629759585],
        "properties": { "magmom": -0.0 },
        "label": "Yb",
        "xyz": [4.149562546284408, 2.2074052209938535, 5.174190202204469]
      },
      {
        "species": [{ "element": "Yb", "occu": 1 }],
        "abc": [0.820752299924677, 0.825665062042723, 0.9325413702404141],
        "properties": { "magmom": -0.0 },
        "label": "Yb",
        "xyz": [5.014022135322005, 5.596478041928311, 8.503080520764215]
      },
      {
        "species": [{ "element": "Yb", "occu": 1 }],
        "abc": [0.6792477000753221, 0.32566506204272305, 0.9325413702404141],
        "properties": { "magmom": -0.0 },
        "label": "Yb",
        "xyz": [4.149562546284408, 2.2074052209938535, 8.503080520764215]
      },
      {
        "species": [{ "element": "Yb", "occu": 1 }],
        "abc": [0.820752299924677, 0.825665062042723, 0.567458629759585],
        "properties": { "magmom": -0.0 },
        "label": "Yb",
        "xyz": [5.014022135322005, 5.596478041928311, 5.174190202204469]
      },
      {
        "species": [{ "element": "Yb", "occu": 1 }],
        "abc": [0.320752299924677, 0.6743349379572761, 0.43254137024041406],
        "properties": { "magmom": -0.0 },
        "label": "Yb",
        "xyz": [1.9594939081198655, 4.570740420875056, 3.943990279774651]
      },
      {
        "species": [{ "element": "Yb", "occu": 1 }],
        "abc": [0.179247700075322, 0.174334937957276, 0.06745862975958501],
        "properties": { "magmom": -0.0 },
        "label": "Yb",
        "xyz": [1.0950343190822684, 1.1816675999405981, 0.6150999612149044]
      },
      {
        "species": [{ "element": "Yb", "occu": 1 }],
        "abc": [0.8634804691928291, 0.544736792977744, 0.25],
        "properties": { "magmom": -0.0 },
        "label": "Yb",
        "xyz": [5.275050933574488, 3.6923053192877453, 2.279545120494782]
      },
      {
        "species": [{ "element": "Yb", "occu": 1 }],
        "abc": [0.63651953080717, 0.044736792977744, 0.25],
        "properties": { "magmom": -0.0 },
        "label": "Yb",
        "xyz": [3.8885337480319255, 0.3032324983532874, 2.279545120494782]
      },
      {
        "species": [{ "element": "Yb", "occu": 1 }],
        "abc": [0.13651953080717, 0.45526320702225503, 0.75],
        "properties": { "magmom": -0.0 },
        "label": "Yb",
        "xyz": [0.8340055208297857, 3.0858403225811637, 6.838635361484346]
      },
      {
        "species": [{ "element": "Yb", "occu": 1 }],
        "abc": [0.363480469192829, 0.9552632070222551, 0.75],
        "properties": { "magmom": -0.0 },
        "label": "Yb",
        "xyz": [2.220522706372348, 6.474913143515622, 6.838635361484346]
      },
      {
        "species": [{ "element": "Co", "occu": 1 }],
        "abc": [0.036941150743857, 0.8899671294976341, 0.25],
        "properties": { "magmom": 0.0 },
        "label": "Co",
        "xyz": [0.22567557538488106, 6.032326820210978, 2.279545120494782]
      },
      {
        "species": [{ "element": "Co", "occu": 1 }],
        "abc": [0.46305884925614205, 0.389967129497634, 0.25],
        "properties": { "magmom": 0.0 },
        "label": "Co",
        "xyz": [2.828852651817253, 2.643253999276519, 2.279545120494782]
      },
      {
        "species": [{ "element": "Co", "occu": 1 }],
        "abc": [0.963058849256142, 0.110032870502365, 0.75],
        "properties": { "magmom": 0.0 },
        "label": "Co",
        "xyz": [5.883380879019392, 0.7458188216579321, 6.838635361484346]
      },
      {
        "species": [{ "element": "Co", "occu": 1 }],
        "abc": [0.5369411507438571, 0.6100328705023651, 0.75],
        "properties": { "magmom": 0.0 },
        "label": "Co",
        "xyz": [3.280203802587021, 4.1348916425923905, 6.838635361484346]
      }
    ]
  },
  "task_ids": null,
  "uncorrected_energy_per_atom": null,
  "energy_per_atom": -30.855013451875,
  "formation_energy_per_atom": -0.14942158062500202,
  "energy_above_hull": 0.0,
  "is_stable": true,
  "equilibrium_reaction_energy_per_atom": null,
  "decomposes_to": null,
  "xas": null,
  "grain_boundaries": null,
  "band_gap": 0.0,
  "cbm": null,
  "vbm": null,
  "efermi": 1.89625025,
  "is_gap_direct": null,
  "is_metal": null,
  "es_source_calc_id": null,
  "bandstructure": null,
  "dos": null,
  "dos_energy_up": null,
  "dos_energy_down": null,
  "is_magnetic": null,
  "ordering": null,
  "total_magnetization": 2e-7,
  "total_magnetization_normalized_vol": null,
  "total_magnetization_normalized_formula_units": null,
  "num_magnetic_sites": null,
  "num_unique_magnetic_sites": null,
  "types_of_magnetic_species": null,
  "bulk_modulus": null,
  "shear_modulus": null,
  "universal_anisotropy": null,
  "homogeneous_poisson": null,
  "e_total": null,
  "e_ionic": null,
  "e_electronic": null,
  "n": null,
  "e_ij_max": null,
  "weighted_surface_energy_EV_PER_ANG2": null,
  "weighted_surface_energy": null,
  "weighted_work_function": null,
  "surface_anisotropy": null,
  "shape_factor": null,
  "has_reconstructed": null,
  "possible_species": null,
  "has_props": null,
  "theoretical": null,
  "database_IDs": null,
  "fields_not_requested": [
    "builder_meta",
    "nsites",
    "elements",
    "nelements",
    "composition",
    "composition_reduced",
    "chemsys",
    "symmetry",
    "property_name",
    "deprecated",
    "deprecation_reasons",
    "last_updated",
    "origins",
    "warnings",
    "task_ids",
    "uncorrected_energy_per_atom",
    "equilibrium_reaction_energy_per_atom",
    "decomposes_to",
    "xas",
    "grain_boundaries",
    "cbm",
    "vbm",
    "is_gap_direct",
    "is_metal",
    "es_source_calc_id",
    "bandstructure",
    "dos",
    "dos_energy_up",
    "dos_energy_down",
    "is_magnetic",
    "ordering",
    "total_magnetization_normalized_vol",
    "total_magnetization_normalized_formula_units",
    "num_magnetic_sites",
    "num_unique_magnetic_sites",
    "types_of_magnetic_species",
    "bulk_modulus",
    "shear_modulus",
    "universal_anisotropy",
    "homogeneous_poisson",
    "e_total",
    "e_ionic",
    "e_electronic",
    "n",
    "e_ij_max",
    "weighted_surface_energy_EV_PER_ANG2",
    "weighted_surface_energy",
    "weighted_work_function",
    "surface_anisotropy",
    "shape_factor",
    "has_reconstructed",
    "possible_species",
    "has_props",
    "theoretical",
    "database_IDs"
  ]
}
