{"builder_meta": null, "nsites": null, "elements": null, "nelements": null, "composition": null, "composition_reduced": null, "formula_pretty": "Yb3Dy", "formula_anonymous": "AB3", "chemsys": null, "volume": 241.78697221019988, "density": 9.362428655518306, "density_atomic": 30.223371526274985, "symmetry": null, "property_name": null, "material_id": "mp-1187988", "deprecated": null, "deprecation_reasons": null, "last_updated": null, "origins": null, "warnings": null, "structure": {"@module": "pymatgen.core.structure", "@class": "Structure", "charge": 0.0, "lattice": {"matrix": [[3.56300521476424, -6.171305411288755, 0.0], [3.56300521476424, 6.171305411288755, 0.0], [0.0, 0.0, 5.498059094769582]], "pbc": [true, true, true], "a": 7.126009868070563, "b": 7.126009868070563, "c": 5.498059094769582, "alpha": 90.0, "beta": 90.0, "gamma": 119.9999947872992, "volume": 241.78697221019985}, "properties": {}, "sites": [{"species": [{"element": "Yb", "occu": 1}], "abc": [0.16649219451556901, 0.33298338902892505, 0.25], "properties": {"magmom": 0.001}, "label": "Yb", "xyz": [1.7796341088164445, 1.0274680096322029, 1.3745147736923955]}, {"species": [{"element": "Yb", "occu": 1}], "abc": [0.667016610971074, 0.83350780548443, 0.25], "properties": {"magmom": 0.001}, "label": "Yb", "xyz": [5.346376320712029, 1.0274680096322033, 1.3745147736923955]}, {"species": [{"element": "Yb", "occu": 1}], "abc": [0.166492194513352, 0.833507805486647, 0.25], "properties": {"magmom": 0.001}, "label": "Yb", "xyz": [3.563005214764237, 4.116357049413571, 1.3745147736923955]}, {"species": [{"element": "Yb", "occu": 1}], "abc": [0.83350780548443, 0.667016610971074, 0.75], "properties": {"magmom": 0.001}, "label": "Yb", "xyz": [5.346376320712029, -1.0274680096322033, 4.123544321077187]}, {"species": [{"element": "Yb", "occu": 1}], "abc": [0.33298338902892505, 0.16649219451556901, 0.75], "properties": {"magmom": 0.001}, "label": "Yb", "xyz": [1.7796341088164445, -1.0274680096322029, 4.123544321077187]}, {"species": [{"element": "Yb", "occu": 1}], "abc": [0.833507805486647, 0.166492194513352, 0.75], "properties": {"magmom": 0.001}, "label": "Yb", "xyz": [3.563005214764237, -4.116357049413571, 4.123544321077187]}, {"species": [{"element": "Dy", "occu": 1}], "abc": [0.33333300000000304, 0.666666999999996, 0.75], "properties": {"magmom": 0.001}, "label": "Dy", "xyz": [3.563005214764237, 2.057105917966483, 4.123544321077187]}, {"species": [{"element": "Dy", "occu": 1}], "abc": [0.666666999999996, 0.33333300000000304, 0.25], "properties": {"magmom": 0.001}, "label": "Dy", "xyz": [3.563005214764237, -2.057105917966483, 1.3745147736923955]}]}, "task_ids": null, "uncorrected_energy_per_atom": null, "energy_per_atom": -35.4033849425, "formation_energy_per_atom": -0.010900047500001, "energy_above_hull": 0.0, "is_stable": true, "equilibrium_reaction_energy_per_atom": null, "decomposes_to": null, "xas": null, "grain_boundaries": null, "band_gap": 0.0, "cbm": null, "vbm": null, "efermi": 1.83840394, "is_gap_direct": null, "is_metal": null, "es_source_calc_id": null, "bandstructure": null, "dos": null, "dos_energy_up": null, "dos_energy_down": null, "is_magnetic": null, "ordering": null, "total_magnetization": 0.0042228, "total_magnetization_normalized_vol": null, "total_magnetization_normalized_formula_units": null, "num_magnetic_sites": null, "num_unique_magnetic_sites": null, "types_of_magnetic_species": null, "bulk_modulus": null, "shear_modulus": null, "universal_anisotropy": null, "homogeneous_poisson": null, "e_total": null, "e_ionic": null, "e_electronic": null, "n": null, "e_ij_max": null, "weighted_surface_energy_EV_PER_ANG2": null, "weighted_surface_energy": null, "weighted_work_function": null, "surface_anisotropy": null, "shape_factor": null, "has_reconstructed": null, "possible_species": null, "has_props": null, "theoretical": null, "database_IDs": null, "fields_not_requested": ["builder_meta", "nsites", "elements", "nelements", "composition", "composition_reduced", "chemsys", "symmetry", "property_name", "deprecated", "deprecation_reasons", "last_updated", "origins", "warnings", "task_ids", "uncorrected_energy_per_atom", "equilibrium_reaction_energy_per_atom", "decomposes_to", "xas", "grain_boundaries", "cbm", "vbm", "is_gap_direct", "is_metal", "es_source_calc_id", "bandstructure", "dos", "dos_energy_up", "dos_energy_down", "is_magnetic", "ordering", "total_magnetization_normalized_vol", "total_magnetization_normalized_formula_units", "num_magnetic_sites", "num_unique_magnetic_sites", "types_of_magnetic_species", "bulk_modulus", "shear_modulus", "universal_anisotropy", "homogeneous_poisson", "e_total", "e_ionic", "e_electronic", "n", "e_ij_max", "weighted_surface_energy_EV_PER_ANG2", "weighted_surface_energy", "weighted_work_function", "surface_anisotropy", "shape_factor", "has_reconstructed", "possible_species", "has_props", "theoretical", "database_IDs"]}