{
  "builder_meta": null,
  "nsites": null,
  "elements": null,
  "nelements": null,
  "composition": null,
  "composition_reduced": null,
  "formula_pretty": "Yb3Er",
  "formula_anonymous": "AB3",
  "chemsys": null,
  "volume": 239.54151388035723,
  "density": 9.516172170165978,
  "density_atomic": 29.942689235044654,
  "symmetry": null,
  "property_name": null,
  "material_id": "mp-1187992",
  "deprecated": null,
  "deprecation_reasons": null,
  "last_updated": null,
  "origins": null,
  "warnings": null,
  "structure": {
    "@module": "pymatgen.core.structure",
    "@class": "Structure",
    "charge": 0.0,
    "lattice": {
      "matrix": [
        [3.55146450659569, -6.151316864656398, -0.0],
        [3.55146450659569, 6.151316864656398, -0.0],
        [-0.0, 0.0, 5.482456780853248]
      ],
      "pbc": [true, true, true],
      "a": 7.102928924817929,
      "b": 7.102928924817929,
      "c": 5.482456780853248,
      "alpha": 90.0,
      "beta": 90.0,
      "gamma": 119.99999917685498,
      "volume": 239.5415138803572
    },
    "properties": {},
    "sites": [
      {
        "species": [{ "element": "Yb", "occu": 1 }],
        "abc": [0.16688850544501502, 0.33377701088981104, 0.25],
        "properties": { "magmom": -0.0 },
        "label": "Yb",
        "xyz": [1.7780958109395395, 1.026584078059875, 1.370614195213312]
      },
      {
        "species": [{ "element": "Yb", "occu": 1 }],
        "abc": [0.6662229891101881, 0.833111494554977, 0.25],
        "properties": { "magmom": -0.0 },
        "label": "Yb",
        "xyz": [5.32483320225181, 1.0265840780598312, 1.370614195213312]
      },
      {
        "species": [{ "element": "Yb", "occu": 1 }],
        "abc": [0.166888505444788, 0.833111494555211, 0.25],
        "properties": { "magmom": -0.0 },
        "label": "Yb",
        "xyz": [3.5514645065956865, 4.0981487085367405, 1.370614195213312]
      },
      {
        "species": [{ "element": "Yb", "occu": 1 }],
        "abc": [0.833111494554977, 0.6662229891101881, 0.75],
        "properties": { "magmom": -0.0 },
        "label": "Yb",
        "xyz": [5.32483320225181, -1.0265840780598312, 4.111842585639936]
      },
      {
        "species": [{ "element": "Yb", "occu": 1 }],
        "abc": [0.33377701088981104, 0.16688850544501502, 0.75],
        "properties": { "magmom": -0.0 },
        "label": "Yb",
        "xyz": [1.7780958109395395, -1.026584078059875, 4.111842585639936]
      },
      {
        "species": [{ "element": "Yb", "occu": 1 }],
        "abc": [0.833111494555211, 0.166888505444788, 0.75],
        "properties": { "magmom": -0.0 },
        "label": "Yb",
        "xyz": [3.5514645065956865, -4.0981487085367405, 4.111842585639936]
      },
      {
        "species": [{ "element": "Er", "occu": 1 }],
        "abc": [0.33333300000000304, 0.666666999999996, 0.75],
        "properties": { "magmom": -0.0 },
        "label": "Er",
        "xyz": [3.5514645065956865, 2.050443055763332, 4.111842585639936]
      },
      {
        "species": [{ "element": "Er", "occu": 1 }],
        "abc": [0.666666999999996, 0.33333300000000304, 0.25],
        "properties": { "magmom": -0.0 },
        "label": "Er",
        "xyz": [3.5514645065956865, -2.050443055763332, 1.370614195213312]
      }
    ]
  },
  "task_ids": null,
  "uncorrected_energy_per_atom": null,
  "energy_per_atom": -35.88631823125,
  "formation_energy_per_atom": -0.007925350833339001,
  "energy_above_hull": 0.0,
  "is_stable": true,
  "equilibrium_reaction_energy_per_atom": null,
  "decomposes_to": null,
  "xas": null,
  "grain_boundaries": null,
  "band_gap": 0.0,
  "cbm": null,
  "vbm": null,
  "efermi": 1.83978608,
  "is_gap_direct": null,
  "is_metal": null,
  "es_source_calc_id": null,
  "bandstructure": null,
  "dos": null,
  "dos_energy_up": null,
  "dos_energy_down": null,
  "is_magnetic": null,
  "ordering": null,
  "total_magnetization": 0.0006539,
  "total_magnetization_normalized_vol": null,
  "total_magnetization_normalized_formula_units": null,
  "num_magnetic_sites": null,
  "num_unique_magnetic_sites": null,
  "types_of_magnetic_species": null,
  "bulk_modulus": null,
  "shear_modulus": null,
  "universal_anisotropy": null,
  "homogeneous_poisson": null,
  "e_total": null,
  "e_ionic": null,
  "e_electronic": null,
  "n": null,
  "e_ij_max": null,
  "weighted_surface_energy_EV_PER_ANG2": null,
  "weighted_surface_energy": null,
  "weighted_work_function": null,
  "surface_anisotropy": null,
  "shape_factor": null,
  "has_reconstructed": null,
  "possible_species": null,
  "has_props": null,
  "theoretical": null,
  "database_IDs": null,
  "fields_not_requested": [
    "builder_meta",
    "nsites",
    "elements",
    "nelements",
    "composition",
    "composition_reduced",
    "chemsys",
    "symmetry",
    "property_name",
    "deprecated",
    "deprecation_reasons",
    "last_updated",
    "origins",
    "warnings",
    "task_ids",
    "uncorrected_energy_per_atom",
    "equilibrium_reaction_energy_per_atom",
    "decomposes_to",
    "xas",
    "grain_boundaries",
    "cbm",
    "vbm",
    "is_gap_direct",
    "is_metal",
    "es_source_calc_id",
    "bandstructure",
    "dos",
    "dos_energy_up",
    "dos_energy_down",
    "is_magnetic",
    "ordering",
    "total_magnetization_normalized_vol",
    "total_magnetization_normalized_formula_units",
    "num_magnetic_sites",
    "num_unique_magnetic_sites",
    "types_of_magnetic_species",
    "bulk_modulus",
    "shear_modulus",
    "universal_anisotropy",
    "homogeneous_poisson",
    "e_total",
    "e_ionic",
    "e_electronic",
    "n",
    "e_ij_max",
    "weighted_surface_energy_EV_PER_ANG2",
    "weighted_surface_energy",
    "weighted_work_function",
    "surface_anisotropy",
    "shape_factor",
    "has_reconstructed",
    "possible_species",
    "has_props",
    "theoretical",
    "database_IDs"
  ]
}
