{"builder_meta": null, "nsites": null, "elements": null, "nelements": null, "composition": null, "composition_reduced": null, "formula_pretty": "Yb3Ga8", "formula_anonymous": "A3B8", "chemsys": null, "volume": 210.41800928488908, "density": 8.498517636656619, "density_atomic": 19.128909934989917, "symmetry": null, "property_name": null, "material_id": "mp-1101830", "deprecated": null, "deprecation_reasons": null, "last_updated": null, "origins": null, "warnings": null, "structure": {"@module": "pymatgen.core.structure", "@class": "Structure", "charge": 0.0, "lattice": {"matrix": [[4.038587930498736, -0.0, -6.5247476e-09], [-0.0, 4.180435464212318, 0.0], [2.019294426689502, 2.090217732106159, 12.463265336119537]], "pbc": [true, true, true], "a": 4.038587930498736, "b": 4.180435464212318, "c": 12.797638180062332, "alpha": 80.59985858732168, "beta": 80.92156054221465, "gamma": 90.0, "volume": 210.41800928488902}, "properties": {}, "sites": [{"species": [{"element": "Yb", "occu": 1}], "abc": [0.857979644430876, 0.357979644441833, 0.284040711116333], "properties": {"magmom": 0.0}, "label": "Yb", "xyz": [4.038588061522267, 2.090217732106157, 3.5400747433048356]}, {"species": [{"element": "Yb", "occu": 1}], "abc": [0.142020355569123, 0.6420203555581661, 0.7159592888836671], "properties": {"magmom": 0.0}, "label": "Yb", "xyz": [2.019294295665967, 4.180435464212316, 8.923190586289955]}, {"species": [{"element": "Yb", "occu": 1}], "abc": [0.0, 0.0, 0.0], "properties": {"magmom": 0.0}, "label": "Yb", "xyz": [0.0, 0.0, 0.0]}, {"species": [{"element": "Ga", "occu": 1}], "abc": [0.251585201853323, 0.251585201857203, 0.49682959628560003], "properties": {"magmom": 0.0}, "label": "Ga", "xyz": [2.019294194490826, 2.0902177321061712, 6.192119083703053]}, {"species": [{"element": "Ga", "occu": 1}], "abc": [0.7484147981466761, 0.7484147981427961, 0.503170403714399], "properties": {"magmom": 0.0}, "label": "Ga", "xyz": [4.0385881626974065, 4.180435464212299, 6.2711462458917255]}, {"species": [{"element": "Ga", "occu": 1}], "abc": [0.5942495131548711, 0.094249513153009, 0.8115009736939881], "properties": {"magmom": 0.0}, "label": "Ga", "xyz": [4.038588304965387, 2.0902177321061717, 10.113951951790206]}, {"species": [{"element": "Ga", "occu": 1}], "abc": [0.40575048684512804, 0.9057504868469901, 0.188499026306011], "properties": {"magmom": 0.0}, "label": "Ga", "xyz": [2.0192940522228464, 4.180435464212299, 2.349313377804572]}, {"species": [{"element": "Ga", "occu": 1}], "abc": [0.6894979099002181, 0.189497909894619, 0.621005180210765], "properties": {"magmom": -0.0}, "label": "Ga", "xyz": [4.038590236372033, 2.0902198223238972, 7.739752331572695]}, {"species": [{"element": "Ga", "occu": 1}], "abc": [0.310502090099781, 0.8105020901053801, 0.37899481978923405], "properties": {"magmom": -0.0}, "label": "Ga", "xyz": [2.0192921208161994, 4.180433373994574, 4.723512998022084]}, {"species": [{"element": "Ga", "occu": 1}], "abc": [0.45224124070563204, 0.45224124070583804, 0.09551751858833701], "properties": {"magmom": -0.0}, "label": "Ga", "xyz": [2.019294009324179, 2.0902177321061863, 1.1904601754634143]}, {"species": [{"element": "Ga", "occu": 1}], "abc": [0.547758759294367, 0.5477587592941611, 0.9044824814116621], "properties": {"magmom": -0.0}, "label": "Ga", "xyz": [4.038588347864053, 4.180435464212285, 11.272805154131365]}]}, "task_ids": null, "uncorrected_energy_per_atom": null, "energy_per_atom": -18.812735608181818, "formation_energy_per_atom": -0.5281588850000001, "energy_above_hull": 0.039662442272728006, "is_stable": false, "equilibrium_reaction_energy_per_atom": null, "decomposes_to": null, "xas": null, "grain_boundaries": null, "band_gap": 0.0, "cbm": null, "vbm": null, "efermi": 5.4590741, "is_gap_direct": null, "is_metal": null, "es_source_calc_id": null, "bandstructure": null, "dos": null, "dos_energy_up": null, "dos_energy_down": null, "is_magnetic": null, "ordering": null, "total_magnetization": 2e-07, "total_magnetization_normalized_vol": null, "total_magnetization_normalized_formula_units": null, "num_magnetic_sites": null, "num_unique_magnetic_sites": null, "types_of_magnetic_species": null, "bulk_modulus": null, "shear_modulus": null, "universal_anisotropy": null, "homogeneous_poisson": null, "e_total": null, "e_ionic": null, "e_electronic": null, "n": null, "e_ij_max": null, "weighted_surface_energy_EV_PER_ANG2": null, "weighted_surface_energy": null, "weighted_work_function": null, "surface_anisotropy": null, "shape_factor": null, "has_reconstructed": null, "possible_species": null, "has_props": null, "theoretical": null, "database_IDs": null, "fields_not_requested": ["builder_meta", "nsites", "elements", "nelements", "composition", "composition_reduced", "chemsys", "symmetry", "property_name", "deprecated", "deprecation_reasons", "last_updated", "origins", "warnings", "task_ids", "uncorrected_energy_per_atom", "equilibrium_reaction_energy_per_atom", "decomposes_to", "xas", "grain_boundaries", "cbm", "vbm", "is_gap_direct", "is_metal", "es_source_calc_id", "bandstructure", "dos", "dos_energy_up", "dos_energy_down", "is_magnetic", "ordering", "total_magnetization_normalized_vol", "total_magnetization_normalized_formula_units", "num_magnetic_sites", "num_unique_magnetic_sites", "types_of_magnetic_species", "bulk_modulus", "shear_modulus", "universal_anisotropy", "homogeneous_poisson", "e_total", "e_ionic", "e_electronic", "n", "e_ij_max", "weighted_surface_energy_EV_PER_ANG2", "weighted_surface_energy", "weighted_work_function", "surface_anisotropy", "shape_factor", "has_reconstructed", "possible_species", "has_props", "theoretical", "database_IDs"]}