{"builder_meta": null, "nsites": null, "elements": null, "nelements": null, "composition": null, "composition_reduced": null, "formula_pretty": "Yb3Ge5", "formula_anonymous": "A3B5", "chemsys": null, "volume": 162.59474994750184, "density": 9.01091105165184, "density_atomic": 20.32434374343773, "symmetry": null, "property_name": null, "material_id": "mp-767", "deprecated": null, "deprecation_reasons": null, "last_updated": null, "origins": null, "warnings": null, "structure": {"@module": "pymatgen.core.structure", "@class": "Structure", "charge": 0.0, "lattice": {"matrix": [[3.405318284913808, -5.898183857836641, -0.0], [3.405318284913808, 5.898183857836641, -0.0], [-0.0, 0.0, 4.04762720488237]], "pbc": [true, true, true], "a": 6.810636199534743, "b": 6.810636199534743, "c": 4.04762720488237, "alpha": 90.0, "beta": 90.0, "gamma": 119.99999640292347, "volume": 162.5947499475018}, "properties": {}, "sites": [{"species": [{"element": "Yb", "occu": 1}], "abc": [0.9999999999993671, 0.641844591386686, 0.5], "properties": {"magmom": -0.0}, "label": "Yb", "xyz": [5.5910034080337665, -2.1124664496762016, 2.023813602441185]}, {"species": [{"element": "Yb", "occu": 1}], "abc": [0.358155408613939, 0.358155408613939, 0.5], "properties": {"magmom": -0.0}, "label": "Yb", "xyz": [2.439266323587646, 0.0, 2.023813602441185]}, {"species": [{"element": "Yb", "occu": 1}], "abc": [0.641844591386686, 0.9999999999993671, 0.5], "properties": {"magmom": -0.0}, "label": "Yb", "xyz": [5.5910034080337665, 2.1124664496762016, 2.023813602441185]}, {"species": [{"element": "Ge", "occu": 1}], "abc": [0.666666999999996, 0.33333300000000304, 0.0], "properties": {"magmom": 0.0}, "label": "Ge", "xyz": [3.405318284913805, -1.9660652180680773, 0.0]}, {"species": [{"element": "Ge", "occu": 1}], "abc": [0.33333300000000304, 0.666666999999996, 0.0], "properties": {"magmom": 0.0}, "label": "Ge", "xyz": [3.405318284913805, 1.9660652180680773, 0.0]}, {"species": [{"element": "Ge", "occu": 1}], "abc": [6.3949e-12, 0.24929810885095002, 0.0], "properties": {"magmom": 0.0}, "label": "Ge", "xyz": [0.8489394084863496, 1.470406081376157, 0.0]}, {"species": [{"element": "Ge", "occu": 1}], "abc": [0.24929810885095002, 6.3949e-12, 0.0], "properties": {"magmom": 0.0}, "label": "Ge", "xyz": [0.8489394084863496, -1.470406081376157, 0.0]}, {"species": [{"element": "Ge", "occu": 1}], "abc": [0.7507018911426471, 0.7507018911426471, 0.0], "properties": {"magmom": 0.0}, "label": "Ge", "xyz": [5.112757752854862, 0.0, 0.0]}]}, "task_ids": null, "uncorrected_energy_per_atom": null, "energy_per_atom": -23.0545261725, "formation_energy_per_atom": -0.686023140625003, "energy_above_hull": 0.0, "is_stable": true, "equilibrium_reaction_energy_per_atom": null, "decomposes_to": null, "xas": null, "grain_boundaries": null, "band_gap": 0.0, "cbm": null, "vbm": null, "efermi": 4.09699066, "is_gap_direct": null, "is_metal": null, "es_source_calc_id": null, "bandstructure": null, "dos": null, "dos_energy_up": null, "dos_energy_down": null, "is_magnetic": null, "ordering": null, "total_magnetization": 0.0, "total_magnetization_normalized_vol": null, "total_magnetization_normalized_formula_units": null, "num_magnetic_sites": null, "num_unique_magnetic_sites": null, "types_of_magnetic_species": null, "bulk_modulus": null, "shear_modulus": null, "universal_anisotropy": null, "homogeneous_poisson": null, "e_total": null, "e_ionic": null, "e_electronic": null, "n": null, "e_ij_max": null, "weighted_surface_energy_EV_PER_ANG2": null, "weighted_surface_energy": null, "weighted_work_function": null, "surface_anisotropy": null, "shape_factor": null, "has_reconstructed": null, "possible_species": null, "has_props": null, "theoretical": null, "database_IDs": null, "fields_not_requested": ["builder_meta", "nsites", "elements", "nelements", "composition", "composition_reduced", "chemsys", "symmetry", "property_name", "deprecated", "deprecation_reasons", "last_updated", "origins", "warnings", "task_ids", "uncorrected_energy_per_atom", "equilibrium_reaction_energy_per_atom", "decomposes_to", "xas", "grain_boundaries", "cbm", "vbm", "is_gap_direct", "is_metal", "es_source_calc_id", "bandstructure", "dos", "dos_energy_up", "dos_energy_down", "is_magnetic", "ordering", "total_magnetization_normalized_vol", "total_magnetization_normalized_formula_units", "num_magnetic_sites", "num_unique_magnetic_sites", "types_of_magnetic_species", "bulk_modulus", "shear_modulus", "universal_anisotropy", "homogeneous_poisson", "e_total", "e_ionic", "e_electronic", "n", "e_ij_max", "weighted_surface_energy_EV_PER_ANG2", "weighted_surface_energy", "weighted_work_function", "surface_anisotropy", "shape_factor", "has_reconstructed", "possible_species", "has_props", "theoretical", "database_IDs"]}