{"builder_meta": null, "nsites": null, "elements": null, "nelements": null, "composition": null, "composition_reduced": null, "formula_pretty": "Yb3H", "formula_anonymous": "AB3", "chemsys": null, "volume": 200.78922997235395, "density": 8.602978995627403, "density_atomic": 25.098653746544244, "symmetry": null, "property_name": null, "material_id": "mp-1187975", "deprecated": null, "deprecation_reasons": null, "last_updated": null, "origins": null, "warnings": null, "structure": {"@module": "pymatgen.core.structure", "@class": "Structure", "charge": 0.0, "lattice": {"matrix": [[3.282522753097368, -5.68549592152023, -0.0], [3.282522753097368, 5.68549592152023, -0.0], [0.0, -0.0, 5.379405975926354]], "pbc": [true, true, true], "a": 6.565045277698022, "b": 6.565045277698022, "c": 5.379405975926354, "alpha": 90.0, "beta": 90.0, "gamma": 119.99999769731656, "volume": 200.78922997235395}, "properties": {}, "sites": [{"species": [{"element": "Yb", "occu": 1}], "abc": [0.169177948568268, 0.338355897145035, 0.25], "properties": {"magmom": 0.637}, "label": "Yb", "xyz": [1.6659913965209263, 0.961860536644368, 1.3448514939815885]}, {"species": [{"element": "Yb", "occu": 1}], "abc": [0.661644102854964, 0.830822051431731, 0.25], "properties": {"magmom": 0.637}, "label": "Yb", "xyz": [4.899054109673804, 0.9618605366443682, 1.3448514939815885]}, {"species": [{"element": "Yb", "occu": 1}], "abc": [0.169177948576773, 0.8308220514232261, 0.25], "properties": {"magmom": 0.637}, "label": "Yb", "xyz": [3.282522753097365, 3.76177484823142, 1.3448514939815885]}, {"species": [{"element": "Yb", "occu": 1}], "abc": [0.830822051431731, 0.661644102854964, 0.75], "properties": {"magmom": 0.637}, "label": "Yb", "xyz": [4.899054109673804, -0.9618605366443682, 4.034554481944766]}, {"species": [{"element": "Yb", "occu": 1}], "abc": [0.338355897145035, 0.169177948568268, 0.75], "properties": {"magmom": 0.637}, "label": "Yb", "xyz": [1.6659913965209263, -0.961860536644368, 4.034554481944766]}, {"species": [{"element": "Yb", "occu": 1}], "abc": [0.8308220514232261, 0.169177948576773, 0.75], "properties": {"magmom": 0.637}, "label": "Yb", "xyz": [3.282522753097365, -3.76177484823142, 4.034554481944766]}, {"species": [{"element": "H", "occu": 1}], "abc": [0.33333300000000304, 0.666666999999996, 0.75], "properties": {"magmom": -0.011}, "label": "H", "xyz": [3.282522753097365, 1.8951690975039845, 4.034554481944766]}, {"species": [{"element": "H", "occu": 1}], "abc": [0.666666999999996, 0.33333300000000304, 0.25], "properties": {"magmom": -0.011}, "label": "H", "xyz": [3.282522753097365, -1.8951690975039845, 1.3448514939815885]}]}, "task_ids": null, "uncorrected_energy_per_atom": null, "energy_per_atom": -27.511525715, "formation_energy_per_atom": 0.749286474062497, "energy_above_hull": 1.049185963124998, "is_stable": false, "equilibrium_reaction_energy_per_atom": null, "decomposes_to": null, "xas": null, "grain_boundaries": null, "band_gap": 0.0, "cbm": null, "vbm": null, "efermi": 1.10042738, "is_gap_direct": null, "is_metal": null, "es_source_calc_id": null, "bandstructure": null, "dos": null, "dos_energy_up": null, "dos_energy_down": null, "is_magnetic": null, "ordering": null, "total_magnetization": 3.4763839, "total_magnetization_normalized_vol": null, "total_magnetization_normalized_formula_units": null, "num_magnetic_sites": null, "num_unique_magnetic_sites": null, "types_of_magnetic_species": null, "bulk_modulus": null, "shear_modulus": null, "universal_anisotropy": null, "homogeneous_poisson": null, "e_total": null, "e_ionic": null, "e_electronic": null, "n": null, "e_ij_max": null, "weighted_surface_energy_EV_PER_ANG2": null, "weighted_surface_energy": null, "weighted_work_function": null, "surface_anisotropy": null, "shape_factor": null, "has_reconstructed": null, "possible_species": null, "has_props": null, "theoretical": null, "database_IDs": null, "fields_not_requested": ["builder_meta", "nsites", "elements", "nelements", "composition", "composition_reduced", "chemsys", "symmetry", "property_name", "deprecated", "deprecation_reasons", "last_updated", "origins", "warnings", "task_ids", "uncorrected_energy_per_atom", "equilibrium_reaction_energy_per_atom", "decomposes_to", "xas", "grain_boundaries", "cbm", "vbm", "is_gap_direct", "is_metal", "es_source_calc_id", "bandstructure", "dos", "dos_energy_up", "dos_energy_down", "is_magnetic", "ordering", "total_magnetization_normalized_vol", "total_magnetization_normalized_formula_units", "num_magnetic_sites", "num_unique_magnetic_sites", "types_of_magnetic_species", "bulk_modulus", "shear_modulus", "universal_anisotropy", "homogeneous_poisson", "e_total", "e_ionic", "e_electronic", "n", "e_ij_max", "weighted_surface_energy_EV_PER_ANG2", "weighted_surface_energy", "weighted_work_function", "surface_anisotropy", "shape_factor", "has_reconstructed", "possible_species", "has_props", "theoretical", "database_IDs"]}