{"builder_meta": null, "nsites": null, "elements": null, "nelements": null, "composition": null, "composition_reduced": null, "formula_pretty": "Yb3Ho", "formula_anonymous": "AB3", "chemsys": null, "volume": 240.7296975466806, "density": 9.437076450943218, "density_atomic": 30.091212193335075, "symmetry": null, "property_name": null, "material_id": "mp-1187990", "deprecated": null, "deprecation_reasons": null, "last_updated": null, "origins": null, "warnings": null, "structure": {"@module": "pymatgen.core.structure", "@class": "Structure", "charge": 0.0, "lattice": {"matrix": [[3.55695027850737, -6.160817780116774, -0.0], [3.55695027850737, 6.160817780116774, -0.0], [-0.0, 0.0, 5.492670114352816]], "pbc": [true, true, true], "a": 7.113899844921675, "b": 7.113899844921675, "c": 5.492670114352816, "alpha": 90.0, "beta": 90.0, "gamma": 119.99999337751447, "volume": 240.7296975466805}, "properties": {}, "sites": [{"species": [{"element": "Yb", "occu": 1}], "abc": [0.166469694753644, 0.33294038950355503, 0.25], "properties": {"magmom": 0.0}, "label": "Yb", "xyz": [1.7763768382880334, 1.025595616083644, 1.373167528588204]}, {"species": [{"element": "Yb", "occu": 1}], "abc": [0.667059610496444, 0.8335303052463551, 0.25], "properties": {"magmom": 0.0}, "label": "Yb", "xyz": [5.3375237187267, 1.0255956160836437, 1.373167528588204]}, {"species": [{"element": "Yb", "occu": 1}], "abc": [0.166469694749906, 0.8335303052500931, 0.25], "properties": {"magmom": 0.0}, "label": "Yb", "xyz": [3.556950278507367, 4.109638869585102, 1.373167528588204]}, {"species": [{"element": "Yb", "occu": 1}], "abc": [0.8335303052463551, 0.667059610496444, 0.75], "properties": {"magmom": 0.0}, "label": "Yb", "xyz": [5.3375237187267, -1.0255956160836437, 4.119502585764612]}, {"species": [{"element": "Yb", "occu": 1}], "abc": [0.33294038950355503, 0.166469694753644, 0.75], "properties": {"magmom": 0.0}, "label": "Yb", "xyz": [1.7763768382880334, -1.025595616083644, 4.119502585764612]}, {"species": [{"element": "Yb", "occu": 1}], "abc": [0.8335303052500931, 0.166469694749906, 0.75], "properties": {"magmom": 0.0}, "label": "Yb", "xyz": [3.556950278507367, -4.109638869585102, 4.119502585764612]}, {"species": [{"element": "Ho", "occu": 1}], "abc": [0.33333300000000304, 0.666666999999996, 0.75], "properties": {"magmom": 0.0}, "label": "Ho", "xyz": [3.5569502785073666, 2.0536100339174013, 4.119502585764612]}, {"species": [{"element": "Ho", "occu": 1}], "abc": [0.666666999999996, 0.33333300000000304, 0.25], "properties": {"magmom": 0.0}, "label": "Ho", "xyz": [3.5569502785073666, -2.0536100339174013, 1.373167528588204]}]}, "task_ids": null, "uncorrected_energy_per_atom": null, "energy_per_atom": -35.62822269125, "formation_energy_per_atom": -0.010852623750004, "energy_above_hull": 0.0, "is_stable": true, "equilibrium_reaction_energy_per_atom": null, "decomposes_to": null, "xas": null, "grain_boundaries": null, "band_gap": 0.0, "cbm": null, "vbm": null, "efermi": 1.82549244, "is_gap_direct": null, "is_metal": null, "es_source_calc_id": null, "bandstructure": null, "dos": null, "dos_energy_up": null, "dos_energy_down": null, "is_magnetic": null, "ordering": null, "total_magnetization": 0.001388699999999, "total_magnetization_normalized_vol": null, "total_magnetization_normalized_formula_units": null, "num_magnetic_sites": null, "num_unique_magnetic_sites": null, "types_of_magnetic_species": null, "bulk_modulus": null, "shear_modulus": null, "universal_anisotropy": null, "homogeneous_poisson": null, "e_total": null, "e_ionic": null, "e_electronic": null, "n": null, "e_ij_max": null, "weighted_surface_energy_EV_PER_ANG2": null, "weighted_surface_energy": null, "weighted_work_function": null, "surface_anisotropy": null, "shape_factor": null, "has_reconstructed": null, "possible_species": null, "has_props": null, "theoretical": null, "database_IDs": null, "fields_not_requested": ["builder_meta", "nsites", "elements", "nelements", "composition", "composition_reduced", "chemsys", "symmetry", "property_name", "deprecated", "deprecation_reasons", "last_updated", "origins", "warnings", "task_ids", "uncorrected_energy_per_atom", "equilibrium_reaction_energy_per_atom", "decomposes_to", "xas", "grain_boundaries", "cbm", "vbm", "is_gap_direct", "is_metal", "es_source_calc_id", "bandstructure", "dos", "dos_energy_up", "dos_energy_down", "is_magnetic", "ordering", "total_magnetization_normalized_vol", "total_magnetization_normalized_formula_units", "num_magnetic_sites", "num_unique_magnetic_sites", "types_of_magnetic_species", "bulk_modulus", "shear_modulus", "universal_anisotropy", "homogeneous_poisson", "e_total", "e_ionic", "e_electronic", "n", "e_ij_max", "weighted_surface_energy_EV_PER_ANG2", "weighted_surface_energy", "weighted_work_function", "surface_anisotropy", "shape_factor", "has_reconstructed", "possible_species", "has_props", "theoretical", "database_IDs"]}