{
  "builder_meta": null,
  "nsites": null,
  "elements": null,
  "nelements": null,
  "composition": null,
  "composition_reduced": null,
  "formula_pretty": "Yb3Lu",
  "formula_anonymous": "AB3",
  "chemsys": null,
  "volume": 236.36376824363867,
  "density": 9.752413304996574,
  "density_atomic": 29.545471030454834,
  "symmetry": null,
  "property_name": null,
  "material_id": "mp-1187999",
  "deprecated": null,
  "deprecation_reasons": null,
  "last_updated": null,
  "origins": null,
  "warnings": null,
  "structure": {
    "@module": "pymatgen.core.structure",
    "@class": "Structure",
    "charge": 0.0,
    "lattice": {
      "matrix": [
        [3.53474838005523, -6.122364601952058, -0.0],
        [3.53474838005523, 6.122364601952058, 0.0],
        [0.0, 0.0, 5.4610130707388045]
      ],
      "pbc": [true, true, true],
      "a": 7.069497466548712,
      "b": 7.069497466548712,
      "c": 5.4610130707388045,
      "alpha": 90.0,
      "beta": 90.0,
      "gamma": 120.00000661115986,
      "volume": 236.36376824363867
    },
    "properties": {},
    "sites": [
      {
        "species": [{ "element": "Yb", "occu": 1 }],
        "abc": [0.8329135558245391, 0.16708644417546, 0.75],
        "properties": { "magmom": -0.001 },
        "label": "Yb",
        "xyz": [3.534748380055227, -4.076436339380303, 4.095759803054103]
      },
      {
        "species": [{ "element": "Yb", "occu": 1 }],
        "abc": [0.33417288834879605, 0.167086444173335, 0.75],
        "properties": { "magmom": -0.001 },
        "label": "Yb",
        "xyz": [1.7718256136201687, -1.0229641312858813, 4.095759803054103]
      },
      {
        "species": [{ "element": "Yb", "occu": 1 }],
        "abc": [0.832913555826664, 0.665827111651204, 0.75],
        "properties": { "magmom": -0.001 },
        "label": "Yb",
        "xyz": [5.297671146490288, -1.0229641312858755, 4.095759803054103]
      },
      {
        "species": [{ "element": "Yb", "occu": 1 }],
        "abc": [0.16708644417546, 0.8329135558245391, 0.25],
        "properties": { "magmom": -0.001 },
        "label": "Yb",
        "xyz": [3.534748380055227, 4.076436339380303, 1.3652532676847011]
      },
      {
        "species": [{ "element": "Yb", "occu": 1 }],
        "abc": [0.665827111651204, 0.832913555826664, 0.25],
        "properties": { "magmom": -0.001 },
        "label": "Yb",
        "xyz": [5.297671146490288, 1.0229641312858755, 1.3652532676847011]
      },
      {
        "species": [{ "element": "Yb", "occu": 1 }],
        "abc": [0.167086444173335, 0.33417288834879605, 0.25],
        "properties": { "magmom": -0.001 },
        "label": "Yb",
        "xyz": [1.7718256136201687, 1.0229641312858813, 1.3652532676847011]
      },
      {
        "species": [{ "element": "Lu", "occu": 1 }],
        "abc": [0.666666999999996, 0.33333300000000304, 0.25],
        "properties": { "magmom": -0.001 },
        "label": "Lu",
        "xyz": [3.534748380055227, -2.0407922822270446, 1.3652532676847011]
      },
      {
        "species": [{ "element": "Lu", "occu": 1 }],
        "abc": [0.33333300000000304, 0.666666999999996, 0.75],
        "properties": { "magmom": -0.001 },
        "label": "Lu",
        "xyz": [3.534748380055227, 2.0407922822270446, 4.095759803054103]
      }
    ]
  },
  "task_ids": null,
  "uncorrected_energy_per_atom": null,
  "energy_per_atom": -36.92882417875,
  "formation_energy_per_atom": -0.011820044166668,
  "energy_above_hull": 0.0,
  "is_stable": true,
  "equilibrium_reaction_energy_per_atom": null,
  "decomposes_to": null,
  "xas": null,
  "grain_boundaries": null,
  "band_gap": 0.0,
  "cbm": null,
  "vbm": null,
  "efermi": 1.79247388,
  "is_gap_direct": null,
  "is_metal": null,
  "es_source_calc_id": null,
  "bandstructure": null,
  "dos": null,
  "dos_energy_up": null,
  "dos_energy_down": null,
  "is_magnetic": null,
  "ordering": null,
  "total_magnetization": 0.004197699999999,
  "total_magnetization_normalized_vol": null,
  "total_magnetization_normalized_formula_units": null,
  "num_magnetic_sites": null,
  "num_unique_magnetic_sites": null,
  "types_of_magnetic_species": null,
  "bulk_modulus": null,
  "shear_modulus": null,
  "universal_anisotropy": null,
  "homogeneous_poisson": null,
  "e_total": null,
  "e_ionic": null,
  "e_electronic": null,
  "n": null,
  "e_ij_max": null,
  "weighted_surface_energy_EV_PER_ANG2": null,
  "weighted_surface_energy": null,
  "weighted_work_function": null,
  "surface_anisotropy": null,
  "shape_factor": null,
  "has_reconstructed": null,
  "possible_species": null,
  "has_props": null,
  "theoretical": null,
  "database_IDs": null,
  "fields_not_requested": [
    "builder_meta",
    "nsites",
    "elements",
    "nelements",
    "composition",
    "composition_reduced",
    "chemsys",
    "symmetry",
    "property_name",
    "deprecated",
    "deprecation_reasons",
    "last_updated",
    "origins",
    "warnings",
    "task_ids",
    "uncorrected_energy_per_atom",
    "equilibrium_reaction_energy_per_atom",
    "decomposes_to",
    "xas",
    "grain_boundaries",
    "cbm",
    "vbm",
    "is_gap_direct",
    "is_metal",
    "es_source_calc_id",
    "bandstructure",
    "dos",
    "dos_energy_up",
    "dos_energy_down",
    "is_magnetic",
    "ordering",
    "total_magnetization_normalized_vol",
    "total_magnetization_normalized_formula_units",
    "num_magnetic_sites",
    "num_unique_magnetic_sites",
    "types_of_magnetic_species",
    "bulk_modulus",
    "shear_modulus",
    "universal_anisotropy",
    "homogeneous_poisson",
    "e_total",
    "e_ionic",
    "e_electronic",
    "n",
    "e_ij_max",
    "weighted_surface_energy_EV_PER_ANG2",
    "weighted_surface_energy",
    "weighted_work_function",
    "surface_anisotropy",
    "shape_factor",
    "has_reconstructed",
    "possible_species",
    "has_props",
    "theoretical",
    "database_IDs"
  ]
}
