{
  "builder_meta": null,
  "nsites": null,
  "elements": null,
  "nelements": null,
  "composition": null,
  "composition_reduced": null,
  "formula_pretty": "Yb3Mg",
  "formula_anonymous": "AB3",
  "chemsys": null,
  "volume": 223.9844091332472,
  "density": 8.057511196953753,
  "density_atomic": 27.9980511416559,
  "symmetry": null,
  "property_name": null,
  "material_id": "mp-1187989",
  "deprecated": null,
  "deprecation_reasons": null,
  "last_updated": null,
  "origins": null,
  "warnings": null,
  "structure": {
    "@module": "pymatgen.core.structure",
    "@class": "Structure",
    "charge": 0.0,
    "lattice": {
      "matrix": [
        [3.430757165246845, -5.942246036234002, -0.0],
        [3.430757165246845, 5.942246036234002, 0.0],
        [0.0, -0.0, 5.493475413594427]
      ],
      "pbc": [true, true, true],
      "a": 6.8615146055394565,
      "b": 6.8615146055394565,
      "c": 5.493475413594427,
      "alpha": 90.0,
      "beta": 90.0,
      "gamma": 120.00000265202107,
      "volume": 223.9844091332472
    },
    "properties": {},
    "sites": [
      {
        "species": [{ "element": "Yb", "occu": 1 }],
        "abc": [0.16905234574861702, 0.338104691496653, 0.25],
        "properties": { "magmom": 0.005 },
        "label": "Yb",
        "xyz": [1.739932639434571, 1.0045506314373271, 1.3733688533986068]
      },
      {
        "species": [{ "element": "Yb", "occu": 1 }],
        "abc": [0.16905234574802103, 0.830947654251978, 0.25],
        "properties": { "magmom": 0.005 },
        "label": "Yb",
        "xyz": [3.4307571652468414, 3.9331447733595204, 1.3733688533986068]
      },
      {
        "species": [{ "element": "Yb", "occu": 1 }],
        "abc": [0.6618953085033461, 0.8309476542513821, 0.25],
        "properties": { "magmom": 0.005 },
        "label": "Yb",
        "xyz": [5.121581691059113, 1.004550631437327, 1.3733688533986068]
      },
      {
        "species": [{ "element": "Yb", "occu": 1 }],
        "abc": [0.338104691496653, 0.16905234574861702, 0.75],
        "properties": { "magmom": 0.005 },
        "label": "Yb",
        "xyz": [1.739932639434571, -1.0045506314373271, 4.12010656019582]
      },
      {
        "species": [{ "element": "Yb", "occu": 1 }],
        "abc": [0.830947654251978, 0.16905234574802103, 0.75],
        "properties": { "magmom": 0.005 },
        "label": "Yb",
        "xyz": [3.4307571652468414, -3.9331447733595204, 4.12010656019582]
      },
      {
        "species": [{ "element": "Yb", "occu": 1 }],
        "abc": [0.8309476542513821, 0.6618953085033461, 0.75],
        "properties": { "magmom": 0.005 },
        "label": "Yb",
        "xyz": [5.121581691059113, -1.004550631437327, 4.12010656019582]
      },
      {
        "species": [{ "element": "Mg", "occu": 1 }],
        "abc": [0.666666999999996, 0.33333300000000304, 0.25],
        "properties": { "magmom": 0.0 },
        "label": "Mg",
        "xyz": [3.430757165246842, -1.980752640241983, 1.3733688533986068]
      },
      {
        "species": [{ "element": "Mg", "occu": 1 }],
        "abc": [0.33333300000000304, 0.666666999999996, 0.75],
        "properties": { "magmom": 0.0 },
        "label": "Mg",
        "xyz": [3.430757165246842, 1.980752640241983, 4.12010656019582]
      }
    ]
  },
  "task_ids": null,
  "uncorrected_energy_per_atom": null,
  "energy_per_atom": -28.4448851975,
  "formation_energy_per_atom": -0.005525212500003001,
  "energy_above_hull": 0.040936901249999005,
  "is_stable": false,
  "equilibrium_reaction_energy_per_atom": null,
  "decomposes_to": null,
  "xas": null,
  "grain_boundaries": null,
  "band_gap": 0.0,
  "cbm": null,
  "vbm": null,
  "efermi": 2.27092114,
  "is_gap_direct": null,
  "is_metal": null,
  "es_source_calc_id": null,
  "bandstructure": null,
  "dos": null,
  "dos_energy_up": null,
  "dos_energy_down": null,
  "is_magnetic": null,
  "ordering": null,
  "total_magnetization": 0.0321493,
  "total_magnetization_normalized_vol": null,
  "total_magnetization_normalized_formula_units": null,
  "num_magnetic_sites": null,
  "num_unique_magnetic_sites": null,
  "types_of_magnetic_species": null,
  "bulk_modulus": null,
  "shear_modulus": null,
  "universal_anisotropy": null,
  "homogeneous_poisson": null,
  "e_total": null,
  "e_ionic": null,
  "e_electronic": null,
  "n": null,
  "e_ij_max": null,
  "weighted_surface_energy_EV_PER_ANG2": null,
  "weighted_surface_energy": null,
  "weighted_work_function": null,
  "surface_anisotropy": null,
  "shape_factor": null,
  "has_reconstructed": null,
  "possible_species": null,
  "has_props": null,
  "theoretical": null,
  "database_IDs": null,
  "fields_not_requested": [
    "builder_meta",
    "nsites",
    "elements",
    "nelements",
    "composition",
    "composition_reduced",
    "chemsys",
    "symmetry",
    "property_name",
    "deprecated",
    "deprecation_reasons",
    "last_updated",
    "origins",
    "warnings",
    "task_ids",
    "uncorrected_energy_per_atom",
    "equilibrium_reaction_energy_per_atom",
    "decomposes_to",
    "xas",
    "grain_boundaries",
    "cbm",
    "vbm",
    "is_gap_direct",
    "is_metal",
    "es_source_calc_id",
    "bandstructure",
    "dos",
    "dos_energy_up",
    "dos_energy_down",
    "is_magnetic",
    "ordering",
    "total_magnetization_normalized_vol",
    "total_magnetization_normalized_formula_units",
    "num_magnetic_sites",
    "num_unique_magnetic_sites",
    "types_of_magnetic_species",
    "bulk_modulus",
    "shear_modulus",
    "universal_anisotropy",
    "homogeneous_poisson",
    "e_total",
    "e_ionic",
    "e_electronic",
    "n",
    "e_ij_max",
    "weighted_surface_energy_EV_PER_ANG2",
    "weighted_surface_energy",
    "weighted_work_function",
    "surface_anisotropy",
    "shape_factor",
    "has_reconstructed",
    "possible_species",
    "has_props",
    "theoretical",
    "database_IDs"
  ]
}
