{
  "builder_meta": null,
  "nsites": null,
  "elements": null,
  "nelements": null,
  "composition": null,
  "composition_reduced": null,
  "formula_pretty": "Yb3Ni",
  "formula_anonymous": "AB3",
  "chemsys": null,
  "volume": 385.3175072370693,
  "density": 9.96042698173737,
  "density_atomic": 24.082344202316833,
  "symmetry": null,
  "property_name": null,
  "material_id": "mp-1189509",
  "deprecated": null,
  "deprecation_reasons": null,
  "last_updated": null,
  "origins": null,
  "warnings": null,
  "structure": {
    "@module": "pymatgen.core.structure",
    "@class": "Structure",
    "charge": 0.0,
    "lattice": {
      "matrix": [
        [6.16006094914498, 0.0, 0.0],
        [0.0, 6.673230197921334, 0.0],
        [0.0, 0.0, 9.373410271670792]
      ],
      "pbc": [true, true, true],
      "a": 6.16006094914498,
      "b": 6.673230197921334,
      "c": 9.373410271670792,
      "alpha": 90.0,
      "beta": 90.0,
      "gamma": 90.0,
      "volume": 385.3175072370693
    },
    "properties": {},
    "sites": [
      {
        "species": [{ "element": "Yb", "occu": 1 }],
        "abc": [0.317587190338535, 0.677995942687971, 0.06683987239451701],
        "properties": { "magmom": 0.074 },
        "label": "Yb",
        "xyz": [1.9563564491530834, 4.5244229988135105, 0.6265175464599307]
      },
      {
        "species": [{ "element": "Yb", "occu": 1 }],
        "abc": [0.182412809661464, 0.177995942687971, 0.43316012760548206],
        "properties": { "magmom": 0.074 },
        "label": "Yb",
        "xyz": [1.1236740254194006, 1.1878078998528432, 4.060187589375457]
      },
      {
        "species": [{ "element": "Yb", "occu": 1 }],
        "abc": [0.682412809661464, 0.322004057312028, 0.566839872394517],
        "properties": { "magmom": 0.074 },
        "label": "Yb",
        "xyz": [4.203704499991891, 2.1488071991078175, 5.3132226822953275]
      },
      {
        "species": [{ "element": "Yb", "occu": 1 }],
        "abc": [0.8175871903385351, 0.8220040573120281, 0.9331601276054821],
        "properties": { "magmom": 0.074 },
        "label": "Yb",
        "xyz": [5.036386923725574, 5.485422298068484, 8.746892725210852]
      },
      {
        "species": [{ "element": "Yb", "occu": 1 }],
        "abc": [0.682412809661464, 0.322004057312028, 0.9331601276054821],
        "properties": { "magmom": 0.074 },
        "label": "Yb",
        "xyz": [4.203704499991891, 2.1488071991078175, 8.746892725210852]
      },
      {
        "species": [{ "element": "Yb", "occu": 1 }],
        "abc": [0.8175871903385351, 0.8220040573120281, 0.566839872394517],
        "properties": { "magmom": 0.074 },
        "label": "Yb",
        "xyz": [5.036386923725574, 5.485422298068484, 5.3132226822953275]
      },
      {
        "species": [{ "element": "Yb", "occu": 1 }],
        "abc": [0.317587190338535, 0.677995942687971, 0.43316012760548206],
        "properties": { "magmom": 0.074 },
        "label": "Yb",
        "xyz": [1.9563564491530834, 4.5244229988135105, 4.060187589375457]
      },
      {
        "species": [{ "element": "Yb", "occu": 1 }],
        "abc": [0.182412809661464, 0.177995942687971, 0.06683987239451701],
        "properties": { "magmom": 0.074 },
        "label": "Yb",
        "xyz": [1.1236740254194006, 1.1878078998528432, 0.6265175464599307]
      },
      {
        "species": [{ "element": "Yb", "occu": 1 }],
        "abc": [0.8620407096182061, 0.535192858275245, 0.25],
        "properties": { "magmom": 0.10200000000000001 },
        "label": "Yb",
        "xyz": [5.310223311892339, 3.5714651435541973, 2.343352567917698]
      },
      {
        "species": [{ "element": "Yb", "occu": 1 }],
        "abc": [0.637959290381793, 0.035192858275245, 0.25],
        "properties": { "magmom": 0.10200000000000001 },
        "label": "Yb",
        "xyz": [3.9298681118251255, 0.23485004459353065, 2.343352567917698]
      },
      {
        "species": [{ "element": "Yb", "occu": 1 }],
        "abc": [0.137959290381793, 0.464807141724755, 0.75],
        "properties": { "magmom": 0.10200000000000001 },
        "label": "Yb",
        "xyz": [0.8498376372526357, 3.1017650543671365, 7.030057703753094]
      },
      {
        "species": [{ "element": "Yb", "occu": 1 }],
        "abc": [0.362040709618206, 0.9648071417247551, 0.75],
        "properties": { "magmom": 0.10200000000000001 },
        "label": "Yb",
        "xyz": [2.2301928373198483, 6.438380153327804, 7.030057703753094]
      },
      {
        "species": [{ "element": "Ni", "occu": 1 }],
        "abc": [0.048820226313338, 0.893891257974694, 0.25],
        "properties": { "magmom": 0.063 },
        "label": "Ni",
        "xyz": [0.3007355696412136, 5.9651421363746175, 2.343352567917698]
      },
      {
        "species": [{ "element": "Ni", "occu": 1 }],
        "abc": [0.451179773686661, 0.39389125797469404, 0.25],
        "properties": { "magmom": 0.063 },
        "label": "Ni",
        "xyz": [2.7792949049312705, 2.6285270374139507, 2.343352567917698]
      },
      {
        "species": [{ "element": "Ni", "occu": 1 }],
        "abc": [0.9511797736866611, 0.10610874202530601, 0.75],
        "properties": { "magmom": 0.063 },
        "label": "Ni",
        "xyz": [5.859325379503761, 0.7080880615467166, 7.030057703753094]
      },
      {
        "species": [{ "element": "Ni", "occu": 1 }],
        "abc": [0.548820226313338, 0.6061087420253061, 0.75],
        "properties": { "magmom": 0.063 },
        "label": "Ni",
        "xyz": [3.3807660442137037, 4.0447031605073835, 7.030057703753094]
      }
    ]
  },
  "task_ids": null,
  "uncorrected_energy_per_atom": null,
  "energy_per_atom": -30.688225149375,
  "formation_energy_per_atom": -0.29576177062500203,
  "energy_above_hull": 0.0,
  "is_stable": true,
  "equilibrium_reaction_energy_per_atom": null,
  "decomposes_to": null,
  "xas": null,
  "grain_boundaries": null,
  "band_gap": 0.0,
  "cbm": null,
  "vbm": null,
  "efermi": 2.31115539,
  "is_gap_direct": null,
  "is_metal": null,
  "es_source_calc_id": null,
  "bandstructure": null,
  "dos": null,
  "dos_energy_up": null,
  "dos_energy_down": null,
  "is_magnetic": null,
  "ordering": null,
  "total_magnetization": 1.2501739,
  "total_magnetization_normalized_vol": null,
  "total_magnetization_normalized_formula_units": null,
  "num_magnetic_sites": null,
  "num_unique_magnetic_sites": null,
  "types_of_magnetic_species": null,
  "bulk_modulus": null,
  "shear_modulus": null,
  "universal_anisotropy": null,
  "homogeneous_poisson": null,
  "e_total": null,
  "e_ionic": null,
  "e_electronic": null,
  "n": null,
  "e_ij_max": null,
  "weighted_surface_energy_EV_PER_ANG2": null,
  "weighted_surface_energy": null,
  "weighted_work_function": null,
  "surface_anisotropy": null,
  "shape_factor": null,
  "has_reconstructed": null,
  "possible_species": null,
  "has_props": null,
  "theoretical": null,
  "database_IDs": null,
  "fields_not_requested": [
    "builder_meta",
    "nsites",
    "elements",
    "nelements",
    "composition",
    "composition_reduced",
    "chemsys",
    "symmetry",
    "property_name",
    "deprecated",
    "deprecation_reasons",
    "last_updated",
    "origins",
    "warnings",
    "task_ids",
    "uncorrected_energy_per_atom",
    "equilibrium_reaction_energy_per_atom",
    "decomposes_to",
    "xas",
    "grain_boundaries",
    "cbm",
    "vbm",
    "is_gap_direct",
    "is_metal",
    "es_source_calc_id",
    "bandstructure",
    "dos",
    "dos_energy_up",
    "dos_energy_down",
    "is_magnetic",
    "ordering",
    "total_magnetization_normalized_vol",
    "total_magnetization_normalized_formula_units",
    "num_magnetic_sites",
    "num_unique_magnetic_sites",
    "types_of_magnetic_species",
    "bulk_modulus",
    "shear_modulus",
    "universal_anisotropy",
    "homogeneous_poisson",
    "e_total",
    "e_ionic",
    "e_electronic",
    "n",
    "e_ij_max",
    "weighted_surface_energy_EV_PER_ANG2",
    "weighted_surface_energy",
    "weighted_work_function",
    "surface_anisotropy",
    "shape_factor",
    "has_reconstructed",
    "possible_species",
    "has_props",
    "theoretical",
    "database_IDs"
  ]
}
