{"builder_meta": null, "nsites": null, "elements": null, "nelements": null, "composition": null, "composition_reduced": null, "formula_pretty": "Yb3Nb", "formula_anonymous": "AB3", "chemsys": null, "volume": 205.46664538664712, "density": 9.892542041238036, "density_atomic": 25.68333067333089, "symmetry": null, "property_name": null, "material_id": "mp-1187985", "deprecated": null, "deprecation_reasons": null, "last_updated": null, "origins": null, "warnings": null, "structure": {"@module": "pymatgen.core.structure", "@class": "Structure", "charge": 0.0, "lattice": {"matrix": [[3.361660731292284, -5.822566520132666, -0.0], [3.361660731292284, 5.822566520132666, 0.0], [0.0, 0.0, 5.248594183306415]], "pbc": [true, true, true], "a": 6.723320887305796, "b": 6.723320887305796, "c": 5.248594183306415, "alpha": 90.0, "beta": 90.0, "gamma": 119.99999433908654, "volume": 205.4666453866471}, "properties": {}, "sites": [{"species": [{"element": "Yb", "occu": 1}], "abc": [0.8277068680411971, 0.17229313195880203, 0.75], "properties": {"magmom": -0.046}, "label": "Yb", "xyz": [3.361660731292281, -3.8161900765484207, 3.936445637479811]}, {"species": [{"element": "Yb", "occu": 1}], "abc": [0.34458526391411204, 0.172293131955314, 0.75], "properties": {"magmom": -0.046}, "label": "Yb", "xyz": [1.7375698062475975, -1.0031823992255768, 3.936445637479811]}, {"species": [{"element": "Yb", "occu": 1}], "abc": [0.8277068680446861, 0.6554147360858871, 0.75], "properties": {"magmom": -0.046}, "label": "Yb", "xyz": [4.9857516563369675, -1.0031823992255822, 3.936445637479811]}, {"species": [{"element": "Yb", "occu": 1}], "abc": [0.17229313195880203, 0.8277068680411971, 0.25], "properties": {"magmom": -0.046}, "label": "Yb", "xyz": [3.361660731292281, 3.8161900765484207, 1.3121485458266038]}, {"species": [{"element": "Yb", "occu": 1}], "abc": [0.6554147360858871, 0.8277068680446861, 0.25], "properties": {"magmom": -0.046}, "label": "Yb", "xyz": [4.9857516563369675, 1.0031823992255822, 1.3121485458266038]}, {"species": [{"element": "Yb", "occu": 1}], "abc": [0.172293131955314, 0.34458526391411204, 0.25], "properties": {"magmom": -0.046}, "label": "Yb", "xyz": [1.7375698062475975, 1.0031823992255768, 1.3121485458266038]}, {"species": [{"element": "Nb", "occu": 1}], "abc": [0.666666999999996, 0.33333300000000304, 0.25], "properties": {"magmom": 0.335}, "label": "Nb", "xyz": [3.3616607312922806, -1.940859388421861, 1.3121485458266038]}, {"species": [{"element": "Nb", "occu": 1}], "abc": [0.33333300000000304, 0.666666999999996, 0.75], "properties": {"magmom": 0.335}, "label": "Nb", "xyz": [3.3616607312922806, 1.940859388421861, 3.936445637479811]}]}, "task_ids": null, "uncorrected_energy_per_atom": null, "energy_per_atom": -33.43886591, "formation_energy_per_atom": 0.141686841249999, "energy_above_hull": 0.141686841249999, "is_stable": false, "equilibrium_reaction_energy_per_atom": null, "decomposes_to": null, "xas": null, "grain_boundaries": null, "band_gap": 0.0, "cbm": null, "vbm": null, "efermi": 1.92795896, "is_gap_direct": null, "is_metal": null, "es_source_calc_id": null, "bandstructure": null, "dos": null, "dos_energy_up": null, "dos_energy_down": null, "is_magnetic": null, "ordering": null, "total_magnetization": 0.5549392, "total_magnetization_normalized_vol": null, "total_magnetization_normalized_formula_units": null, "num_magnetic_sites": null, "num_unique_magnetic_sites": null, "types_of_magnetic_species": null, "bulk_modulus": null, "shear_modulus": null, "universal_anisotropy": null, "homogeneous_poisson": null, "e_total": null, "e_ionic": null, "e_electronic": null, "n": null, "e_ij_max": null, "weighted_surface_energy_EV_PER_ANG2": null, "weighted_surface_energy": null, "weighted_work_function": null, "surface_anisotropy": null, "shape_factor": null, "has_reconstructed": null, "possible_species": null, "has_props": null, "theoretical": null, "database_IDs": null, "fields_not_requested": ["builder_meta", "nsites", "elements", "nelements", "composition", "composition_reduced", "chemsys", "symmetry", "property_name", "deprecated", "deprecation_reasons", "last_updated", "origins", "warnings", "task_ids", "uncorrected_energy_per_atom", "equilibrium_reaction_energy_per_atom", "decomposes_to", "xas", "grain_boundaries", "cbm", "vbm", "is_gap_direct", "is_metal", "es_source_calc_id", "bandstructure", "dos", "dos_energy_up", "dos_energy_down", "is_magnetic", "ordering", "total_magnetization_normalized_vol", "total_magnetization_normalized_formula_units", "num_magnetic_sites", "num_unique_magnetic_sites", "types_of_magnetic_species", "bulk_modulus", "shear_modulus", "universal_anisotropy", "homogeneous_poisson", "e_total", "e_ionic", "e_electronic", "n", "e_ij_max", "weighted_surface_energy_EV_PER_ANG2", "weighted_surface_energy", "weighted_work_function", "surface_anisotropy", "shape_factor", "has_reconstructed", "possible_species", "has_props", "theoretical", "database_IDs"]}