{
  "builder_meta": null,
  "nsites": null,
  "elements": null,
  "nelements": null,
  "composition": null,
  "composition_reduced": null,
  "formula_pretty": "Yb3N2",
  "formula_anonymous": "A2B3",
  "chemsys": null,
  "volume": 162.56470307494874,
  "density": 11.17753569079277,
  "density_atomic": 16.256470307494872,
  "symmetry": null,
  "property_name": null,
  "material_id": "mp-864675",
  "deprecated": null,
  "deprecation_reasons": null,
  "last_updated": null,
  "origins": null,
  "warnings": null,
  "structure": {
    "@module": "pymatgen.core.structure",
    "@class": "Structure",
    "charge": 0.0,
    "lattice": {
      "matrix": [
        [5.848981288649674, -2.892907528491865, 0.150696842516844],
        [5.848981288649674, 2.892907528491865, 0.150696842516844],
        [4.295412329332106, -0.0, 4.914431639077671]
      ],
      "pbc": [true, true, true],
      "a": 6.52703651144403,
      "b": 6.52703651144403,
      "c": 6.527036495542668,
      "alpha": 52.61891574961205,
      "beta": 52.61891574961205,
      "gamma": 52.61891244948696,
      "volume": 162.56470307494874
    },
    "properties": {},
    "sites": [
      {
        "species": [{ "element": "Yb", "occu": 1 }],
        "abc": [0.925741958405041, 0.24999999995090802, 0.5742580416403621],
        "properties": { "magmom": 0.0 },
        "label": "Yb",
        "xyz": [9.343567786984392, -1.9548589989297986, 2.9993324895709907]
      },
      {
        "species": [{ "element": "Yb", "occu": 1 }],
        "abc": [0.250000000049091, 0.5742580415949591, 0.925741958359637],
        "properties": { "magmom": 0.0 },
        "label": "Yb",
        "xyz": [8.797513284313107, 0.9380485295620696, 4.6737086540792]
      },
      {
        "species": [{ "element": "Yb", "occu": 1 }],
        "abc": [0.574258041545867, 0.9257419584541321, 0.25],
        "properties": { "magmom": 0.0 },
        "label": "Yb",
        "xyz": [9.847325015307533, 1.0168104693677291, 1.4546531735446837]
      },
      {
        "species": [{ "element": "Yb", "occu": 1 }],
        "abc": [0.42574195845413204, 0.074258041545867, 0.75],
        "properties": { "magmom": 0.0 },
        "label": "Yb",
        "xyz": [6.146049891323911, -1.0168104693677291, 3.7611721505666753]
      },
      {
        "species": [{ "element": "Yb", "occu": 1 }],
        "abc": [0.749999999950908, 0.42574195840504103, 0.07425804164036201],
        "properties": { "magmom": 0.0 },
        "label": "Yb",
        "xyz": [7.195861622318339, -0.9380485295620669, 0.5421166700321545]
      },
      {
        "species": [{ "element": "Yb", "occu": 1 }],
        "abc": [0.07425804159495901, 0.7500000000490911, 0.425741958359637],
        "properties": { "magmom": 0.0 },
        "label": "Yb",
        "xyz": [6.649807119647054, 1.9548589989297955, 2.216492834540364]
      },
      {
        "species": [{ "element": "N", "occu": 1 }],
        "abc": [0.8375568520253011, 0.8375568520253011, 0.837556852054902],
        "properties": { "magmom": -0.0 },
        "label": "N",
        "xyz": [13.395360740185833, 0.0, 4.368550239322028]
      },
      {
        "species": [{ "element": "N", "occu": 1 }],
        "abc": [0.662443147974698, 0.662443147974698, 0.6624431479450971],
        "properties": { "magmom": -0.0 },
        "label": "N",
        "xyz": [10.594701619761334, 0.0, 3.4551877468450067]
      },
      {
        "species": [{ "element": "N", "occu": 1 }],
        "abc": [0.33755685202530805, 0.33755685202530805, 0.33755685205490205],
        "properties": { "magmom": -0.0 },
        "label": "N",
        "xyz": [5.398673286870187, 0.0, 1.7606375772663503]
      },
      {
        "species": [{ "element": "N", "occu": 1 }],
        "abc": [0.162443147974691, 0.162443147974691, 0.162443147945097],
        "properties": { "magmom": -0.0 },
        "label": "N",
        "xyz": [2.598014166445525, 0.0, 0.8472750847893246]
      }
    ]
  },
  "task_ids": null,
  "uncorrected_energy_per_atom": null,
  "energy_per_atom": -27.076571471,
  "formation_energy_per_atom": -1.5074439315000001,
  "energy_above_hull": 0.0,
  "is_stable": true,
  "equilibrium_reaction_energy_per_atom": null,
  "decomposes_to": null,
  "xas": null,
  "grain_boundaries": null,
  "band_gap": 0.34180000000000005,
  "cbm": null,
  "vbm": null,
  "efermi": 1.69208176,
  "is_gap_direct": null,
  "is_metal": null,
  "es_source_calc_id": null,
  "bandstructure": null,
  "dos": null,
  "dos_energy_up": null,
  "dos_energy_down": null,
  "is_magnetic": null,
  "ordering": null,
  "total_magnetization": 1.6e-6,
  "total_magnetization_normalized_vol": null,
  "total_magnetization_normalized_formula_units": null,
  "num_magnetic_sites": null,
  "num_unique_magnetic_sites": null,
  "types_of_magnetic_species": null,
  "bulk_modulus": null,
  "shear_modulus": null,
  "universal_anisotropy": null,
  "homogeneous_poisson": null,
  "e_total": null,
  "e_ionic": null,
  "e_electronic": null,
  "n": null,
  "e_ij_max": null,
  "weighted_surface_energy_EV_PER_ANG2": null,
  "weighted_surface_energy": null,
  "weighted_work_function": null,
  "surface_anisotropy": null,
  "shape_factor": null,
  "has_reconstructed": null,
  "possible_species": null,
  "has_props": null,
  "theoretical": null,
  "database_IDs": null,
  "fields_not_requested": [
    "builder_meta",
    "nsites",
    "elements",
    "nelements",
    "composition",
    "composition_reduced",
    "chemsys",
    "symmetry",
    "property_name",
    "deprecated",
    "deprecation_reasons",
    "last_updated",
    "origins",
    "warnings",
    "task_ids",
    "uncorrected_energy_per_atom",
    "equilibrium_reaction_energy_per_atom",
    "decomposes_to",
    "xas",
    "grain_boundaries",
    "cbm",
    "vbm",
    "is_gap_direct",
    "is_metal",
    "es_source_calc_id",
    "bandstructure",
    "dos",
    "dos_energy_up",
    "dos_energy_down",
    "is_magnetic",
    "ordering",
    "total_magnetization_normalized_vol",
    "total_magnetization_normalized_formula_units",
    "num_magnetic_sites",
    "num_unique_magnetic_sites",
    "types_of_magnetic_species",
    "bulk_modulus",
    "shear_modulus",
    "universal_anisotropy",
    "homogeneous_poisson",
    "e_total",
    "e_ionic",
    "e_electronic",
    "n",
    "e_ij_max",
    "weighted_surface_energy_EV_PER_ANG2",
    "weighted_surface_energy",
    "weighted_work_function",
    "surface_anisotropy",
    "shape_factor",
    "has_reconstructed",
    "possible_species",
    "has_props",
    "theoretical",
    "database_IDs"
  ]
}
