{
  "builder_meta": null,
  "nsites": null,
  "elements": null,
  "nelements": null,
  "composition": null,
  "composition_reduced": null,
  "formula_pretty": "Yb3Pd",
  "formula_anonymous": "AB3",
  "chemsys": null,
  "volume": 412.2258529089453,
  "density": 10.079266988142106,
  "density_atomic": 25.76411580680908,
  "symmetry": null,
  "property_name": null,
  "material_id": "mp-1190258",
  "deprecated": null,
  "deprecation_reasons": null,
  "last_updated": null,
  "origins": null,
  "warnings": null,
  "structure": {
    "@module": "pymatgen.core.structure",
    "@class": "Structure",
    "charge": 0.0,
    "lattice": {
      "matrix": [
        [6.314203751968709, 0.0, 0.0],
        [-0.0, 6.87903246955888, 0.0],
        [0.0, 0.0, 9.490503942651694]
      ],
      "pbc": [true, true, true],
      "a": 6.314203751968709,
      "b": 6.87903246955888,
      "c": 9.490503942651694,
      "alpha": 90.0,
      "beta": 90.0,
      "gamma": 90.0,
      "volume": 412.2258529089452
    },
    "properties": {},
    "sites": [
      {
        "species": [{ "element": "Yb", "occu": 1 }],
        "abc": [0.32020280899048703, 0.678444790383089, 0.060294029223825006],
        "properties": { "magmom": -0.193 },
        "label": "Yb",
        "xyz": [2.021825777918653, 4.667043741848338, 0.5722207220670676]
      },
      {
        "species": [{ "element": "Yb", "occu": 1 }],
        "abc": [0.17979719100951203, 0.17844479038308902, 0.439705970776174],
        "properties": { "magmom": -0.193 },
        "label": "Yb",
        "xyz": [1.1352760980656953, 1.2275275070688976, 4.17303124925877]
      },
      {
        "species": [{ "element": "Yb", "occu": 1 }],
        "abc": [0.6797971910095121, 0.32155520961691003, 0.5602940292238251],
        "properties": { "magmom": -0.193 },
        "label": "Yb",
        "xyz": [4.2923779740500505, 2.211988727710536, 5.317472693392915]
      },
      {
        "species": [{ "element": "Yb", "occu": 1 }],
        "abc": [0.820202808990487, 0.8215552096169101, 0.9397059707761741],
        "properties": { "magmom": -0.193 },
        "label": "Yb",
        "xyz": [5.178927653903007, 5.651504962489977, 8.918283220584618]
      },
      {
        "species": [{ "element": "Yb", "occu": 1 }],
        "abc": [0.6797971910095121, 0.32155520961691003, 0.9397059707761741],
        "properties": { "magmom": -0.193 },
        "label": "Yb",
        "xyz": [4.2923779740500505, 2.211988727710536, 8.918283220584618]
      },
      {
        "species": [{ "element": "Yb", "occu": 1 }],
        "abc": [0.820202808990487, 0.8215552096169101, 0.5602940292238251],
        "properties": { "magmom": -0.193 },
        "label": "Yb",
        "xyz": [5.178927653903007, 5.651504962489977, 5.317472693392915]
      },
      {
        "species": [{ "element": "Yb", "occu": 1 }],
        "abc": [0.32020280899048703, 0.678444790383089, 0.439705970776174],
        "properties": { "magmom": -0.193 },
        "label": "Yb",
        "xyz": [2.021825777918653, 4.667043741848338, 4.17303124925877]
      },
      {
        "species": [{ "element": "Yb", "occu": 1 }],
        "abc": [0.17979719100951203, 0.17844479038308902, 0.060294029223825006],
        "properties": { "magmom": -0.193 },
        "label": "Yb",
        "xyz": [1.1352760980656953, 1.2275275070688976, 0.5722207220670676]
      },
      {
        "species": [{ "element": "Yb", "occu": 1 }],
        "abc": [0.870074246500493, 0.525265627573404, 0.25],
        "properties": { "magmom": -0.209 },
        "label": "Yb",
        "xyz": [5.49382607174476, 3.6133193072206686, 2.3726259856629235]
      },
      {
        "species": [{ "element": "Yb", "occu": 1 }],
        "abc": [0.6299257534995061, 0.025265627573404004, 0.25],
        "properties": { "magmom": -0.209 },
        "label": "Yb",
        "xyz": [3.9774795562082974, 0.17380307244122828, 2.3726259856629235]
      },
      {
        "species": [{ "element": "Yb", "occu": 1 }],
        "abc": [0.129925753499506, 0.47473437242659605, 0.75],
        "properties": { "magmom": -0.209 },
        "label": "Yb",
        "xyz": [0.8203776802239423, 3.265713162338212, 7.117877956988771]
      },
      {
        "species": [{ "element": "Yb", "occu": 1 }],
        "abc": [0.37007424650049303, 0.9747343724265961, 0.75],
        "properties": { "magmom": -0.209 },
        "label": "Yb",
        "xyz": [2.336724195760406, 6.705229397117653, 7.117877956988771]
      },
      {
        "species": [{ "element": "Pd", "occu": 1 }],
        "abc": [0.052077724714919005, 0.8900263537229801, 0.25],
        "properties": { "magmom": -0.027 },
        "label": "Pd",
        "xyz": [0.32882936478893515, 6.122520186023477, 2.3726259856629235]
      },
      {
        "species": [{ "element": "Pd", "occu": 1 }],
        "abc": [0.44792227528508005, 0.39002635372298006, 0.25],
        "properties": { "magmom": -0.027 },
        "label": "Pd",
        "xyz": [2.8282725111954132, 2.6830039512440367, 2.3726259856629235]
      },
      {
        "species": [{ "element": "Pd", "occu": 1 }],
        "abc": [0.9479222752850801, 0.10997364627701901, 0.75],
        "properties": { "magmom": -0.027 },
        "label": "Pd",
        "xyz": [5.9853743871797676, 0.7565122835353969, 7.117877956988771]
      },
      {
        "species": [{ "element": "Pd", "occu": 1 }],
        "abc": [0.552077724714919, 0.609973646277019, 0.75],
        "properties": { "magmom": -0.027 },
        "label": "Pd",
        "xyz": [3.4859312407732896, 4.1960285183148365, 7.117877956988771]
      }
    ]
  },
  "task_ids": null,
  "uncorrected_energy_per_atom": null,
  "energy_per_atom": -33.68535395875,
  "formation_energy_per_atom": -0.548206467500001,
  "energy_above_hull": 0.0,
  "is_stable": true,
  "equilibrium_reaction_energy_per_atom": null,
  "decomposes_to": null,
  "xas": null,
  "grain_boundaries": null,
  "band_gap": 0.0,
  "cbm": null,
  "vbm": null,
  "efermi": 2.08729508,
  "is_gap_direct": null,
  "is_metal": null,
  "es_source_calc_id": null,
  "bandstructure": null,
  "dos": null,
  "dos_energy_up": null,
  "dos_energy_down": null,
  "is_magnetic": null,
  "ordering": null,
  "total_magnetization": 2.6620576,
  "total_magnetization_normalized_vol": null,
  "total_magnetization_normalized_formula_units": null,
  "num_magnetic_sites": null,
  "num_unique_magnetic_sites": null,
  "types_of_magnetic_species": null,
  "bulk_modulus": null,
  "shear_modulus": null,
  "universal_anisotropy": null,
  "homogeneous_poisson": null,
  "e_total": null,
  "e_ionic": null,
  "e_electronic": null,
  "n": null,
  "e_ij_max": null,
  "weighted_surface_energy_EV_PER_ANG2": null,
  "weighted_surface_energy": null,
  "weighted_work_function": null,
  "surface_anisotropy": null,
  "shape_factor": null,
  "has_reconstructed": null,
  "possible_species": null,
  "has_props": null,
  "theoretical": null,
  "database_IDs": null,
  "fields_not_requested": [
    "builder_meta",
    "nsites",
    "elements",
    "nelements",
    "composition",
    "composition_reduced",
    "chemsys",
    "symmetry",
    "property_name",
    "deprecated",
    "deprecation_reasons",
    "last_updated",
    "origins",
    "warnings",
    "task_ids",
    "uncorrected_energy_per_atom",
    "equilibrium_reaction_energy_per_atom",
    "decomposes_to",
    "xas",
    "grain_boundaries",
    "cbm",
    "vbm",
    "is_gap_direct",
    "is_metal",
    "es_source_calc_id",
    "bandstructure",
    "dos",
    "dos_energy_up",
    "dos_energy_down",
    "is_magnetic",
    "ordering",
    "total_magnetization_normalized_vol",
    "total_magnetization_normalized_formula_units",
    "num_magnetic_sites",
    "num_unique_magnetic_sites",
    "types_of_magnetic_species",
    "bulk_modulus",
    "shear_modulus",
    "universal_anisotropy",
    "homogeneous_poisson",
    "e_total",
    "e_ionic",
    "e_electronic",
    "n",
    "e_ij_max",
    "weighted_surface_energy_EV_PER_ANG2",
    "weighted_surface_energy",
    "weighted_work_function",
    "surface_anisotropy",
    "shape_factor",
    "has_reconstructed",
    "possible_species",
    "has_props",
    "theoretical",
    "database_IDs"
  ]
}
