{"builder_meta": null, "nsites": null, "elements": null, "nelements": null, "composition": null, "composition_reduced": null, "formula_pretty": "Yb3Pb", "formula_anonymous": "AB3", "chemsys": null, "volume": 217.51373898184363, "density": 11.089715440490739, "density_atomic": 27.189217372730454, "symmetry": null, "property_name": null, "material_id": "mp-1187980", "deprecated": null, "deprecation_reasons": null, "last_updated": null, "origins": null, "warnings": null, "structure": {"@module": "pymatgen.core.structure", "@class": "Structure", "charge": 0.0, "lattice": {"matrix": [[3.367204387085733, -5.832168577516916, -0.0], [3.367204387085733, 5.832168577516916, 0.0], [0.0, 0.0, 5.538053551043094]], "pbc": [true, true, true], "a": 6.7344083408258735, "b": 6.7344083408258735, "c": 5.538053551043094, "alpha": 90.0, "beta": 90.0, "gamma": 119.9999957427717, "volume": 217.51373898184357}, "properties": {}, "sites": [{"species": [{"element": "Yb", "occu": 1}], "abc": [0.16807219290882303, 0.336143385812519, 0.25], "properties": {"magmom": 0.682}, "label": "Yb", "xyz": [1.6977969087074745, 0.9802195300387199, 1.3845133877607736]}, {"species": [{"element": "Yb", "occu": 1}], "abc": [0.6638566141874801, 0.8319278070911761, 0.25], "properties": {"magmom": 0.682}, "label": "Yb", "xyz": [5.0366118654639855, 0.9802195300387195, 1.3845133877607736]}, {"species": [{"element": "Yb", "occu": 1}], "abc": [0.168072192903707, 0.8319278070962921, 0.25], "properties": {"magmom": 0.682}, "label": "Yb", "xyz": [3.3672043870857298, 3.8717178531021874, 1.3845133877607736]}, {"species": [{"element": "Yb", "occu": 1}], "abc": [0.8319278070911761, 0.6638566141874801, 0.75], "properties": {"magmom": 0.682}, "label": "Yb", "xyz": [5.0366118654639855, -0.9802195300387195, 4.153540163282321]}, {"species": [{"element": "Yb", "occu": 1}], "abc": [0.336143385812519, 0.16807219290882303, 0.75], "properties": {"magmom": 0.682}, "label": "Yb", "xyz": [1.6977969087074745, -0.9802195300387199, 4.153540163282321]}, {"species": [{"element": "Yb", "occu": 1}], "abc": [0.8319278070962921, 0.168072192903707, 0.75], "properties": {"magmom": 0.682}, "label": "Yb", "xyz": [3.3672043870857298, -3.8717178531021874, 4.153540163282321]}, {"species": [{"element": "Pb", "occu": 1}], "abc": [0.33333300000000304, 0.666666999999996, 0.75], "properties": {"magmom": -0.054}, "label": "Pb", "xyz": [3.3672043870857298, 1.9440600806179829, 4.153540163282321]}, {"species": [{"element": "Pb", "occu": 1}], "abc": [0.666666999999996, 0.33333300000000304, 0.25], "properties": {"magmom": -0.054}, "label": "Pb", "xyz": [3.3672043870857298, -1.9440600806179829, 1.3845133877607736]}]}, "task_ids": null, "uncorrected_energy_per_atom": null, "energy_per_atom": -41.79381067875, "formation_energy_per_atom": -0.32549306250000104, "energy_above_hull": 0.0, "is_stable": true, "equilibrium_reaction_energy_per_atom": null, "decomposes_to": null, "xas": null, "grain_boundaries": null, "band_gap": 0.0, "cbm": null, "vbm": null, "efermi": 3.2966291, "is_gap_direct": null, "is_metal": null, "es_source_calc_id": null, "bandstructure": null, "dos": null, "dos_energy_up": null, "dos_energy_down": null, "is_magnetic": null, "ordering": null, "total_magnetization": 3.8766221, "total_magnetization_normalized_vol": null, "total_magnetization_normalized_formula_units": null, "num_magnetic_sites": null, "num_unique_magnetic_sites": null, "types_of_magnetic_species": null, "bulk_modulus": null, "shear_modulus": null, "universal_anisotropy": null, "homogeneous_poisson": null, "e_total": null, "e_ionic": null, "e_electronic": null, "n": null, "e_ij_max": null, "weighted_surface_energy_EV_PER_ANG2": null, "weighted_surface_energy": null, "weighted_work_function": null, "surface_anisotropy": null, "shape_factor": null, "has_reconstructed": null, "possible_species": null, "has_props": null, "theoretical": null, "database_IDs": null, "fields_not_requested": ["builder_meta", "nsites", "elements", "nelements", "composition", "composition_reduced", "chemsys", "symmetry", "property_name", "deprecated", "deprecation_reasons", "last_updated", "origins", "warnings", "task_ids", "uncorrected_energy_per_atom", "equilibrium_reaction_energy_per_atom", "decomposes_to", "xas", "grain_boundaries", "cbm", "vbm", "is_gap_direct", "is_metal", "es_source_calc_id", "bandstructure", "dos", "dos_energy_up", "dos_energy_down", "is_magnetic", "ordering", "total_magnetization_normalized_vol", "total_magnetization_normalized_formula_units", "num_magnetic_sites", "num_unique_magnetic_sites", "types_of_magnetic_species", "bulk_modulus", "shear_modulus", "universal_anisotropy", "homogeneous_poisson", "e_total", "e_ionic", "e_electronic", "n", "e_ij_max", "weighted_surface_energy_EV_PER_ANG2", "weighted_surface_energy", "weighted_work_function", "surface_anisotropy", "shape_factor", "has_reconstructed", "possible_species", "has_props", "theoretical", "database_IDs"]}