{
  "builder_meta": null,
  "nsites": null,
  "elements": null,
  "nelements": null,
  "composition": null,
  "composition_reduced": null,
  "formula_pretty": "Yb3Re",
  "formula_anonymous": "AB3",
  "chemsys": null,
  "volume": 183.0874455884227,
  "density": 12.794138172211616,
  "density_atomic": 22.885930698552837,
  "symmetry": null,
  "property_name": null,
  "material_id": "mp-1187997",
  "deprecated": null,
  "deprecation_reasons": null,
  "last_updated": null,
  "origins": null,
  "warnings": null,
  "structure": {
    "@module": "pymatgen.core.structure",
    "@class": "Structure",
    "charge": 0.0,
    "lattice": {
      "matrix": [
        [6.547779300843434, 1.84372152e-8, -0.0],
        [-3.2738901188258183, 5.670544224859007, -0.0],
        [-0.0, -0.0, 4.931054360197468]
      ],
      "pbc": [true, true, true],
      "a": 6.547779300843434,
      "b": 6.547780411423949,
      "c": 4.931054360197468,
      "alpha": 90.0,
      "beta": 90.0,
      "gamma": 119.9999989607598,
      "volume": 183.0874455884227
    },
    "properties": {},
    "sites": [
      {
        "species": [{ "element": "Yb", "occu": 1 }],
        "abc": [0.17466325572257002, 0.34932751145314705, 0.25],
        "properties": { "magmom": -0.001 },
        "label": "Yb",
        "xyz": [-3.4375423034749275e-6, 1.9808771058753158, 1.232763590049367]
      },
      {
        "species": [{ "element": "Yb", "occu": 1 }],
        "abc": [0.6506734885664961, 0.8253367442774291, 0.25],
        "properties": { "magmom": -0.001 },
        "label": "Yb",
        "xyz": [1.5584045882495436, 4.680108520822918, 1.232763590049367]
      },
      {
        "species": [{ "element": "Yb", "occu": 1 }],
        "abc": [0.17466325571093202, 0.825336744269421, 0.25],
        "properties": { "magmom": -0.001 },
        "label": "Yb",
        "xyz": [-1.5584053614055644, 4.680108512001205, 1.232763590049367]
      },
      {
        "species": [{ "element": "Yb", "occu": 1 }],
        "abc": [0.8253367442774291, 0.650672488546852, 0.7499990000000021],
        "properties": { "magmom": -0.001 },
        "label": "Yb",
        "xyz": [3.2738926195599167, 3.6896671374209014, 3.698285839093751]
      },
      {
        "species": [{ "element": "Yb", "occu": 1 }],
        "abc": [0.349326511433503, 0.17466425572256802, 0.7499990000000021],
        "properties": { "magmom": -0.001 },
        "label": "Yb",
        "xyz": [1.7154813198779566, 0.990441393017513, 3.698285839093751]
      },
      {
        "species": [{ "element": "Yb", "occu": 1 }],
        "abc": [0.825337744289079, 0.174664255730576, 0.7499990000000021],
        "properties": { "magmom": -0.001 },
        "label": "Yb",
        "xyz": [4.832297817312445, 0.9904414018392442, 3.698285839093751]
      },
      {
        "species": [{ "element": "Re", "occu": 1 }],
        "abc": [0.333333999999999, 0.666668000000001, 0.7499990000000021],
        "properties": { "magmom": 0.002 },
        "label": "Re",
        "xyz": [-3.1227003516320906e-7, 3.7803703834440614, 3.698285839093751]
      },
      {
        "species": [{ "element": "Re", "occu": 1 }],
        "abc": [0.666666999999996, 0.33333300000000304, 0.25],
        "properties": { "magmom": 0.002 },
        "label": "Re",
        "xyz": [3.273892768176787, 1.8901795303964277, 1.232763590049367]
      }
    ]
  },
  "task_ids": null,
  "uncorrected_energy_per_atom": null,
  "energy_per_atom": -40.40558147625,
  "formation_energy_per_atom": 0.094106289374998,
  "energy_above_hull": 0.094106289374998,
  "is_stable": false,
  "equilibrium_reaction_energy_per_atom": null,
  "decomposes_to": null,
  "xas": null,
  "grain_boundaries": null,
  "band_gap": 0.0,
  "cbm": null,
  "vbm": null,
  "efermi": 3.4180402500000002,
  "is_gap_direct": null,
  "is_metal": null,
  "es_source_calc_id": null,
  "bandstructure": null,
  "dos": null,
  "dos_energy_up": null,
  "dos_energy_down": null,
  "is_magnetic": null,
  "ordering": null,
  "total_magnetization": 0.0009969,
  "total_magnetization_normalized_vol": null,
  "total_magnetization_normalized_formula_units": null,
  "num_magnetic_sites": null,
  "num_unique_magnetic_sites": null,
  "types_of_magnetic_species": null,
  "bulk_modulus": null,
  "shear_modulus": null,
  "universal_anisotropy": null,
  "homogeneous_poisson": null,
  "e_total": null,
  "e_ionic": null,
  "e_electronic": null,
  "n": null,
  "e_ij_max": null,
  "weighted_surface_energy_EV_PER_ANG2": null,
  "weighted_surface_energy": null,
  "weighted_work_function": null,
  "surface_anisotropy": null,
  "shape_factor": null,
  "has_reconstructed": null,
  "possible_species": null,
  "has_props": null,
  "theoretical": null,
  "database_IDs": null,
  "fields_not_requested": [
    "builder_meta",
    "nsites",
    "elements",
    "nelements",
    "composition",
    "composition_reduced",
    "chemsys",
    "symmetry",
    "property_name",
    "deprecated",
    "deprecation_reasons",
    "last_updated",
    "origins",
    "warnings",
    "task_ids",
    "uncorrected_energy_per_atom",
    "equilibrium_reaction_energy_per_atom",
    "decomposes_to",
    "xas",
    "grain_boundaries",
    "cbm",
    "vbm",
    "is_gap_direct",
    "is_metal",
    "es_source_calc_id",
    "bandstructure",
    "dos",
    "dos_energy_up",
    "dos_energy_down",
    "is_magnetic",
    "ordering",
    "total_magnetization_normalized_vol",
    "total_magnetization_normalized_formula_units",
    "num_magnetic_sites",
    "num_unique_magnetic_sites",
    "types_of_magnetic_species",
    "bulk_modulus",
    "shear_modulus",
    "universal_anisotropy",
    "homogeneous_poisson",
    "e_total",
    "e_ionic",
    "e_electronic",
    "n",
    "e_ij_max",
    "weighted_surface_energy_EV_PER_ANG2",
    "weighted_surface_energy",
    "weighted_work_function",
    "surface_anisotropy",
    "shape_factor",
    "has_reconstructed",
    "possible_species",
    "has_props",
    "theoretical",
    "database_IDs"
  ]
}
