{"builder_meta": null, "nsites": null, "elements": null, "nelements": null, "composition": null, "composition_reduced": null, "formula_pretty": "Yb3Si5", "formula_anonymous": "A3B5", "chemsys": null, "volume": 147.8097549423269, "density": 7.409554196579891, "density_atomic": 18.47621936779086, "symmetry": null, "property_name": null, "material_id": "mp-349", "deprecated": null, "deprecation_reasons": null, "last_updated": null, "origins": null, "warnings": null, "structure": {"@module": "pymatgen.core.structure", "@class": "Structure", "charge": 0.0, "lattice": {"matrix": [[3.235516736128524, -5.604080208105451, -0.0], [3.235516736128524, 5.604080208105451, 0.0], [0.0, -0.0, 4.075914902958718]], "pbc": [true, true, true], "a": 6.47103419312918, "b": 6.47103419312918, "c": 4.075914902958718, "alpha": 90.0, "beta": 90.0, "gamma": 120.00000737015351, "volume": 147.8097549423269}, "properties": {}, "sites": [{"species": [{"element": "Yb", "occu": 1}], "abc": [3.14557e-11, 0.64411476871632, 0.0], "properties": {"magmom": -0.0}, "label": "Yb", "xyz": [2.0840441142709825, 3.6096708269352686, 0.0]}, {"species": [{"element": "Yb", "occu": 1}], "abc": [0.35588523125223004, 0.35588523125223004, 0.0], "properties": {"magmom": -0.0}, "label": "Yb", "xyz": [2.3029452437151208, 0.0, 0.0]}, {"species": [{"element": "Yb", "occu": 1}], "abc": [0.64411476871632, 3.14557e-11, 0.0], "properties": {"magmom": -0.0}, "label": "Yb", "xyz": [2.0840441142709825, -3.6096708269352686, 0.0]}, {"species": [{"element": "Si", "occu": 1}], "abc": [0.666666999999996, 0.33333300000000304, 0.5], "properties": {"magmom": -0.0}, "label": "Si", "xyz": [3.2355167361285204, -1.8680304720885832, 2.037957451479359]}, {"species": [{"element": "Si", "occu": 1}], "abc": [0.33333300000000304, 0.666666999999996, 0.5], "properties": {"magmom": -0.0}, "label": "Si", "xyz": [3.2355167361285204, 1.8680304720885832, 2.037957451479359]}, {"species": [{"element": "Si", "occu": 1}], "abc": [4.2462e-11, 0.26545408855040603, 0.5], "properties": {"magmom": -0.0}, "label": "Si", "xyz": [0.8588811463159685, 1.4876260035680418, 2.037957451479359]}, {"species": [{"element": "Si", "occu": 1}], "abc": [0.26545408855040603, 4.2462e-11, 0.5], "properties": {"magmom": -0.0}, "label": "Si", "xyz": [0.8588811463159685, -1.4876260035680418, 2.037957451479359]}, {"species": [{"element": "Si", "occu": 1}], "abc": [0.7345459114071311, 0.7345459114071311, 0.5], "properties": {"magmom": -0.0}, "label": "Si", "xyz": [4.753271179625106, 0.0, 2.037957451479359]}]}, "task_ids": null, "uncorrected_energy_per_atom": null, "energy_per_atom": -19.84961307, "formation_energy_per_atom": -0.6674931537500011, "energy_above_hull": 0.0, "is_stable": true, "equilibrium_reaction_energy_per_atom": null, "decomposes_to": null, "xas": null, "grain_boundaries": null, "band_gap": 0.0, "cbm": null, "vbm": null, "efermi": 4.37241301, "is_gap_direct": null, "is_metal": null, "es_source_calc_id": null, "bandstructure": null, "dos": null, "dos_energy_up": null, "dos_energy_down": null, "is_magnetic": null, "ordering": null, "total_magnetization": 0.0, "total_magnetization_normalized_vol": null, "total_magnetization_normalized_formula_units": null, "num_magnetic_sites": null, "num_unique_magnetic_sites": null, "types_of_magnetic_species": null, "bulk_modulus": null, "shear_modulus": null, "universal_anisotropy": null, "homogeneous_poisson": null, "e_total": null, "e_ionic": null, "e_electronic": null, "n": null, "e_ij_max": null, "weighted_surface_energy_EV_PER_ANG2": null, "weighted_surface_energy": null, "weighted_work_function": null, "surface_anisotropy": null, "shape_factor": null, "has_reconstructed": null, "possible_species": null, "has_props": null, "theoretical": null, "database_IDs": null, "fields_not_requested": ["builder_meta", "nsites", "elements", "nelements", "composition", "composition_reduced", "chemsys", "symmetry", "property_name", "deprecated", "deprecation_reasons", "last_updated", "origins", "warnings", "task_ids", "uncorrected_energy_per_atom", "equilibrium_reaction_energy_per_atom", "decomposes_to", "xas", "grain_boundaries", "cbm", "vbm", "is_gap_direct", "is_metal", "es_source_calc_id", "bandstructure", "dos", "dos_energy_up", "dos_energy_down", "is_magnetic", "ordering", "total_magnetization_normalized_vol", "total_magnetization_normalized_formula_units", "num_magnetic_sites", "num_unique_magnetic_sites", "types_of_magnetic_species", "bulk_modulus", "shear_modulus", "universal_anisotropy", "homogeneous_poisson", "e_total", "e_ionic", "e_electronic", "n", "e_ij_max", "weighted_surface_energy_EV_PER_ANG2", "weighted_surface_energy", "weighted_work_function", "surface_anisotropy", "shape_factor", "has_reconstructed", "possible_species", "has_props", "theoretical", "database_IDs"]}