{"builder_meta": null, "nsites": null, "elements": null, "nelements": null, "composition": null, "composition_reduced": null, "formula_pretty": "Yb3Sm", "formula_anonymous": "AB3", "chemsys": null, "volume": 247.26841685909324, "density": 8.99182927143399, "density_atomic": 30.908552107386654, "symmetry": null, "property_name": null, "material_id": "mp-1187995", "deprecated": null, "deprecation_reasons": null, "last_updated": null, "origins": null, "warnings": null, "structure": {"@module": "pymatgen.core.structure", "@class": "Structure", "charge": 0.0, "lattice": {"matrix": [[3.5848992854719492, -6.209227775416582, 0.0], [3.5848992854719492, 6.209227775416582, 0.0], [0.0, -0.0, 5.554233096848116]], "pbc": [true, true, true], "a": 7.169798634130672, "b": 7.169798634130672, "c": 5.554233096848116, "alpha": 90.0, "beta": 90.0, "gamma": 120.00000058305729, "volume": 247.26841685909324}, "properties": {}, "sites": [{"species": [{"element": "Yb", "occu": 1}], "abc": [0.165641307549059, 0.331281615098348, 0.25], "properties": {"magmom": -0.0}, "label": "Yb", "xyz": [1.7814186303333222, 1.0284983983635902, 1.388558274212029]}, {"species": [{"element": "Yb", "occu": 1}], "abc": [0.668718384901652, 0.8343586924509411, 0.25], "properties": {"magmom": -0.0}, "label": "Yb", "xyz": [5.388379940610577, 1.02849839836359, 1.388558274212029]}, {"species": [{"element": "Yb", "occu": 1}], "abc": [0.1656413075493, 0.834358692450699, 0.25], "properties": {"magmom": -0.0}, "label": "Yb", "xyz": [3.5848992854719457, 4.152218560233708, 1.388558274212029]}, {"species": [{"element": "Yb", "occu": 1}], "abc": [0.8343586924509411, 0.668718384901652, 0.75], "properties": {"magmom": -0.0}, "label": "Yb", "xyz": [5.388379940610577, -1.02849839836359, 4.165674822636087]}, {"species": [{"element": "Yb", "occu": 1}], "abc": [0.331281615098348, 0.165641307549059, 0.75], "properties": {"magmom": -0.0}, "label": "Yb", "xyz": [1.7814186303333222, -1.0284983983635902, 4.165674822636087]}, {"species": [{"element": "Yb", "occu": 1}], "abc": [0.834358692450699, 0.1656413075493, 0.75], "properties": {"magmom": -0.0}, "label": "Yb", "xyz": [3.5848992854719457, -4.152218560233708, 4.165674822636087]}, {"species": [{"element": "Sm", "occu": 1}], "abc": [0.33333300000000304, 0.666666999999996, 0.75], "properties": {"magmom": -0.0}, "label": "Sm", "xyz": [3.584899285471946, 2.069746731290667, 4.165674822636087]}, {"species": [{"element": "Sm", "occu": 1}], "abc": [0.666666999999996, 0.33333300000000304, 0.25], "properties": {"magmom": -0.0}, "label": "Sm", "xyz": [3.584899285471946, -2.069746731290667, 1.388558274212029]}]}, "task_ids": null, "uncorrected_energy_per_atom": null, "energy_per_atom": -34.83568174875, "formation_energy_per_atom": -0.005416580000002001, "energy_above_hull": 0.0, "is_stable": true, "equilibrium_reaction_energy_per_atom": null, "decomposes_to": null, "xas": null, "grain_boundaries": null, "band_gap": 0.0, "cbm": null, "vbm": null, "efermi": 1.79297634, "is_gap_direct": null, "is_metal": null, "es_source_calc_id": null, "bandstructure": null, "dos": null, "dos_energy_up": null, "dos_energy_down": null, "is_magnetic": null, "ordering": null, "total_magnetization": 0.001126799999999, "total_magnetization_normalized_vol": null, "total_magnetization_normalized_formula_units": null, "num_magnetic_sites": null, "num_unique_magnetic_sites": null, "types_of_magnetic_species": null, "bulk_modulus": null, "shear_modulus": null, "universal_anisotropy": null, "homogeneous_poisson": null, "e_total": null, "e_ionic": null, "e_electronic": null, "n": null, "e_ij_max": null, "weighted_surface_energy_EV_PER_ANG2": null, "weighted_surface_energy": null, "weighted_work_function": null, "surface_anisotropy": null, "shape_factor": null, "has_reconstructed": null, "possible_species": null, "has_props": null, "theoretical": null, "database_IDs": null, "fields_not_requested": ["builder_meta", "nsites", "elements", "nelements", "composition", "composition_reduced", "chemsys", "symmetry", "property_name", "deprecated", "deprecation_reasons", "last_updated", "origins", "warnings", "task_ids", "uncorrected_energy_per_atom", "equilibrium_reaction_energy_per_atom", "decomposes_to", "xas", "grain_boundaries", "cbm", "vbm", "is_gap_direct", "is_metal", "es_source_calc_id", "bandstructure", "dos", "dos_energy_up", "dos_energy_down", "is_magnetic", "ordering", "total_magnetization_normalized_vol", "total_magnetization_normalized_formula_units", "num_magnetic_sites", "num_unique_magnetic_sites", "types_of_magnetic_species", "bulk_modulus", "shear_modulus", "universal_anisotropy", "homogeneous_poisson", "e_total", "e_ionic", "e_electronic", "n", "e_ij_max", "weighted_surface_energy_EV_PER_ANG2", "weighted_surface_energy", "weighted_work_function", "surface_anisotropy", "shape_factor", "has_reconstructed", "possible_species", "has_props", "theoretical", "database_IDs"]}