{"builder_meta": null, "nsites": null, "elements": null, "nelements": null, "composition": null, "composition_reduced": null, "formula_pretty": "Yb3Si", "formula_anonymous": "AB3", "chemsys": null, "volume": 185.44855821454397, "density": 9.799548931053637, "density_atomic": 23.181069776817996, "symmetry": null, "property_name": null, "material_id": "mp-1187971", "deprecated": null, "deprecation_reasons": null, "last_updated": null, "origins": null, "warnings": null, "structure": {"@module": "pymatgen.core.structure", "@class": "Structure", "charge": 0.0, "lattice": {"matrix": [[3.232761647861403, -5.5993070400020475, -0.0], [3.232761647861403, 5.5993070400020475, -0.0], [-0.0, 0.0, 5.12254164196726]], "pbc": [true, true, true], "a": 6.4655229641615275, "b": 6.4655229641615275, "c": 5.12254164196726, "alpha": 90.0, "beta": 90.0, "gamma": 119.99999660724772, "volume": 185.44855821454397}, "properties": {}, "sites": [{"species": [{"element": "Yb", "occu": 1}], "abc": [0.17412865316922602, 0.348258306336845, 0.25], "properties": {"magmom": -0.059000000000000004}, "label": "Yb", "xyz": [1.6887525280341544, 0.9750053928545638, 1.280635410491815]}, {"species": [{"element": "Yb", "occu": 1}], "abc": [0.651741693663154, 0.825871346830773, 0.25], "properties": {"magmom": -0.059000000000000004}, "label": "Yb", "xyz": [4.776770767688646, 0.9750053928545639, 1.280635410491815]}, {"species": [{"element": "Yb", "occu": 1}], "abc": [0.17412865316762802, 0.8258713468323721, 0.25], "properties": {"magmom": -0.059000000000000004}, "label": "Yb", "xyz": [3.2327616478614036, 3.6493074529068994, 1.280635410491815]}, {"species": [{"element": "Yb", "occu": 1}], "abc": [0.825871346830773, 0.651741693663154, 0.75], "properties": {"magmom": -0.059000000000000004}, "label": "Yb", "xyz": [4.776770767688646, -0.9750053928545639, 3.841906231475445]}, {"species": [{"element": "Yb", "occu": 1}], "abc": [0.348258306336845, 0.17412865316922602, 0.75], "properties": {"magmom": -0.059000000000000004}, "label": "Yb", "xyz": [1.6887525280341544, -0.9750053928545638, 3.841906231475445]}, {"species": [{"element": "Yb", "occu": 1}], "abc": [0.8258713468323721, 0.17412865316762802, 0.75], "properties": {"magmom": -0.059000000000000004}, "label": "Yb", "xyz": [3.2327616478614036, -3.6493074529068994, 3.841906231475445]}, {"species": [{"element": "Si", "occu": 1}], "abc": [0.33333300000000304, 0.666666999999996, 0.75], "properties": {"magmom": 0.004}, "label": "Si", "xyz": [3.2327616478614, 1.866439412872003, 3.841906231475445]}, {"species": [{"element": "Si", "occu": 1}], "abc": [0.666666999999996, 0.33333300000000304, 0.25], "properties": {"magmom": 0.004}, "label": "Si", "xyz": [3.2327616478614, -1.866439412872003, 1.280635410491815]}]}, "task_ids": null, "uncorrected_energy_per_atom": null, "energy_per_atom": -29.8733601625, "formation_energy_per_atom": -0.282884925000001, "energy_above_hull": 0.251655112083334, "is_stable": false, "equilibrium_reaction_energy_per_atom": null, "decomposes_to": null, "xas": null, "grain_boundaries": null, "band_gap": 0.0, "cbm": null, "vbm": null, "efermi": 3.0006538, "is_gap_direct": null, "is_metal": null, "es_source_calc_id": null, "bandstructure": null, "dos": null, "dos_energy_up": null, "dos_energy_down": null, "is_magnetic": null, "ordering": null, "total_magnetization": 0.241460899999999, "total_magnetization_normalized_vol": null, "total_magnetization_normalized_formula_units": null, "num_magnetic_sites": null, "num_unique_magnetic_sites": null, "types_of_magnetic_species": null, "bulk_modulus": null, "shear_modulus": null, "universal_anisotropy": null, "homogeneous_poisson": null, "e_total": null, "e_ionic": null, "e_electronic": null, "n": null, "e_ij_max": null, "weighted_surface_energy_EV_PER_ANG2": null, "weighted_surface_energy": null, "weighted_work_function": null, "surface_anisotropy": null, "shape_factor": null, "has_reconstructed": null, "possible_species": null, "has_props": null, "theoretical": null, "database_IDs": null, "fields_not_requested": ["builder_meta", "nsites", "elements", "nelements", "composition", "composition_reduced", "chemsys", "symmetry", "property_name", "deprecated", "deprecation_reasons", "last_updated", "origins", "warnings", "task_ids", "uncorrected_energy_per_atom", "equilibrium_reaction_energy_per_atom", "decomposes_to", "xas", "grain_boundaries", "cbm", "vbm", "is_gap_direct", "is_metal", "es_source_calc_id", "bandstructure", "dos", "dos_energy_up", "dos_energy_down", "is_magnetic", "ordering", "total_magnetization_normalized_vol", "total_magnetization_normalized_formula_units", "num_magnetic_sites", "num_unique_magnetic_sites", "types_of_magnetic_species", "bulk_modulus", "shear_modulus", "universal_anisotropy", "homogeneous_poisson", "e_total", "e_ionic", "e_electronic", "n", "e_ij_max", "weighted_surface_energy_EV_PER_ANG2", "weighted_surface_energy", "weighted_work_function", "surface_anisotropy", "shape_factor", "has_reconstructed", "possible_species", "has_props", "theoretical", "database_IDs"]}