{"builder_meta": null, "nsites": null, "elements": null, "nelements": null, "composition": null, "composition_reduced": null, "formula_pretty": "Yb3W", "formula_anonymous": "AB3", "chemsys": null, "volume": 190.458707704256, "density": 12.25769676091372, "density_atomic": 23.807338463032, "symmetry": null, "property_name": null, "material_id": "mp-982321", "deprecated": null, "deprecation_reasons": null, "last_updated": null, "origins": null, "warnings": null, "structure": {"@module": "pymatgen.core.structure", "@class": "Structure", "charge": 0.0, "lattice": {"matrix": [[3.276742457529358, -5.675484741162604, -0.0], [3.276742457529358, 5.675484741162604, 0.0], [0.0, -0.0, 5.120655615154345]], "pbc": [true, true, true], "a": 6.553485193402445, "b": 6.553485193402445, "c": 5.120655615154345, "alpha": 90.0, "beta": 90.0, "gamma": 120.00000280996635, "volume": 190.458707704256}, "properties": {}, "sites": [{"species": [{"element": "Yb", "occu": 1}], "abc": [0.171846583212683, 0.34369316642782605, 0.25], "properties": {"magmom": 0.0}, "label": "Yb", "xyz": [1.6892909861911116, 0.9753126608584739, 1.2801639037885864]}, {"species": [{"element": "Yb", "occu": 1}], "abc": [0.656306833572173, 0.828153416787309, 0.25], "properties": {"magmom": 0.0}, "label": "Yb", "xyz": [4.864193928867575, 0.9753126608584339, 1.2801639037885864]}, {"species": [{"element": "Yb", "occu": 1}], "abc": [0.17184658321512802, 0.8281534167848711, 0.25], "properties": {"magmom": 0.0}, "label": "Yb", "xyz": [3.2767424575293553, 3.724859419445822, 1.2801639037885864]}, {"species": [{"element": "Yb", "occu": 1}], "abc": [0.828153416787309, 0.656306833572173, 0.75], "properties": {"magmom": 0.0}, "label": "Yb", "xyz": [4.864193928867575, -0.9753126608584339, 3.8404917113657593]}, {"species": [{"element": "Yb", "occu": 1}], "abc": [0.34369316642782605, 0.171846583212683, 0.75], "properties": {"magmom": 0.0}, "label": "Yb", "xyz": [1.6892909861911116, -0.9753126608584739, 3.8404917113657593]}, {"species": [{"element": "Yb", "occu": 1}], "abc": [0.8281534167848711, 0.17184658321512802, 0.75], "properties": {"magmom": 0.0}, "label": "Yb", "xyz": [3.2767424575293553, -3.724859419445822, 3.8404917113657593]}, {"species": [{"element": "W", "occu": 1}], "abc": [0.33333300000000304, 0.666666999999996, 0.75], "properties": {"magmom": -0.0}, "label": "W", "xyz": [3.276742457529355, 1.8918320307106555, 3.8404917113657593]}, {"species": [{"element": "W", "occu": 1}], "abc": [0.666666999999996, 0.33333300000000304, 0.25], "properties": {"magmom": -0.0}, "label": "W", "xyz": [3.276742457529355, -1.8918320307106555, 1.2801639037885864]}]}, "task_ids": null, "uncorrected_energy_per_atom": null, "energy_per_atom": -39.91828913125, "formation_energy_per_atom": 0.32069355249999604, "energy_above_hull": 0.32069355249999604, "is_stable": false, "equilibrium_reaction_energy_per_atom": null, "decomposes_to": null, "xas": null, "grain_boundaries": null, "band_gap": 0.0, "cbm": null, "vbm": null, "efermi": 2.25851233, "is_gap_direct": null, "is_metal": null, "es_source_calc_id": null, "bandstructure": null, "dos": null, "dos_energy_up": null, "dos_energy_down": null, "is_magnetic": null, "ordering": null, "total_magnetization": 0.0, "total_magnetization_normalized_vol": null, "total_magnetization_normalized_formula_units": null, "num_magnetic_sites": null, "num_unique_magnetic_sites": null, "types_of_magnetic_species": null, "bulk_modulus": null, "shear_modulus": null, "universal_anisotropy": null, "homogeneous_poisson": null, "e_total": null, "e_ionic": null, "e_electronic": null, "n": null, "e_ij_max": null, "weighted_surface_energy_EV_PER_ANG2": null, "weighted_surface_energy": null, "weighted_work_function": null, "surface_anisotropy": null, "shape_factor": null, "has_reconstructed": null, "possible_species": null, "has_props": null, "theoretical": null, "database_IDs": null, "fields_not_requested": ["builder_meta", "nsites", "elements", "nelements", "composition", "composition_reduced", "chemsys", "symmetry", "property_name", "deprecated", "deprecation_reasons", "last_updated", "origins", "warnings", "task_ids", "uncorrected_energy_per_atom", "equilibrium_reaction_energy_per_atom", "decomposes_to", "xas", "grain_boundaries", "cbm", "vbm", "is_gap_direct", "is_metal", "es_source_calc_id", "bandstructure", "dos", "dos_energy_up", "dos_energy_down", "is_magnetic", "ordering", "total_magnetization_normalized_vol", "total_magnetization_normalized_formula_units", "num_magnetic_sites", "num_unique_magnetic_sites", "types_of_magnetic_species", "bulk_modulus", "shear_modulus", "universal_anisotropy", "homogeneous_poisson", "e_total", "e_ionic", "e_electronic", "n", "e_ij_max", "weighted_surface_energy_EV_PER_ANG2", "weighted_surface_energy", "weighted_work_function", "surface_anisotropy", "shape_factor", "has_reconstructed", "possible_species", "has_props", "theoretical", "database_IDs"]}