{
  "builder_meta": null,
  "nsites": null,
  "elements": null,
  "nelements": null,
  "composition": null,
  "composition_reduced": null,
  "formula_pretty": "Yb3Y",
  "formula_anonymous": "AB3",
  "chemsys": null,
  "volume": 244.916405884658,
  "density": 8.244859496290019,
  "density_atomic": 30.61455073558225,
  "symmetry": null,
  "property_name": null,
  "material_id": "mp-980944",
  "deprecated": null,
  "deprecation_reasons": null,
  "last_updated": null,
  "origins": null,
  "warnings": null,
  "structure": {
    "@module": "pymatgen.core.structure",
    "@class": "Structure",
    "charge": 0.0,
    "lattice": {
      "matrix": [
        [3.579069875974541, -6.199130258350509, -0.0],
        [3.579069875974541, 6.199130258350509, -0.0],
        [-0.0, -0.0, 5.519337387110067]
      ],
      "pbc": [true, true, true],
      "a": 7.158139223087608,
      "b": 7.158139223087608,
      "c": 5.519337387110067,
      "alpha": 90.0,
      "beta": 90.0,
      "gamma": 119.99999511197075,
      "volume": 244.916405884658
    },
    "properties": {},
    "sites": [
      {
        "species": [{ "element": "Yb", "occu": 1 }],
        "abc": [0.16537724539796902, 0.33075549079347805, 0.25],
        "properties": { "magmom": 0.002 },
        "label": "Yb",
        "xyz": [1.7756937305876321, 1.0252012851042158, 1.3798343467775167]
      },
      {
        "species": [{ "element": "Yb", "occu": 1 }],
        "abc": [0.669244509206521, 0.8346227546020301, 0.25],
        "properties": { "magmom": 0.002 },
        "label": "Yb",
        "xyz": [5.382446021361443, 1.0252012851042158, 1.3798343467775167]
      },
      {
        "species": [{ "element": "Yb", "occu": 1 }],
        "abc": [0.16537724539550402, 0.8346227546044951, 0.25],
        "properties": { "magmom": 0.002 },
        "label": "Yb",
        "xyz": [3.579069875974538, 4.1487400864026505, 1.3798343467775167]
      },
      {
        "species": [{ "element": "Yb", "occu": 1 }],
        "abc": [0.8346227546020301, 0.669244509206521, 0.75],
        "properties": { "magmom": 0.002 },
        "label": "Yb",
        "xyz": [5.382446021361443, -1.0252012851042158, 4.13950304033255]
      },
      {
        "species": [{ "element": "Yb", "occu": 1 }],
        "abc": [0.33075549079347805, 0.16537724539796902, 0.75],
        "properties": { "magmom": 0.002 },
        "label": "Yb",
        "xyz": [1.7756937305876321, -1.0252012851042158, 4.13950304033255]
      },
      {
        "species": [{ "element": "Yb", "occu": 1 }],
        "abc": [0.8346227546044951, 0.16537724539550402, 0.75],
        "properties": { "magmom": 0.002 },
        "label": "Yb",
        "xyz": [3.579069875974538, -4.1487400864026505, 4.13950304033255]
      },
      {
        "species": [{ "element": "Y", "occu": 1 }],
        "abc": [0.33333300000000304, 0.666666999999996, 0.75],
        "properties": { "magmom": 0.002 },
        "label": "Y",
        "xyz": [3.579069875974538, 2.066380885536965, 4.13950304033255]
      },
      {
        "species": [{ "element": "Y", "occu": 1 }],
        "abc": [0.666666999999996, 0.33333300000000304, 0.25],
        "properties": { "magmom": 0.002 },
        "label": "Y",
        "xyz": [3.579069875974538, -2.066380885536965, 1.3798343467775167]
      }
    ]
  },
  "task_ids": null,
  "uncorrected_energy_per_atom": null,
  "energy_per_atom": -32.47287018125,
  "formation_energy_per_atom": 0.0025641474999950004,
  "energy_above_hull": 0.0025641474999950004,
  "is_stable": false,
  "equilibrium_reaction_energy_per_atom": null,
  "decomposes_to": null,
  "xas": null,
  "grain_boundaries": null,
  "band_gap": 0.0,
  "cbm": null,
  "vbm": null,
  "efermi": 1.840753509999999,
  "is_gap_direct": null,
  "is_metal": null,
  "es_source_calc_id": null,
  "bandstructure": null,
  "dos": null,
  "dos_energy_up": null,
  "dos_energy_down": null,
  "is_magnetic": null,
  "ordering": null,
  "total_magnetization": 0.014750699999999001,
  "total_magnetization_normalized_vol": null,
  "total_magnetization_normalized_formula_units": null,
  "num_magnetic_sites": null,
  "num_unique_magnetic_sites": null,
  "types_of_magnetic_species": null,
  "bulk_modulus": null,
  "shear_modulus": null,
  "universal_anisotropy": null,
  "homogeneous_poisson": null,
  "e_total": null,
  "e_ionic": null,
  "e_electronic": null,
  "n": null,
  "e_ij_max": null,
  "weighted_surface_energy_EV_PER_ANG2": null,
  "weighted_surface_energy": null,
  "weighted_work_function": null,
  "surface_anisotropy": null,
  "shape_factor": null,
  "has_reconstructed": null,
  "possible_species": null,
  "has_props": null,
  "theoretical": null,
  "database_IDs": null,
  "fields_not_requested": [
    "builder_meta",
    "nsites",
    "elements",
    "nelements",
    "composition",
    "composition_reduced",
    "chemsys",
    "symmetry",
    "property_name",
    "deprecated",
    "deprecation_reasons",
    "last_updated",
    "origins",
    "warnings",
    "task_ids",
    "uncorrected_energy_per_atom",
    "equilibrium_reaction_energy_per_atom",
    "decomposes_to",
    "xas",
    "grain_boundaries",
    "cbm",
    "vbm",
    "is_gap_direct",
    "is_metal",
    "es_source_calc_id",
    "bandstructure",
    "dos",
    "dos_energy_up",
    "dos_energy_down",
    "is_magnetic",
    "ordering",
    "total_magnetization_normalized_vol",
    "total_magnetization_normalized_formula_units",
    "num_magnetic_sites",
    "num_unique_magnetic_sites",
    "types_of_magnetic_species",
    "bulk_modulus",
    "shear_modulus",
    "universal_anisotropy",
    "homogeneous_poisson",
    "e_total",
    "e_ionic",
    "e_electronic",
    "n",
    "e_ij_max",
    "weighted_surface_energy_EV_PER_ANG2",
    "weighted_surface_energy",
    "weighted_work_function",
    "surface_anisotropy",
    "shape_factor",
    "has_reconstructed",
    "possible_species",
    "has_props",
    "theoretical",
    "database_IDs"
  ]
}
