{"builder_meta": null, "nsites": null, "elements": null, "nelements": null, "composition": null, "composition_reduced": null, "formula_pretty": "Yb3Zr", "formula_anonymous": "AB3", "chemsys": null, "volume": 222.3894016249856, "density": 9.114643491635196, "density_atomic": 27.7986752031232, "symmetry": null, "property_name": null, "material_id": "mp-1187996", "deprecated": null, "deprecation_reasons": null, "last_updated": null, "origins": null, "warnings": null, "structure": {"@module": "pymatgen.core.structure", "@class": "Structure", "charge": 0.0, "lattice": {"matrix": [[3.4448436904868363, -5.9666451644752865, -0.0], [3.4448436904868363, 5.9666451644752865, 0.0], [-0.0, 0.0, 5.409839229267133]], "pbc": [true, true, true], "a": 6.889688133046611, "b": 6.889688133046611, "c": 5.409839229267133, "alpha": 90.0, "beta": 90.0, "gamma": 120.00000722191531, "volume": 222.38940162498568}, "properties": {}, "sites": [{"species": [{"element": "Yb", "occu": 1}], "abc": [0.16893176543548802, 0.33786253086795803, 0.25], "properties": {"magmom": -0.28700000000000003}, "label": "Yb", "xyz": [1.7458271339956422, 1.007949934698756, 1.3524598073167833]}, {"species": [{"element": "Yb", "occu": 1}], "abc": [0.6621374691320411, 0.8310682345645121, 0.25], "properties": {"magmom": -0.28700000000000003}, "label": "Yb", "xyz": [5.1438602469780275, 1.007949934698762, 1.3524598073167833]}, {"species": [{"element": "Yb", "occu": 1}], "abc": [0.168931765432482, 0.8310682345675171, 0.25], "properties": {"magmom": -0.28700000000000003}, "label": "Yb", "xyz": [3.444843690486833, 3.9507333617872966, 1.3524598073167833]}, {"species": [{"element": "Yb", "occu": 1}], "abc": [0.8310682345645121, 0.6621374691320411, 0.75], "properties": {"magmom": -0.28700000000000003}, "label": "Yb", "xyz": [5.1438602469780275, -1.007949934698762, 4.057379421950349]}, {"species": [{"element": "Yb", "occu": 1}], "abc": [0.33786253086795803, 0.16893176543548802, 0.75], "properties": {"magmom": -0.28700000000000003}, "label": "Yb", "xyz": [1.7458271339956422, -1.007949934698756, 4.057379421950349]}, {"species": [{"element": "Yb", "occu": 1}], "abc": [0.8310682345675171, 0.168931765432482, 0.75], "properties": {"magmom": -0.28700000000000003}, "label": "Yb", "xyz": [3.444843690486833, -3.9507333617872966, 4.057379421950349]}, {"species": [{"element": "Zr", "occu": 1}], "abc": [0.33333300000000304, 0.666666999999996, 0.75], "properties": {"magmom": -0.482}, "label": "Zr", "xyz": [3.444843690486833, 1.9888856992551631, 4.057379421950349]}, {"species": [{"element": "Zr", "occu": 1}], "abc": [0.666666999999996, 0.33333300000000304, 0.25], "properties": {"magmom": -0.482}, "label": "Zr", "xyz": [3.444843690486833, -1.9888856992551631, 1.3524598073167833]}]}, "task_ids": null, "uncorrected_energy_per_atom": null, "energy_per_atom": -33.06455897125, "formation_energy_per_atom": 0.019923093749994, "energy_above_hull": 0.019923093749994, "is_stable": false, "equilibrium_reaction_energy_per_atom": null, "decomposes_to": null, "xas": null, "grain_boundaries": null, "band_gap": 0.0, "cbm": null, "vbm": null, "efermi": 1.80706092, "is_gap_direct": null, "is_metal": null, "es_source_calc_id": null, "bandstructure": null, "dos": null, "dos_energy_up": null, "dos_energy_down": null, "is_magnetic": null, "ordering": null, "total_magnetization": 3.2213272, "total_magnetization_normalized_vol": null, "total_magnetization_normalized_formula_units": null, "num_magnetic_sites": null, "num_unique_magnetic_sites": null, "types_of_magnetic_species": null, "bulk_modulus": null, "shear_modulus": null, "universal_anisotropy": null, "homogeneous_poisson": null, "e_total": null, "e_ionic": null, "e_electronic": null, "n": null, "e_ij_max": null, "weighted_surface_energy_EV_PER_ANG2": null, "weighted_surface_energy": null, "weighted_work_function": null, "surface_anisotropy": null, "shape_factor": null, "has_reconstructed": null, "possible_species": null, "has_props": null, "theoretical": null, "database_IDs": null, "fields_not_requested": ["builder_meta", "nsites", "elements", "nelements", "composition", "composition_reduced", "chemsys", "symmetry", "property_name", "deprecated", "deprecation_reasons", "last_updated", "origins", "warnings", "task_ids", "uncorrected_energy_per_atom", "equilibrium_reaction_energy_per_atom", "decomposes_to", "xas", "grain_boundaries", "cbm", "vbm", "is_gap_direct", "is_metal", "es_source_calc_id", "bandstructure", "dos", "dos_energy_up", "dos_energy_down", "is_magnetic", "ordering", "total_magnetization_normalized_vol", "total_magnetization_normalized_formula_units", "num_magnetic_sites", "num_unique_magnetic_sites", "types_of_magnetic_species", "bulk_modulus", "shear_modulus", "universal_anisotropy", "homogeneous_poisson", "e_total", "e_ionic", "e_electronic", "n", "e_ij_max", "weighted_surface_energy_EV_PER_ANG2", "weighted_surface_energy", "weighted_work_function", "surface_anisotropy", "shape_factor", "has_reconstructed", "possible_species", "has_props", "theoretical", "database_IDs"]}