{
  "builder_meta": null,
  "nsites": null,
  "elements": null,
  "nelements": null,
  "composition": null,
  "composition_reduced": null,
  "formula_pretty": "YB4",
  "formula_anonymous": "AB4",
  "chemsys": null,
  "volume": 202.83094577640173,
  "density": 4.327544551554532,
  "density_atomic": 10.141547288820087,
  "symmetry": null,
  "property_name": null,
  "material_id": "mp-637",
  "deprecated": null,
  "deprecation_reasons": null,
  "last_updated": null,
  "origins": null,
  "warnings": null,
  "structure": {
    "@module": "pymatgen.core.structure",
    "@class": "Structure",
    "charge": 0,
    "lattice": {
      "matrix": [
        [4.0189614, 0.0, 0.0],
        [0.0, 7.10411839, 0.0],
        [0.0, 0.0, 7.10411839]
      ],
      "pbc": [true, true, true],
      "a": 4.0189614,
      "b": 7.10411839,
      "c": 7.10411839,
      "alpha": 90.0,
      "beta": 90.0,
      "gamma": 90.0,
      "volume": 202.83094577640173
    },
    "properties": {},
    "sites": [
      {
        "species": [{ "element": "Y", "occu": 1 }],
        "abc": [-0.0, 0.6822951700000001, 0.18229517],
        "properties": { "magmom": 0.0 },
        "label": "Y",
        "xyz": [0.0, 4.847105664605177, 1.2950464696051764]
      },
      {
        "species": [{ "element": "Y", "occu": 1 }],
        "abc": [-0.0, 0.81770483, 0.6822951700000001],
        "properties": { "magmom": 0.0 },
        "label": "Y",
        "xyz": [0.0, 5.809071920394824, 4.847105664605177]
      },
      {
        "species": [{ "element": "Y", "occu": 1 }],
        "abc": [-0.0, 0.18229517, 0.31770483],
        "properties": { "magmom": 0.0 },
        "label": "Y",
        "xyz": [0.0, 1.2950464696051764, 2.257012725394824]
      },
      {
        "species": [{ "element": "Y", "occu": 1 }],
        "abc": [-0.0, 0.31770483, 0.81770483],
        "properties": { "magmom": 0.0 },
        "label": "Y",
        "xyz": [0.0, 2.257012725394824, 5.809071920394824]
      },
      {
        "species": [{ "element": "B", "occu": 1 }],
        "abc": [0.5, 0.46169713, 0.32422319],
        "properties": { "magmom": 0.0 },
        "label": "B",
        "xyz": [2.0094807, 3.2799510718432208, 2.303319926543464]
      },
      {
        "species": [{ "element": "B", "occu": 1 }],
        "abc": [0.5, 0.53830287, 0.67577681],
        "properties": { "magmom": 0.0 },
        "label": "B",
        "xyz": [2.0094807, 3.8241673181567792, 4.800798463456536]
      },
      {
        "species": [{ "element": "B", "occu": 1 }],
        "abc": [0.5, 0.32422319, 0.53830287],
        "properties": { "magmom": 0.0 },
        "label": "B",
        "xyz": [2.0094807, 2.303319926543464, 3.8241673181567792]
      },
      {
        "species": [{ "element": "B", "occu": 1 }],
        "abc": [0.5, 0.67577681, 0.46169713],
        "properties": { "magmom": 0.0 },
        "label": "B",
        "xyz": [2.0094807, 4.800798463456536, 3.2799510718432208]
      },
      {
        "species": [{ "element": "B", "occu": 1 }],
        "abc": [0.20303487, -0.0, 0.0],
        "properties": { "magmom": 0.0 },
        "label": "B",
        "xyz": [0.815989305384018, 0.0, 0.0]
      },
      {
        "species": [{ "element": "B", "occu": 1 }],
        "abc": [0.79696513, 0.5, 0.5],
        "properties": { "magmom": 0.0 },
        "label": "B",
        "xyz": [3.202972094615982, 3.552059195, 3.552059195]
      },
      {
        "species": [{ "element": "B", "occu": 1 }],
        "abc": [0.79696513, -0.0, 0.0],
        "properties": { "magmom": 0.0 },
        "label": "B",
        "xyz": [3.202972094615982, 0.0, 0.0]
      },
      {
        "species": [{ "element": "B", "occu": 1 }],
        "abc": [0.20303487, 0.5, 0.5],
        "properties": { "magmom": 0.0 },
        "label": "B",
        "xyz": [0.815989305384018, 3.552059195, 3.552059195]
      },
      {
        "species": [{ "element": "B", "occu": 1 }],
        "abc": [0.5, 0.08716979, 0.58716979],
        "properties": { "magmom": -0.0 },
        "label": "B",
        "xyz": [2.0094807, 0.6192645081914381, 4.1713237031914385]
      },
      {
        "species": [{ "element": "B", "occu": 1 }],
        "abc": [0.5, 0.41283021000000003, 0.08716979],
        "properties": { "magmom": -0.0 },
        "label": "B",
        "xyz": [2.0094807, 2.932794686808562, 0.6192645081914381]
      },
      {
        "species": [{ "element": "B", "occu": 1 }],
        "abc": [0.5, 0.58716979, 0.91283021],
        "properties": { "magmom": -0.0 },
        "label": "B",
        "xyz": [2.0094807, 4.1713237031914385, 6.4848538818085615]
      },
      {
        "species": [{ "element": "B", "occu": 1 }],
        "abc": [0.5, 0.91283021, 0.41283021000000003],
        "properties": { "magmom": -0.0 },
        "label": "B",
        "xyz": [2.0094807, 6.4848538818085615, 2.932794686808562]
      },
      {
        "species": [{ "element": "B", "occu": 1 }],
        "abc": [0.5, 0.17577681, 0.03830287],
        "properties": { "magmom": 0.0 },
        "label": "B",
        "xyz": [2.0094807, 1.248739268456536, 0.27210812315677935]
      },
      {
        "species": [{ "element": "B", "occu": 1 }],
        "abc": [0.5, 0.96169713, 0.17577681],
        "properties": { "magmom": 0.0 },
        "label": "B",
        "xyz": [2.0094807, 6.832010266843221, 1.248739268456536]
      },
      {
        "species": [{ "element": "B", "occu": 1 }],
        "abc": [0.5, 0.03830287, 0.82422319],
        "properties": { "magmom": 0.0 },
        "label": "B",
        "xyz": [2.0094807, 0.27210812315677935, 5.855379121543464]
      },
      {
        "species": [{ "element": "B", "occu": 1 }],
        "abc": [0.5, 0.82422319, 0.96169713],
        "properties": { "magmom": 0.0 },
        "label": "B",
        "xyz": [2.0094807, 5.855379121543464, 6.832010266843221]
      }
    ]
  },
  "task_ids": null,
  "uncorrected_energy_per_atom": null,
  "energy_per_atom": -10.5992859035,
  "formation_energy_per_atom": -0.6594823535000001,
  "energy_above_hull": 0.0,
  "is_stable": true,
  "equilibrium_reaction_energy_per_atom": null,
  "decomposes_to": null,
  "xas": null,
  "grain_boundaries": null,
  "band_gap": 0.0,
  "cbm": null,
  "vbm": null,
  "efermi": 6.01879864,
  "is_gap_direct": null,
  "is_metal": null,
  "es_source_calc_id": null,
  "bandstructure": null,
  "dos": null,
  "dos_energy_up": null,
  "dos_energy_down": null,
  "is_magnetic": null,
  "ordering": null,
  "total_magnetization": 0.0,
  "total_magnetization_normalized_vol": null,
  "total_magnetization_normalized_formula_units": null,
  "num_magnetic_sites": null,
  "num_unique_magnetic_sites": null,
  "types_of_magnetic_species": null,
  "bulk_modulus": null,
  "shear_modulus": null,
  "universal_anisotropy": null,
  "homogeneous_poisson": null,
  "e_total": null,
  "e_ionic": null,
  "e_electronic": null,
  "n": null,
  "e_ij_max": null,
  "weighted_surface_energy_EV_PER_ANG2": null,
  "weighted_surface_energy": null,
  "weighted_work_function": null,
  "surface_anisotropy": null,
  "shape_factor": null,
  "has_reconstructed": null,
  "possible_species": null,
  "has_props": null,
  "theoretical": null,
  "database_IDs": null,
  "fields_not_requested": [
    "builder_meta",
    "nsites",
    "elements",
    "nelements",
    "composition",
    "composition_reduced",
    "chemsys",
    "symmetry",
    "property_name",
    "deprecated",
    "deprecation_reasons",
    "last_updated",
    "origins",
    "warnings",
    "task_ids",
    "uncorrected_energy_per_atom",
    "equilibrium_reaction_energy_per_atom",
    "decomposes_to",
    "xas",
    "grain_boundaries",
    "cbm",
    "vbm",
    "is_gap_direct",
    "is_metal",
    "es_source_calc_id",
    "bandstructure",
    "dos",
    "dos_energy_up",
    "dos_energy_down",
    "is_magnetic",
    "ordering",
    "total_magnetization_normalized_vol",
    "total_magnetization_normalized_formula_units",
    "num_magnetic_sites",
    "num_unique_magnetic_sites",
    "types_of_magnetic_species",
    "bulk_modulus",
    "shear_modulus",
    "universal_anisotropy",
    "homogeneous_poisson",
    "e_total",
    "e_ionic",
    "e_electronic",
    "n",
    "e_ij_max",
    "weighted_surface_energy_EV_PER_ANG2",
    "weighted_surface_energy",
    "weighted_work_function",
    "surface_anisotropy",
    "shape_factor",
    "has_reconstructed",
    "possible_species",
    "has_props",
    "theoretical",
    "database_IDs"
  ]
}
