{"builder_meta": null, "nsites": null, "elements": null, "nelements": null, "composition": null, "composition_reduced": null, "formula_pretty": "Yb4Co", "formula_anonymous": "AB4", "chemsys": null, "volume": 275.64599125710475, "density": 9.04943030201071, "density_atomic": 27.564599125710476, "symmetry": null, "property_name": null, "material_id": "mp-1207631", "deprecated": null, "deprecation_reasons": null, "last_updated": null, "origins": null, "warnings": null, "structure": {"@module": "pymatgen.core.structure", "@class": "Structure", "charge": 0.0, "lattice": {"matrix": [[0.0, 5.165438895208446, 5.165438895208446], [5.165438895208446, -0.0, 5.165438895208446], [5.165438895208446, 5.165438895208446, -0.0]], "pbc": [true, true, true], "a": 7.305033741213281, "b": 7.305033741213281, "c": 7.305033741213281, "alpha": 59.99999999999999, "beta": 59.99999999999999, "gamma": 59.99999999999999, "volume": 275.64599125710475}, "properties": {}, "sites": [{"species": [{"element": "Yb", "occu": 1}], "abc": [0.38503230272328104, 0.38503230272328104, 0.38503230272328104], "properties": {"magmom": -0.0}, "label": "Yb", "xyz": [3.9777216647970177, 3.9777216647970177, 3.9777216647970177]}, {"species": [{"element": "Yb", "occu": 1}], "abc": [0.38503230272328104, 0.38503230272328104, 0.8449020918301641], "properties": {"magmom": -0.0}, "label": "Yb", "xyz": [6.353150960181017, 6.353150960181017, 3.9777216647970177]}, {"species": [{"element": "Yb", "occu": 1}], "abc": [0.38503230272328104, 0.8449020918301641, 0.38503230272328104], "properties": {"magmom": -0.0}, "label": "Yb", "xyz": [6.353150960181017, 3.9777216647970177, 6.353150960181017]}, {"species": [{"element": "Yb", "occu": 1}], "abc": [0.8649676972767181, 0.8649676972767181, 0.40509790816983504], "properties": {"magmom": -0.0}, "label": "Yb", "xyz": [6.560446277840089, 6.560446277840089, 8.935875573224088]}, {"species": [{"element": "Yb", "occu": 1}], "abc": [0.8649676972767181, 0.8649676972767181, 0.8649676972767181], "properties": {"magmom": -0.0}, "label": "Yb", "xyz": [8.935875573224088, 8.935875573224088, 8.935875573224088]}, {"species": [{"element": "Yb", "occu": 1}], "abc": [0.8449020918301641, 0.38503230272328104, 0.38503230272328104], "properties": {"magmom": -0.0}, "label": "Yb", "xyz": [3.9777216647970177, 6.353150960181017, 6.353150960181017]}, {"species": [{"element": "Yb", "occu": 1}], "abc": [0.8649676972767181, 0.40509790816983504, 0.8649676972767181], "properties": {"magmom": -0.0}, "label": "Yb", "xyz": [6.560446277840089, 8.935875573224088, 6.560446277840089]}, {"species": [{"element": "Yb", "occu": 1}], "abc": [0.40509790816983504, 0.8649676972767181, 0.8649676972767181], "properties": {"magmom": -0.0}, "label": "Yb", "xyz": [8.935875573224088, 6.560446277840089, 6.560446277840089]}, {"species": [{"element": "Co", "occu": 1}], "abc": [0.0, 0.0, 0.0], "properties": {"magmom": 0.0}, "label": "Co", "xyz": [0.0, 0.0, 0.0]}, {"species": [{"element": "Co", "occu": 1}], "abc": [0.25, 0.25, 0.25], "properties": {"magmom": 0.0}, "label": "Co", "xyz": [2.582719447604223, 2.582719447604223, 2.582719447604223]}]}, "task_ids": null, "uncorrected_energy_per_atom": null, "energy_per_atom": -31.516705956, "formation_energy_per_atom": 0.35364329800000205, "energy_above_hull": 0.473180562500001, "is_stable": false, "equilibrium_reaction_energy_per_atom": null, "decomposes_to": null, "xas": null, "grain_boundaries": null, "band_gap": 0.0, "cbm": null, "vbm": null, "efermi": 1.3421369300000001, "is_gap_direct": null, "is_metal": null, "es_source_calc_id": null, "bandstructure": null, "dos": null, "dos_energy_up": null, "dos_energy_down": null, "is_magnetic": null, "ordering": null, "total_magnetization": 9e-07, "total_magnetization_normalized_vol": null, "total_magnetization_normalized_formula_units": null, "num_magnetic_sites": null, "num_unique_magnetic_sites": null, "types_of_magnetic_species": null, "bulk_modulus": null, "shear_modulus": null, "universal_anisotropy": null, "homogeneous_poisson": null, "e_total": null, "e_ionic": null, "e_electronic": null, "n": null, "e_ij_max": null, "weighted_surface_energy_EV_PER_ANG2": null, "weighted_surface_energy": null, "weighted_work_function": null, "surface_anisotropy": null, "shape_factor": null, "has_reconstructed": null, "possible_species": null, "has_props": null, "theoretical": null, "database_IDs": null, "fields_not_requested": ["builder_meta", "nsites", "elements", "nelements", "composition", "composition_reduced", "chemsys", "symmetry", "property_name", "deprecated", "deprecation_reasons", "last_updated", "origins", "warnings", "task_ids", "uncorrected_energy_per_atom", "equilibrium_reaction_energy_per_atom", "decomposes_to", "xas", "grain_boundaries", "cbm", "vbm", "is_gap_direct", "is_metal", "es_source_calc_id", "bandstructure", "dos", "dos_energy_up", "dos_energy_down", "is_magnetic", "ordering", "total_magnetization_normalized_vol", "total_magnetization_normalized_formula_units", "num_magnetic_sites", "num_unique_magnetic_sites", "types_of_magnetic_species", "bulk_modulus", "shear_modulus", "universal_anisotropy", "homogeneous_poisson", "e_total", "e_ionic", "e_electronic", "n", "e_ij_max", "weighted_surface_energy_EV_PER_ANG2", "weighted_surface_energy", "weighted_work_function", "surface_anisotropy", "shape_factor", "has_reconstructed", "possible_species", "has_props", "theoretical", "database_IDs"]}