{
  "builder_meta": null,
  "nsites": null,
  "elements": null,
  "nelements": null,
  "composition": null,
  "composition_reduced": null,
  "formula_pretty": "Yb4Ir",
  "formula_anonymous": "AB4",
  "chemsys": null,
  "volume": 301.98295139794374,
  "density": 9.725996459762447,
  "density_atomic": 30.198295139794375,
  "symmetry": null,
  "property_name": null,
  "material_id": "mp-1207594",
  "deprecated": null,
  "deprecation_reasons": null,
  "last_updated": null,
  "origins": null,
  "warnings": null,
  "structure": {
    "@module": "pymatgen.core.structure",
    "@class": "Structure",
    "charge": 0.0,
    "lattice": {
      "matrix": [
        [-5.324973815460118, -5.324973815460118, 0.0],
        [-5.324973815460118, 0.0, -5.324973815460118],
        [-0.0, -5.324973815460118, -5.324973815460118]
      ],
      "pbc": [true, true, true],
      "a": 7.530650189105306,
      "b": 7.530650189105306,
      "c": 7.530650189105306,
      "alpha": 60.00000000000001,
      "beta": 60.00000000000001,
      "gamma": 60.00000000000001,
      "volume": 301.98295139794374
    },
    "properties": {},
    "sites": [
      {
        "species": [{ "element": "Yb", "occu": 1 }],
        "abc": [0.6122556947045721, 0.6122556947045721, 0.6122556947045721],
        "properties": { "magmom": -0.0 },
        "label": "Yb",
        "xyz": [-6.52049108533638, -6.52049108533638, -6.52049108533638]
      },
      {
        "species": [{ "element": "Yb", "occu": 1 }],
        "abc": [0.16323191588629202, 0.6122556947045721, 0.6122556947045721],
        "properties": { "magmom": -0.0 },
        "label": "Yb",
        "xyz": [-4.1294512206100835, -4.1294512206100835, -6.52049108533638]
      },
      {
        "species": [{ "element": "Yb", "occu": 1 }],
        "abc": [0.6122556947045721, 0.16323191588629202, 0.6122556947045721],
        "properties": { "magmom": -0.0 },
        "label": "Yb",
        "xyz": [-4.1294512206100835, -6.52049108533638, -4.1294512206100835]
      },
      {
        "species": [{ "element": "Yb", "occu": 1 }],
        "abc": [0.5867680841137071, 0.137744305295427, 0.137744305295427],
        "properties": { "magmom": -0.0 },
        "label": "Yb",
        "xyz": [-3.8580095025800833, -3.8580095025800833, -1.4669696378537864]
      },
      {
        "species": [{ "element": "Yb", "occu": 1 }],
        "abc": [0.137744305295427, 0.137744305295427, 0.137744305295427],
        "properties": { "magmom": -0.0 },
        "label": "Yb",
        "xyz": [-1.4669696378537864, -1.4669696378537864, -1.4669696378537864]
      },
      {
        "species": [{ "element": "Yb", "occu": 1 }],
        "abc": [0.6122556947045721, 0.6122556947045721, 0.16323191588629202],
        "properties": { "magmom": -0.0 },
        "label": "Yb",
        "xyz": [-6.52049108533638, -4.1294512206100835, -4.1294512206100835]
      },
      {
        "species": [{ "element": "Yb", "occu": 1 }],
        "abc": [0.137744305295427, 0.5867680841137071, 0.137744305295427],
        "properties": { "magmom": -0.0 },
        "label": "Yb",
        "xyz": [-3.8580095025800833, -1.4669696378537864, -3.8580095025800833]
      },
      {
        "species": [{ "element": "Yb", "occu": 1 }],
        "abc": [0.137744305295427, 0.137744305295427, 0.5867680841137071],
        "properties": { "magmom": -0.0 },
        "label": "Yb",
        "xyz": [-1.4669696378537864, -3.8580095025800833, -3.8580095025800833]
      },
      {
        "species": [{ "element": "Ir", "occu": 1 }],
        "abc": [0.0, 0.0, 0.0],
        "properties": { "magmom": -0.0 },
        "label": "Ir",
        "xyz": [0.0, 0.0, 0.0]
      },
      {
        "species": [{ "element": "Ir", "occu": 1 }],
        "abc": [0.75, 0.75, 0.75],
        "properties": { "magmom": -0.0 },
        "label": "Ir",
        "xyz": [-7.987460723190177, -7.987460723190177, -7.987460723190177]
      }
    ]
  },
  "task_ids": null,
  "uncorrected_energy_per_atom": null,
  "energy_per_atom": -39.64221933,
  "formation_energy_per_atom": 0.053154387999995,
  "energy_above_hull": 0.571798622333332,
  "is_stable": false,
  "equilibrium_reaction_energy_per_atom": null,
  "decomposes_to": null,
  "xas": null,
  "grain_boundaries": null,
  "band_gap": 0.0,
  "cbm": null,
  "vbm": null,
  "efermi": 2.4072904,
  "is_gap_direct": null,
  "is_metal": null,
  "es_source_calc_id": null,
  "bandstructure": null,
  "dos": null,
  "dos_energy_up": null,
  "dos_energy_down": null,
  "is_magnetic": null,
  "ordering": null,
  "total_magnetization": 8e-7,
  "total_magnetization_normalized_vol": null,
  "total_magnetization_normalized_formula_units": null,
  "num_magnetic_sites": null,
  "num_unique_magnetic_sites": null,
  "types_of_magnetic_species": null,
  "bulk_modulus": null,
  "shear_modulus": null,
  "universal_anisotropy": null,
  "homogeneous_poisson": null,
  "e_total": null,
  "e_ionic": null,
  "e_electronic": null,
  "n": null,
  "e_ij_max": null,
  "weighted_surface_energy_EV_PER_ANG2": null,
  "weighted_surface_energy": null,
  "weighted_work_function": null,
  "surface_anisotropy": null,
  "shape_factor": null,
  "has_reconstructed": null,
  "possible_species": null,
  "has_props": null,
  "theoretical": null,
  "database_IDs": null,
  "fields_not_requested": [
    "builder_meta",
    "nsites",
    "elements",
    "nelements",
    "composition",
    "composition_reduced",
    "chemsys",
    "symmetry",
    "property_name",
    "deprecated",
    "deprecation_reasons",
    "last_updated",
    "origins",
    "warnings",
    "task_ids",
    "uncorrected_energy_per_atom",
    "equilibrium_reaction_energy_per_atom",
    "decomposes_to",
    "xas",
    "grain_boundaries",
    "cbm",
    "vbm",
    "is_gap_direct",
    "is_metal",
    "es_source_calc_id",
    "bandstructure",
    "dos",
    "dos_energy_up",
    "dos_energy_down",
    "is_magnetic",
    "ordering",
    "total_magnetization_normalized_vol",
    "total_magnetization_normalized_formula_units",
    "num_magnetic_sites",
    "num_unique_magnetic_sites",
    "types_of_magnetic_species",
    "bulk_modulus",
    "shear_modulus",
    "universal_anisotropy",
    "homogeneous_poisson",
    "e_total",
    "e_ionic",
    "e_electronic",
    "n",
    "e_ij_max",
    "weighted_surface_energy_EV_PER_ANG2",
    "weighted_surface_energy",
    "weighted_work_function",
    "surface_anisotropy",
    "shape_factor",
    "has_reconstructed",
    "possible_species",
    "has_props",
    "theoretical",
    "database_IDs"
  ]
}
