{"builder_meta": null, "nsites": null, "elements": null, "nelements": null, "composition": null, "composition_reduced": null, "formula_pretty": "Yb4Ni", "formula_anonymous": "AB4", "chemsys": null, "volume": 281.41111636017985, "density": 8.861209323327667, "density_atomic": 28.141111636017985, "symmetry": null, "property_name": null, "material_id": "mp-1207772", "deprecated": null, "deprecation_reasons": null, "last_updated": null, "origins": null, "warnings": null, "structure": {"@module": "pymatgen.core.structure", "@class": "Structure", "charge": 0.0, "lattice": {"matrix": [[0.0, 5.201202362251257, 5.201202362251257], [5.201202362251257, 0.0, 5.201202362251257], [5.201202362251257, 5.201202362251257, -0.0]], "pbc": [true, true, true], "a": 7.355610921342707, "b": 7.355610921342707, "c": 7.355610921342707, "alpha": 59.99999999999999, "beta": 59.99999999999999, "gamma": 59.99999999999999, "volume": 281.41111636017985}, "properties": {}, "sites": [{"species": [{"element": "Yb", "occu": 1}], "abc": [0.38637774403746, 0.38637774403746, 0.38637774403746], "properties": {"magmom": -0.0}, "label": "Yb", "xyz": [4.019257670017897, 4.019257670017897, 4.019257670017897]}, {"species": [{"element": "Yb", "occu": 1}], "abc": [0.38637774403746, 0.38637774403746, 0.840866767887618], "properties": {"magmom": -0.0}, "label": "Yb", "xyz": [6.383147054484606, 6.383147054484606, 4.019257670017897]}, {"species": [{"element": "Yb", "occu": 1}], "abc": [0.38637774403746, 0.840866767887618, 0.38637774403746], "properties": {"magmom": -0.0}, "label": "Yb", "xyz": [6.383147054484606, 4.019257670017897, 6.383147054484606]}, {"species": [{"element": "Yb", "occu": 1}], "abc": [0.863622255962539, 0.863622255962539, 0.409133232112381], "properties": {"magmom": -0.0}, "label": "Yb", "xyz": [6.619858851143526, 6.619858851143526, 8.983748235610236]}, {"species": [{"element": "Yb", "occu": 1}], "abc": [0.863622255962539, 0.863622255962539, 0.863622255962539], "properties": {"magmom": -0.0}, "label": "Yb", "xyz": [8.983748235610236, 8.983748235610236, 8.983748235610236]}, {"species": [{"element": "Yb", "occu": 1}], "abc": [0.840866767887618, 0.38637774403746, 0.38637774403746], "properties": {"magmom": -0.0}, "label": "Yb", "xyz": [4.019257670017897, 6.383147054484606, 6.383147054484606]}, {"species": [{"element": "Yb", "occu": 1}], "abc": [0.863622255962539, 0.409133232112381, 0.863622255962539], "properties": {"magmom": -0.0}, "label": "Yb", "xyz": [6.619858851143526, 8.983748235610236, 6.619858851143526]}, {"species": [{"element": "Yb", "occu": 1}], "abc": [0.409133232112381, 0.863622255962539, 0.863622255962539], "properties": {"magmom": -0.0}, "label": "Yb", "xyz": [8.983748235610236, 6.619858851143526, 6.619858851143526]}, {"species": [{"element": "Ni", "occu": 1}], "abc": [0.0, 0.0, 0.0], "properties": {"magmom": 0.0}, "label": "Ni", "xyz": [0.0, 0.0, 0.0]}, {"species": [{"element": "Ni", "occu": 1}], "abc": [0.25, 0.25, 0.25], "properties": {"magmom": 0.0}, "label": "Ni", "xyz": [2.6006011811256284, 2.6006011811256284, 2.6006011811256284]}]}, "task_ids": null, "uncorrected_energy_per_atom": null, "energy_per_atom": -31.381144354000003, "formation_energy_per_atom": 0.23870210599999303, "energy_above_hull": 0.47531152249999603, "is_stable": false, "equilibrium_reaction_energy_per_atom": null, "decomposes_to": null, "xas": null, "grain_boundaries": null, "band_gap": 0.0, "cbm": null, "vbm": null, "efermi": 1.46432757, "is_gap_direct": null, "is_metal": null, "es_source_calc_id": null, "bandstructure": null, "dos": null, "dos_energy_up": null, "dos_energy_down": null, "is_magnetic": null, "ordering": null, "total_magnetization": 0.00035959999999900005, "total_magnetization_normalized_vol": null, "total_magnetization_normalized_formula_units": null, "num_magnetic_sites": null, "num_unique_magnetic_sites": null, "types_of_magnetic_species": null, "bulk_modulus": null, "shear_modulus": null, "universal_anisotropy": null, "homogeneous_poisson": null, "e_total": null, "e_ionic": null, "e_electronic": null, "n": null, "e_ij_max": null, "weighted_surface_energy_EV_PER_ANG2": null, "weighted_surface_energy": null, "weighted_work_function": null, "surface_anisotropy": null, "shape_factor": null, "has_reconstructed": null, "possible_species": null, "has_props": null, "theoretical": null, "database_IDs": null, "fields_not_requested": ["builder_meta", "nsites", "elements", "nelements", "composition", "composition_reduced", "chemsys", "symmetry", "property_name", "deprecated", "deprecation_reasons", "last_updated", "origins", "warnings", "task_ids", "uncorrected_energy_per_atom", "equilibrium_reaction_energy_per_atom", "decomposes_to", "xas", "grain_boundaries", "cbm", "vbm", "is_gap_direct", "is_metal", "es_source_calc_id", "bandstructure", "dos", "dos_energy_up", "dos_energy_down", "is_magnetic", "ordering", "total_magnetization_normalized_vol", "total_magnetization_normalized_formula_units", "num_magnetic_sites", "num_unique_magnetic_sites", "types_of_magnetic_species", "bulk_modulus", "shear_modulus", "universal_anisotropy", "homogeneous_poisson", "e_total", "e_ionic", "e_electronic", "n", "e_ij_max", "weighted_surface_energy_EV_PER_ANG2", "weighted_surface_energy", "weighted_work_function", "surface_anisotropy", "shape_factor", "has_reconstructed", "possible_species", "has_props", "theoretical", "database_IDs"]}