{
  "builder_meta": null,
  "nsites": null,
  "elements": null,
  "nelements": null,
  "composition": null,
  "composition_reduced": null,
  "formula_pretty": "Yb4Pt",
  "formula_anonymous": "AB4",
  "chemsys": null,
  "volume": 310.28788310144535,
  "density": 9.496363885564744,
  "density_atomic": 31.028788310144535,
  "symmetry": null,
  "property_name": null,
  "material_id": "mp-1207604",
  "deprecated": null,
  "deprecation_reasons": null,
  "last_updated": null,
  "origins": null,
  "warnings": null,
  "structure": {
    "@module": "pymatgen.core.structure",
    "@class": "Structure",
    "charge": 0.0,
    "lattice": {
      "matrix": [
        [-5.373347654934729, -5.373347654934729, 0.0],
        [-5.373347654934729, 0.0, -5.373347654934729],
        [-0.0, -5.373347654934729, -5.373347654934729]
      ],
      "pbc": [true, true, true],
      "a": 7.59906112895436,
      "b": 7.59906112895436,
      "c": 7.59906112895436,
      "alpha": 59.99999999999999,
      "beta": 59.99999999999999,
      "gamma": 59.99999999999999,
      "volume": 310.28788310144535
    },
    "properties": {},
    "sites": [
      {
        "species": [{ "element": "Yb", "occu": 1 }],
        "abc": [0.610884069614627, 0.610884069614627, 0.610884069614627],
        "properties": { "magmom": -0.23900000000000002 },
        "label": "Yb",
        "xyz": [-6.5649849658014805, -6.5649849658014805, -6.5649849658014805]
      },
      {
        "species": [{ "element": "Yb", "occu": 1 }],
        "abc": [0.167346791156113, 0.610884069614627, 0.610884069614627],
        "properties": { "magmom": -0.23900000000000002 },
        "label": "Yb",
        "xyz": [-4.181704970720292, -4.181704970720292, -6.5649849658014805]
      },
      {
        "species": [{ "element": "Yb", "occu": 1 }],
        "abc": [0.610884069614627, 0.167346791156113, 0.610884069614627],
        "properties": { "magmom": -0.23900000000000002 },
        "label": "Yb",
        "xyz": [-4.181704970720292, -6.5649849658014805, -4.181704970720292]
      },
      {
        "species": [{ "element": "Yb", "occu": 1 }],
        "abc": [0.582653208843886, 0.139115930385372, 0.139115930385372],
        "properties": { "magmom": -0.23900000000000002 },
        "label": "Yb",
        "xyz": [-3.878316511681792, -3.878316511681792, -1.4950365166006034]
      },
      {
        "species": [{ "element": "Yb", "occu": 1 }],
        "abc": [0.139115930385372, 0.139115930385372, 0.139115930385372],
        "properties": { "magmom": -0.23900000000000002 },
        "label": "Yb",
        "xyz": [-1.4950365166006034, -1.4950365166006034, -1.4950365166006034]
      },
      {
        "species": [{ "element": "Yb", "occu": 1 }],
        "abc": [0.610884069614627, 0.610884069614627, 0.167346791156113],
        "properties": { "magmom": -0.23900000000000002 },
        "label": "Yb",
        "xyz": [-6.5649849658014805, -4.181704970720292, -4.181704970720292]
      },
      {
        "species": [{ "element": "Yb", "occu": 1 }],
        "abc": [0.139115930385372, 0.582653208843886, 0.139115930385372],
        "properties": { "magmom": -0.23900000000000002 },
        "label": "Yb",
        "xyz": [-3.878316511681792, -1.4950365166006034, -3.878316511681792]
      },
      {
        "species": [{ "element": "Yb", "occu": 1 }],
        "abc": [0.139115930385372, 0.139115930385372, 0.582653208843886],
        "properties": { "magmom": -0.23900000000000002 },
        "label": "Yb",
        "xyz": [-1.4950365166006034, -3.878316511681792, -3.878316511681792]
      },
      {
        "species": [{ "element": "Pt", "occu": 1 }],
        "abc": [0.0, 0.0, 0.0],
        "properties": { "magmom": -0.047 },
        "label": "Pt",
        "xyz": [0.0, 0.0, 0.0]
      },
      {
        "species": [{ "element": "Pt", "occu": 1 }],
        "abc": [0.75, 0.75, 0.75],
        "properties": { "magmom": -0.047 },
        "label": "Pt",
        "xyz": [-8.060021482402094, -8.060021482402094, -8.060021482402094]
      }
    ]
  },
  "task_ids": null,
  "uncorrected_energy_per_atom": null,
  "energy_per_atom": -39.626783269,
  "formation_energy_per_atom": -0.105736860999996,
  "energy_above_hull": 0.525531682666667,
  "is_stable": false,
  "equilibrium_reaction_energy_per_atom": null,
  "decomposes_to": null,
  "xas": null,
  "grain_boundaries": null,
  "band_gap": 0.0,
  "cbm": null,
  "vbm": null,
  "efermi": 2.5498424,
  "is_gap_direct": null,
  "is_metal": null,
  "es_source_calc_id": null,
  "bandstructure": null,
  "dos": null,
  "dos_energy_up": null,
  "dos_energy_down": null,
  "is_magnetic": null,
  "ordering": null,
  "total_magnetization": 1.8084873,
  "total_magnetization_normalized_vol": null,
  "total_magnetization_normalized_formula_units": null,
  "num_magnetic_sites": null,
  "num_unique_magnetic_sites": null,
  "types_of_magnetic_species": null,
  "bulk_modulus": null,
  "shear_modulus": null,
  "universal_anisotropy": null,
  "homogeneous_poisson": null,
  "e_total": null,
  "e_ionic": null,
  "e_electronic": null,
  "n": null,
  "e_ij_max": null,
  "weighted_surface_energy_EV_PER_ANG2": null,
  "weighted_surface_energy": null,
  "weighted_work_function": null,
  "surface_anisotropy": null,
  "shape_factor": null,
  "has_reconstructed": null,
  "possible_species": null,
  "has_props": null,
  "theoretical": null,
  "database_IDs": null,
  "fields_not_requested": [
    "builder_meta",
    "nsites",
    "elements",
    "nelements",
    "composition",
    "composition_reduced",
    "chemsys",
    "symmetry",
    "property_name",
    "deprecated",
    "deprecation_reasons",
    "last_updated",
    "origins",
    "warnings",
    "task_ids",
    "uncorrected_energy_per_atom",
    "equilibrium_reaction_energy_per_atom",
    "decomposes_to",
    "xas",
    "grain_boundaries",
    "cbm",
    "vbm",
    "is_gap_direct",
    "is_metal",
    "es_source_calc_id",
    "bandstructure",
    "dos",
    "dos_energy_up",
    "dos_energy_down",
    "is_magnetic",
    "ordering",
    "total_magnetization_normalized_vol",
    "total_magnetization_normalized_formula_units",
    "num_magnetic_sites",
    "num_unique_magnetic_sites",
    "types_of_magnetic_species",
    "bulk_modulus",
    "shear_modulus",
    "universal_anisotropy",
    "homogeneous_poisson",
    "e_total",
    "e_ionic",
    "e_electronic",
    "n",
    "e_ij_max",
    "weighted_surface_energy_EV_PER_ANG2",
    "weighted_surface_energy",
    "weighted_work_function",
    "surface_anisotropy",
    "shape_factor",
    "has_reconstructed",
    "possible_species",
    "has_props",
    "theoretical",
    "database_IDs"
  ]
}
