{"builder_meta": null, "nsites": null, "elements": null, "nelements": null, "composition": null, "composition_reduced": null, "formula_pretty": "Yb4Rh", "formula_anonymous": "AB4", "chemsys": null, "volume": 291.3478846667139, "density": 9.062961447385428, "density_atomic": 29.13478846667139, "symmetry": null, "property_name": null, "material_id": "mp-1207616", "deprecated": null, "deprecation_reasons": null, "last_updated": null, "origins": null, "warnings": null, "structure": {"@module": "pymatgen.core.structure", "@class": "Structure", "charge": 0.0, "lattice": {"matrix": [[-5.261714640171888, -5.261714640171888, -0.0], [-5.261714640171888, -0.0, -5.261714640171888], [0.0, -5.261714640171888, -5.261714640171888]], "pbc": [true, true, true], "a": 7.441188205468155, "b": 7.441188205468155, "c": 7.441188205468155, "alpha": 60.00000000000001, "beta": 60.00000000000001, "gamma": 60.00000000000001, "volume": 291.3478846667139}, "properties": {}, "sites": [{"species": [{"element": "Yb", "occu": 1}], "abc": [0.611724659997811, 0.611724659997811, 0.611724659997811], "properties": {"magmom": 0.0}, "label": "Yb", "xyz": [-6.437441198529306, -6.437441198529306, -6.437441198529306]}, {"species": [{"element": "Yb", "occu": 1}], "abc": [0.16482502000655302, 0.611724659997811, 0.611724659997811], "properties": {"magmom": 0.0}, "label": "Yb", "xyz": [-4.085982820099757, -4.085982820099757, -6.437441198529306]}, {"species": [{"element": "Yb", "occu": 1}], "abc": [0.611724659997811, 0.16482502000655302, 0.611724659997811], "properties": {"magmom": 0.0}, "label": "Yb", "xyz": [-4.085982820099757, -6.437441198529306, -4.085982820099757]}, {"species": [{"element": "Yb", "occu": 1}], "abc": [0.585174979993446, 0.13827534000218802, 0.13827534000218802], "properties": {"magmom": 0.0}, "label": "Yb", "xyz": [-3.806589140158065, -3.806589140158065, -1.4551307617285165]}, {"species": [{"element": "Yb", "occu": 1}], "abc": [0.13827534000218802, 0.13827534000218802, 0.13827534000218802], "properties": {"magmom": 0.0}, "label": "Yb", "xyz": [-1.4551307617285165, -1.4551307617285165, -1.4551307617285165]}, {"species": [{"element": "Yb", "occu": 1}], "abc": [0.611724659997811, 0.611724659997811, 0.16482502000655302], "properties": {"magmom": 0.0}, "label": "Yb", "xyz": [-6.437441198529306, -4.085982820099757, -4.085982820099757]}, {"species": [{"element": "Yb", "occu": 1}], "abc": [0.13827534000218802, 0.585174979993446, 0.13827534000218802], "properties": {"magmom": 0.0}, "label": "Yb", "xyz": [-3.806589140158065, -1.4551307617285165, -3.806589140158065]}, {"species": [{"element": "Yb", "occu": 1}], "abc": [0.13827534000218802, 0.13827534000218802, 0.585174979993446], "properties": {"magmom": 0.0}, "label": "Yb", "xyz": [-1.4551307617285165, -3.806589140158065, -3.806589140158065]}, {"species": [{"element": "Rh", "occu": 1}], "abc": [0.0, 0.0, 0.0], "properties": {"magmom": -0.0}, "label": "Rh", "xyz": [0.0, 0.0, 0.0]}, {"species": [{"element": "Rh", "occu": 1}], "abc": [0.75, 0.75, 0.75], "properties": {"magmom": -0.0}, "label": "Rh", "xyz": [-7.892571960257833, -7.892571960257833, -7.892571960257833]}]}, "task_ids": null, "uncorrected_energy_per_atom": null, "energy_per_atom": -34.010980809, "formation_energy_per_atom": 0.039767944999999, "energy_above_hull": 0.475889703999996, "is_stable": false, "equilibrium_reaction_energy_per_atom": null, "decomposes_to": null, "xas": null, "grain_boundaries": null, "band_gap": 0.0, "cbm": null, "vbm": null, "efermi": 2.78363996, "is_gap_direct": null, "is_metal": null, "es_source_calc_id": null, "bandstructure": null, "dos": null, "dos_energy_up": null, "dos_energy_down": null, "is_magnetic": null, "ordering": null, "total_magnetization": 4.5600000000000024e-05, "total_magnetization_normalized_vol": null, "total_magnetization_normalized_formula_units": null, "num_magnetic_sites": null, "num_unique_magnetic_sites": null, "types_of_magnetic_species": null, "bulk_modulus": null, "shear_modulus": null, "universal_anisotropy": null, "homogeneous_poisson": null, "e_total": null, "e_ionic": null, "e_electronic": null, "n": null, "e_ij_max": null, "weighted_surface_energy_EV_PER_ANG2": null, "weighted_surface_energy": null, "weighted_work_function": null, "surface_anisotropy": null, "shape_factor": null, "has_reconstructed": null, "possible_species": null, "has_props": null, "theoretical": null, "database_IDs": null, "fields_not_requested": ["builder_meta", "nsites", "elements", "nelements", "composition", "composition_reduced", "chemsys", "symmetry", "property_name", "deprecated", "deprecation_reasons", "last_updated", "origins", "warnings", "task_ids", "uncorrected_energy_per_atom", "equilibrium_reaction_energy_per_atom", "decomposes_to", "xas", "grain_boundaries", "cbm", "vbm", "is_gap_direct", "is_metal", "es_source_calc_id", "bandstructure", "dos", "dos_energy_up", "dos_energy_down", "is_magnetic", "ordering", "total_magnetization_normalized_vol", "total_magnetization_normalized_formula_units", "num_magnetic_sites", "num_unique_magnetic_sites", "types_of_magnetic_species", "bulk_modulus", "shear_modulus", "universal_anisotropy", "homogeneous_poisson", "e_total", "e_ionic", "e_electronic", "n", "e_ij_max", "weighted_surface_energy_EV_PER_ANG2", "weighted_surface_energy", "weighted_work_function", "surface_anisotropy", "shape_factor", "has_reconstructed", "possible_species", "has_props", "theoretical", "database_IDs"]}