{"builder_meta": null, "nsites": null, "elements": null, "nelements": null, "composition": null, "composition_reduced": null, "formula_pretty": "Yb4S7", "formula_anonymous": "A4B7", "chemsys": null, "volume": 218.27767549189934, "density": 6.9731135495258005, "density_atomic": 19.84342504471812, "symmetry": null, "property_name": null, "material_id": "mp-1215747", "deprecated": null, "deprecation_reasons": null, "last_updated": null, "origins": null, "warnings": null, "structure": {"@module": "pymatgen.core.structure", "@class": "Structure", "charge": 0.0, "lattice": {"matrix": [[-2.663140006416039, 2.663140006416039, 7.6941620936365975], [2.663140006416039, -2.663140006416039, 7.6941620936365975], [2.663140006416039, 2.663140006416039, -7.6941620936365975]], "pbc": [true, true, true], "a": 8.566490513080696, "b": 8.566490513080696, "c": 8.566490513080696, "alpha": 143.775605940562, "beta": 143.775605940562, "gamma": 52.162972157635174, "volume": 218.27767549189937}, "properties": {}, "sites": [{"species": [{"element": "Yb", "occu": 1}], "abc": [0.621831045816435, 0.621831045816435, 0.5139963594572731], "properties": {"magmom": -0.0}, "label": "Yb", "xyz": [1.368844268022863, 1.368844268022863, 5.614166417531071]}, {"species": [{"element": "Yb", "occu": 1}], "abc": [0.10783368635915701, 0.10783368635915701, 0.48600364054272605], "properties": {"magmom": -0.0}, "label": "Yb", "xyz": [1.2942957383931737, 1.2942957383931737, -2.0800110644297822]}, {"species": [{"element": "Yb", "occu": 1}], "abc": [0.37816895418356405, 0.8921663136408421, 0.0], "properties": {"magmom": -0.0}, "label": "Yb", "xyz": [1.3688469311628826, -1.3688469311628826, 9.774165463904241]}, {"species": [{"element": "Yb", "occu": 1}], "abc": [0.8921663136408421, 0.37816895418356405, 0.0], "properties": {"magmom": -0.0}, "label": "Yb", "xyz": [-1.3688469311628826, 1.3688469311628826, 9.774165463904241]}, {"species": [{"element": "S", "occu": 1}], "abc": [0.44164822208333004, 0.44164822208333004, 0.517602429292587], "properties": {"magmom": -0.0}, "label": "S", "xyz": [1.3784477368672177, 1.3784477368672177, 2.813709027113871]}, {"species": [{"element": "S", "occu": 1}], "abc": [0.9240457927907281, 0.9240457927907281, 0.482397570707412], "properties": {"magmom": -0.0}, "label": "S", "xyz": [1.284692269548819, 1.284692269548819, 10.507871120750245]}, {"species": [{"element": "S", "occu": 1}], "abc": [0.558351777916669, 0.075954207209271, 0.0], "properties": {"magmom": -0.0}, "label": "S", "xyz": [-1.2846922695487817, 1.2846922695487817, 4.880453066522827]}, {"species": [{"element": "S", "occu": 1}], "abc": [0.075954207209271, 0.558351777916669, 0.0], "properties": {"magmom": -0.0}, "label": "S", "xyz": [1.2846922695487817, -1.2846922695487817, 4.880453066522827]}, {"species": [{"element": "S", "occu": 1}], "abc": [0.0, 0.0, 0.0], "properties": {"magmom": 0.0}, "label": "S", "xyz": [0.0, 0.0, 0.0]}, {"species": [{"element": "S", "occu": 1}], "abc": [0.0, 0.5, 0.5], "properties": {"magmom": -0.0}, "label": "S", "xyz": [2.663140006416039, 0.0, 0.0]}, {"species": [{"element": "S", "occu": 1}], "abc": [0.5, 0.0, 0.5], "properties": {"magmom": -0.0}, "label": "S", "xyz": [0.0, 2.663140006416039, 0.0]}]}, "task_ids": null, "uncorrected_energy_per_atom": null, "energy_per_atom": -20.473612834545456, "formation_energy_per_atom": -2.077021133153408, "energy_above_hull": 0.04217503747159, "is_stable": false, "equilibrium_reaction_energy_per_atom": null, "decomposes_to": null, "xas": null, "grain_boundaries": null, "band_gap": 0.0, "cbm": null, "vbm": null, "efermi": 2.51461918, "is_gap_direct": null, "is_metal": null, "es_source_calc_id": null, "bandstructure": null, "dos": null, "dos_energy_up": null, "dos_energy_down": null, "is_magnetic": null, "ordering": null, "total_magnetization": 0.0, "total_magnetization_normalized_vol": null, "total_magnetization_normalized_formula_units": null, "num_magnetic_sites": null, "num_unique_magnetic_sites": null, "types_of_magnetic_species": null, "bulk_modulus": null, "shear_modulus": null, "universal_anisotropy": null, "homogeneous_poisson": null, "e_total": null, "e_ionic": null, "e_electronic": null, "n": null, "e_ij_max": null, "weighted_surface_energy_EV_PER_ANG2": null, "weighted_surface_energy": null, "weighted_work_function": null, "surface_anisotropy": null, "shape_factor": null, "has_reconstructed": null, "possible_species": null, "has_props": null, "theoretical": null, "database_IDs": null, "fields_not_requested": ["builder_meta", "nsites", "elements", "nelements", "composition", "composition_reduced", "chemsys", "symmetry", "property_name", "deprecated", "deprecation_reasons", "last_updated", "origins", "warnings", "task_ids", "uncorrected_energy_per_atom", "equilibrium_reaction_energy_per_atom", "decomposes_to", "xas", "grain_boundaries", "cbm", "vbm", "is_gap_direct", "is_metal", "es_source_calc_id", "bandstructure", "dos", "dos_energy_up", "dos_energy_down", "is_magnetic", "ordering", "total_magnetization_normalized_vol", "total_magnetization_normalized_formula_units", "num_magnetic_sites", "num_unique_magnetic_sites", "types_of_magnetic_species", "bulk_modulus", "shear_modulus", "universal_anisotropy", "homogeneous_poisson", "e_total", "e_ionic", "e_electronic", "n", "e_ij_max", "weighted_surface_energy_EV_PER_ANG2", "weighted_surface_energy", "weighted_work_function", "surface_anisotropy", "shape_factor", "has_reconstructed", "possible_species", "has_props", "theoretical", "database_IDs"]}