{
  "builder_meta": null,
  "nsites": null,
  "elements": null,
  "nelements": null,
  "composition": null,
  "composition_reduced": null,
  "formula_pretty": "Yb5As3",
  "formula_anonymous": "A3B5",
  "chemsys": null,
  "volume": 354.3696612111682,
  "density": 10.214921477379646,
  "density_atomic": 22.148103825698012,
  "symmetry": null,
  "property_name": null,
  "material_id": "mp-1207579",
  "deprecated": null,
  "deprecation_reasons": null,
  "last_updated": null,
  "origins": null,
  "warnings": null,
  "structure": {
    "@module": "pymatgen.core.structure",
    "@class": "Structure",
    "charge": 0.0,
    "lattice": {
      "matrix": [
        [4.141384706218316, -7.173088428013876, -0.0],
        [4.141384706218316, 7.173088428013876, -0.0],
        [-0.0, 0.0, 5.964510090280118]
      ],
      "pbc": [true, true, true],
      "a": 8.282769155361361,
      "b": 8.282769155361361,
      "c": 5.964510090280118,
      "alpha": 90.0,
      "beta": 90.0,
      "gamma": 119.99999794658491,
      "volume": 354.3696612111682
    },
    "properties": {},
    "sites": [
      {
        "species": [{ "element": "Yb", "occu": 1 }],
        "abc": [0.33333300000000304, 0.666666999999996, 0.0],
        "properties": { "magmom": 0.178 },
        "label": "Yb",
        "xyz": [4.141384706218313, 2.3910342580635264, 0.0]
      },
      {
        "species": [{ "element": "Yb", "occu": 1 }],
        "abc": [0.666666999999996, 0.33333300000000304, 0.0],
        "properties": { "magmom": 0.178 },
        "label": "Yb",
        "xyz": [4.141384706218313, -2.3910342580635264, 0.0]
      },
      {
        "species": [{ "element": "Yb", "occu": 1 }],
        "abc": [0.666666999999996, 0.33333300000000304, 0.5],
        "properties": { "magmom": 0.178 },
        "label": "Yb",
        "xyz": [4.141384706218313, -2.3910342580635264, 2.982255045140059]
      },
      {
        "species": [{ "element": "Yb", "occu": 1 }],
        "abc": [0.33333300000000304, 0.666666999999996, 0.5],
        "properties": { "magmom": 0.178 },
        "label": "Yb",
        "xyz": [4.141384706218313, 2.3910342580635264, 2.982255045140059]
      },
      {
        "species": [{ "element": "Yb", "occu": 1 }],
        "abc": [0.24951709662718, 1.2506e-12, 0.25],
        "properties": { "magmom": 0.085 },
        "label": "Yb",
        "xyz": [1.0333462879169801, -1.7898081983990743, 1.4911275225700296]
      },
      {
        "species": [{ "element": "Yb", "occu": 1 }],
        "abc": [0.75048290337282, 0.9999999999987491, 0.75],
        "properties": { "magmom": 0.085 },
        "label": "Yb",
        "xyz": [7.24942312451965, 1.789808198399073, 4.473382567710089]
      },
      {
        "species": [{ "element": "Yb", "occu": 1 }],
        "abc": [1.2506e-12, 0.24951709662718, 0.25],
        "properties": { "magmom": 0.085 },
        "label": "Yb",
        "xyz": [1.0333462879169801, 1.7898081983990743, 1.4911275225700296]
      },
      {
        "species": [{ "element": "Yb", "occu": 1 }],
        "abc": [0.9999999999987491, 0.75048290337282, 0.75],
        "properties": { "magmom": 0.085 },
        "label": "Yb",
        "xyz": [7.24942312451965, -1.789808198399073, 4.473382567710089]
      },
      {
        "species": [{ "element": "Yb", "occu": 1 }],
        "abc": [0.7504829033715691, 0.7504829033715691, 0.25],
        "properties": { "magmom": 0.085 },
        "label": "Yb",
        "xyz": [6.216076836602669, 0.0, 1.4911275225700296]
      },
      {
        "species": [{ "element": "Yb", "occu": 1 }],
        "abc": [0.24951709662843002, 0.24951709662843002, 0.75],
        "properties": { "magmom": 0.085 },
        "label": "Yb",
        "xyz": [2.066692575833956, 0.0, 4.473382567710089]
      },
      {
        "species": [{ "element": "As", "occu": 1 }],
        "abc": [0.613178989659616, 2.7e-13, 0.25],
        "properties": { "magmom": -0.009000000000000001 },
        "label": "As",
        "xyz": [2.539410089951851, -4.398387115026694, 1.4911275225700296]
      },
      {
        "species": [{ "element": "As", "occu": 1 }],
        "abc": [0.386821010340384, 0.99999999999973, 0.75],
        "properties": { "magmom": -0.009000000000000001 },
        "label": "As",
        "xyz": [5.743359322484782, 4.398387115026694, 4.473382567710089]
      },
      {
        "species": [{ "element": "As", "occu": 1 }],
        "abc": [2.7e-13, 0.613178989659616, 0.25],
        "properties": { "magmom": -0.009000000000000001 },
        "label": "As",
        "xyz": [2.539410089951851, 4.398387115026694, 1.4911275225700296]
      },
      {
        "species": [{ "element": "As", "occu": 1 }],
        "abc": [0.99999999999973, 0.386821010340384, 0.75],
        "properties": { "magmom": -0.009000000000000001 },
        "label": "As",
        "xyz": [5.743359322484782, -4.398387115026694, 4.473382567710089]
      },
      {
        "species": [{ "element": "As", "occu": 1 }],
        "abc": [0.386821010340114, 0.386821010340114, 0.25],
        "properties": { "magmom": -0.009000000000000001 },
        "label": "As",
        "xyz": [3.203949232532931, 0.0, 1.4911275225700296]
      },
      {
        "species": [{ "element": "As", "occu": 1 }],
        "abc": [0.613178989659886, 0.613178989659886, 0.75],
        "properties": { "magmom": -0.009000000000000001 },
        "label": "As",
        "xyz": [5.078820179903702, 0.0, 4.473382567710089]
      }
    ]
  },
  "task_ids": null,
  "uncorrected_energy_per_atom": null,
  "energy_per_atom": -29.544007268125,
  "formation_energy_per_atom": -1.1978214071875,
  "energy_above_hull": 0.126049473125,
  "is_stable": false,
  "equilibrium_reaction_energy_per_atom": null,
  "decomposes_to": null,
  "xas": null,
  "grain_boundaries": null,
  "band_gap": 0.0,
  "cbm": null,
  "vbm": null,
  "efermi": 4.62586393,
  "is_gap_direct": null,
  "is_metal": null,
  "es_source_calc_id": null,
  "bandstructure": null,
  "dos": null,
  "dos_energy_up": null,
  "dos_energy_down": null,
  "is_magnetic": null,
  "ordering": null,
  "total_magnetization": 1.2173001,
  "total_magnetization_normalized_vol": null,
  "total_magnetization_normalized_formula_units": null,
  "num_magnetic_sites": null,
  "num_unique_magnetic_sites": null,
  "types_of_magnetic_species": null,
  "bulk_modulus": null,
  "shear_modulus": null,
  "universal_anisotropy": null,
  "homogeneous_poisson": null,
  "e_total": null,
  "e_ionic": null,
  "e_electronic": null,
  "n": null,
  "e_ij_max": null,
  "weighted_surface_energy_EV_PER_ANG2": null,
  "weighted_surface_energy": null,
  "weighted_work_function": null,
  "surface_anisotropy": null,
  "shape_factor": null,
  "has_reconstructed": null,
  "possible_species": null,
  "has_props": null,
  "theoretical": null,
  "database_IDs": null,
  "fields_not_requested": [
    "builder_meta",
    "nsites",
    "elements",
    "nelements",
    "composition",
    "composition_reduced",
    "chemsys",
    "symmetry",
    "property_name",
    "deprecated",
    "deprecation_reasons",
    "last_updated",
    "origins",
    "warnings",
    "task_ids",
    "uncorrected_energy_per_atom",
    "equilibrium_reaction_energy_per_atom",
    "decomposes_to",
    "xas",
    "grain_boundaries",
    "cbm",
    "vbm",
    "is_gap_direct",
    "is_metal",
    "es_source_calc_id",
    "bandstructure",
    "dos",
    "dos_energy_up",
    "dos_energy_down",
    "is_magnetic",
    "ordering",
    "total_magnetization_normalized_vol",
    "total_magnetization_normalized_formula_units",
    "num_magnetic_sites",
    "num_unique_magnetic_sites",
    "types_of_magnetic_species",
    "bulk_modulus",
    "shear_modulus",
    "universal_anisotropy",
    "homogeneous_poisson",
    "e_total",
    "e_ionic",
    "e_electronic",
    "n",
    "e_ij_max",
    "weighted_surface_energy_EV_PER_ANG2",
    "weighted_surface_energy",
    "weighted_work_function",
    "surface_anisotropy",
    "shape_factor",
    "has_reconstructed",
    "possible_species",
    "has_props",
    "theoretical",
    "database_IDs"
  ]
}
