{"builder_meta": null, "nsites": null, "elements": null, "nelements": null, "composition": null, "composition_reduced": null, "formula_pretty": "Yb5Ag3", "formula_anonymous": "A3B5", "chemsys": null, "volume": 398.10458599101656, "density": 9.91727576279833, "density_atomic": 24.881536624438535, "symmetry": null, "property_name": null, "material_id": "mp-571212", "deprecated": null, "deprecation_reasons": null, "last_updated": null, "origins": null, "warnings": null, "structure": {"@module": "pymatgen.core.structure", "@class": "Structure", "charge": 0.0, "lattice": {"matrix": [[-3.637589551913129, 3.637589551913129, 7.521592513559471], [3.637589551913129, -3.637589551913129, 7.521592513559471], [3.637589551913129, 3.637589551913129, -7.521592513559471]], "pbc": [true, true, true], "a": 9.112544619172462, "b": 9.112544619172462, "c": 9.112544619172462, "alpha": 132.94554400795593, "beta": 132.94554400795593, "gamma": 68.7396806031198, "volume": 398.10458599101656}, "properties": {}, "sites": [{"species": [{"element": "Yb", "occu": 1}], "abc": [0.8178288162370321, 0.987801205861046, 0.5], "properties": {"magmom": -0.0}, "label": "Yb", "xyz": [2.437084564566585, 1.2005049873465439, 9.820416999691393]}, {"species": [{"element": "Yb", "occu": 1}], "abc": [0.682171183762967, 0.182171183762967, 0.169971389624016], "properties": {"magmom": -0.0}, "label": "Yb", "xyz": [-1.2005086249360883, 2.437080926977041, 5.222775549020035]}, {"species": [{"element": "Yb", "occu": 1}], "abc": [0.5121987941389531, 0.682171183762967, 0.5], "properties": {"magmom": -0.0}, "label": "Yb", "xyz": [2.437084564566585, 1.2005049873465439, 5.222768027427537]}, {"species": [{"element": "Yb", "occu": 1}], "abc": [0.012198794138953, 0.5121987941389531, 0.8300286103759831], "properties": {"magmom": -0.0}, "label": "Yb", "xyz": [4.838098176849215, 1.2005086249360848, -2.298832007724425]}, {"species": [{"element": "Yb", "occu": 1}], "abc": [0.0, 0.0, 0.0], "properties": {"magmom": 0.0}, "label": "Yb", "xyz": [0.0, 0.0, 0.0]}, {"species": [{"element": "Yb", "occu": 1}], "abc": [0.48780120586104603, 0.317828816237032, 0.5], "properties": {"magmom": -0.0}, "label": "Yb", "xyz": [1.2005049873465437, 2.4370845645665855, 2.2988244861319194]}, {"species": [{"element": "Yb", "occu": 1}], "abc": [0.317828816237032, 0.8178288162370321, 0.8300286103759831], "properties": {"magmom": -0.0}, "label": "Yb", "xyz": [4.838098176849215, 1.2005086249360848, 2.2988169645394283]}, {"species": [{"element": "Yb", "occu": 1}], "abc": [0.182171183762967, 0.012198794138953, 0.5], "properties": {"magmom": -0.0}, "label": "Yb", "xyz": [1.2005049873465437, 2.4370845645665855, -2.298824486131934]}, {"species": [{"element": "Yb", "occu": 1}], "abc": [0.987801205861046, 0.48780120586104603, 0.169971389624016], "properties": {"magmom": -0.0}, "label": "Yb", "xyz": [-1.2005086249360883, 2.437080926977041, 9.82042452128389]}, {"species": [{"element": "Yb", "occu": 1}], "abc": [0.5, 0.5, 0.0], "properties": {"magmom": 0.0}, "label": "Yb", "xyz": [0.0, 0.0, 7.521592513559471]}, {"species": [{"element": "Ag", "occu": 1}], "abc": [0.132584871626271, 0.36741512837372803, 0.5], "properties": {"magmom": 0.0}, "label": "Ag", "xyz": [2.673010864374192, 0.9645786875389373, -7.105427357601002e-15]}, {"species": [{"element": "Ag", "occu": 1}], "abc": [0.25, 0.25, 0.0], "properties": {"magmom": -0.0}, "label": "Ag", "xyz": [0.0, 0.0, 3.7607962567797353]}, {"species": [{"element": "Ag", "occu": 1}], "abc": [0.867415128373728, 0.6325848716262711, 0.5], "properties": {"magmom": 0.0}, "label": "Ag", "xyz": [0.9645786875389375, 2.6730108643741914, 7.521592513559464]}, {"species": [{"element": "Ag", "occu": 1}], "abc": [0.75, 0.75, 0.0], "properties": {"magmom": -0.0}, "label": "Ag", "xyz": [0.0, 0.0, 11.282388770339207]}, {"species": [{"element": "Ag", "occu": 1}], "abc": [0.6325848716262711, 0.132584871626271, 0.765169743252556], "properties": {"magmom": 0.0}, "label": "Ag", "xyz": [0.9645786875389848, 4.602168239452114, -1.056932319443149e-13]}, {"species": [{"element": "Ag", "occu": 1}], "abc": [0.36741512837372803, 0.867415128373728, 0.234830256747443], "properties": {"magmom": 0.0}, "label": "Ag", "xyz": [2.673010864374141, -0.9645786875389882, 7.521592513559569]}]}, "task_ids": null, "uncorrected_energy_per_atom": null, "energy_per_atom": -31.06998988625, "formation_energy_per_atom": -0.230674216249997, "energy_above_hull": 0.045747249999998005, "is_stable": false, "equilibrium_reaction_energy_per_atom": null, "decomposes_to": null, "xas": null, "grain_boundaries": null, "band_gap": 0.0, "cbm": null, "vbm": null, "efermi": 2.08351024, "is_gap_direct": null, "is_metal": null, "es_source_calc_id": null, "bandstructure": null, "dos": null, "dos_energy_up": null, "dos_energy_down": null, "is_magnetic": null, "ordering": null, "total_magnetization": 0.0, "total_magnetization_normalized_vol": null, "total_magnetization_normalized_formula_units": null, "num_magnetic_sites": null, "num_unique_magnetic_sites": null, "types_of_magnetic_species": null, "bulk_modulus": null, "shear_modulus": null, "universal_anisotropy": null, "homogeneous_poisson": null, "e_total": null, "e_ionic": null, "e_electronic": null, "n": null, "e_ij_max": null, "weighted_surface_energy_EV_PER_ANG2": null, "weighted_surface_energy": null, "weighted_work_function": null, "surface_anisotropy": null, "shape_factor": null, "has_reconstructed": null, "possible_species": null, "has_props": null, "theoretical": null, "database_IDs": null, "fields_not_requested": ["builder_meta", "nsites", "elements", "nelements", "composition", "composition_reduced", "chemsys", "symmetry", "property_name", "deprecated", "deprecation_reasons", "last_updated", "origins", "warnings", "task_ids", "uncorrected_energy_per_atom", "equilibrium_reaction_energy_per_atom", "decomposes_to", "xas", "grain_boundaries", "cbm", "vbm", "is_gap_direct", "is_metal", "es_source_calc_id", "bandstructure", "dos", "dos_energy_up", "dos_energy_down", "is_magnetic", "ordering", "total_magnetization_normalized_vol", "total_magnetization_normalized_formula_units", "num_magnetic_sites", "num_unique_magnetic_sites", "types_of_magnetic_species", "bulk_modulus", "shear_modulus", "universal_anisotropy", "homogeneous_poisson", "e_total", "e_ionic", "e_electronic", "n", "e_ij_max", "weighted_surface_energy_EV_PER_ANG2", "weighted_surface_energy", "weighted_work_function", "surface_anisotropy", "shape_factor", "has_reconstructed", "possible_species", "has_props", "theoretical", "database_IDs"]}