{
  "builder_meta": null,
  "nsites": null,
  "elements": null,
  "nelements": null,
  "composition": null,
  "composition_reduced": null,
  "formula_pretty": "Yb5Au3",
  "formula_anonymous": "A3B5",
  "chemsys": null,
  "volume": 386.19167454249884,
  "density": 12.521815501086012,
  "density_atomic": 24.136979658906178,
  "symmetry": null,
  "property_name": null,
  "material_id": "mp-568944",
  "deprecated": null,
  "deprecation_reasons": null,
  "last_updated": null,
  "origins": null,
  "warnings": null,
  "structure": {
    "@module": "pymatgen.core.structure",
    "@class": "Structure",
    "charge": 0.0,
    "lattice": {
      "matrix": [
        [-3.615341399916611, 3.615341399916611, 7.386594987783591],
        [3.615341399916611, -3.615341399916611, 7.386594987783591],
        [3.615341399916611, 3.615341399916611, -7.386594987783591]
      ],
      "pbc": [true, true, true],
      "a": 8.983494442000378,
      "b": 8.983494442000378,
      "c": 8.983494442000378,
      "alpha": 132.53805994345245,
      "beta": 132.53805994345245,
      "gamma": 69.38053577171634,
      "volume": 386.19167454249884
    },
    "properties": {},
    "sites": [
      {
        "species": [{ "element": "Yb", "occu": 1 }],
        "abc": [0.515538745314309, 0.015538745314309, 0.8342001383735821],
        "properties": { "magmom": -0.0 },
        "label": "Yb",
        "xyz": [1.2082475961198713, 4.823588996036483, -2.239044230516643]
      },
      {
        "species": [{ "element": "Yb", "occu": 1 }],
        "abc": [0.31866139305927205, 0.48446125468569, 0.5],
        "properties": { "magmom": -0.0 },
        "label": "Yb",
        "xyz": [2.40709380379674, 1.208247596119871, 2.239044230516628]
      },
      {
        "species": [{ "element": "Yb", "occu": 1 }],
        "abc": [0.48446125468569, 0.9844612546856901, 0.16579986162641802],
        "properties": { "magmom": -0.0 },
        "label": "Yb",
        "xyz": [2.40709380379674, -1.2082475961198713, 9.625639218300218]
      },
      {
        "species": [{ "element": "Yb", "occu": 1 }],
        "abc": [0.015538745314309, 0.181338606940727, 0.5],
        "properties": { "magmom": -0.0 },
        "label": "Yb",
        "xyz": [2.40709380379674, 1.2082475961198709, -2.239044230516642]
      },
      {
        "species": [{ "element": "Yb", "occu": 1 }],
        "abc": [0.181338606940727, 0.681338606940727, 0.16579986162641802],
        "properties": { "magmom": -0.0 },
        "label": "Yb",
        "xyz": [2.40709380379674, -1.2082475961198709, 5.1475507572669486]
      },
      {
        "species": [{ "element": "Yb", "occu": 1 }],
        "abc": [0.681338606940727, 0.515538745314309, 0.5],
        "properties": { "magmom": -0.0 },
        "label": "Yb",
        "xyz": [1.208247596119871, 2.40709380379674, 5.147550757266948]
      },
      {
        "species": [{ "element": "Yb", "occu": 1 }],
        "abc": [0.5, 0.5, 0.0],
        "properties": { "magmom": -0.0 },
        "label": "Yb",
        "xyz": [0.0, 0.0, 7.386594987783591]
      },
      {
        "species": [{ "element": "Yb", "occu": 1 }],
        "abc": [0.9844612546856901, 0.8186613930592721, 0.5],
        "properties": { "magmom": -0.0 },
        "label": "Yb",
        "xyz": [1.2082475961198713, 2.4070938037967395, 9.625639218300222]
      },
      {
        "species": [{ "element": "Yb", "occu": 1 }],
        "abc": [0.8186613930592721, 0.31866139305927205, 0.8342001383735821],
        "properties": { "magmom": -0.0 },
        "label": "Yb",
        "xyz": [1.2082475961198709, 4.823588996036483, 2.239044230516628]
      },
      {
        "species": [{ "element": "Yb", "occu": 1 }],
        "abc": [0.0, 0.0, 0.0],
        "properties": { "magmom": -0.0 },
        "label": "Yb",
        "xyz": [0.0, 0.0, 0.0]
      },
      {
        "species": [{ "element": "Au", "occu": 1 }],
        "abc": [0.636969347932925, 0.8630306520670741, 0.5],
        "properties": { "magmom": 0.0 },
        "label": "Au",
        "xyz": [2.6249594917136343, 0.9903819082029766, 7.386594987783584]
      },
      {
        "species": [{ "element": "Au", "occu": 1 }],
        "abc": [0.25, 0.25, 0.0],
        "properties": { "magmom": -0.0 },
        "label": "Au",
        "xyz": [0.0, 0.0, 3.6932974938917953]
      },
      {
        "species": [{ "element": "Au", "occu": 1 }],
        "abc": [0.363030652067074, 0.136969347932925, 0.5],
        "properties": { "magmom": 0.0 },
        "label": "Au",
        "xyz": [0.9903819082029766, 2.6249594917136343, -7.105427357601002e-15]
      },
      {
        "species": [{ "element": "Au", "occu": 1 }],
        "abc": [0.136969347932925, 0.636969347932925, 0.773937695865853],
        "properties": { "magmom": 0.0 },
        "label": "Au",
        "xyz": [4.605719692778195, 0.9903782928615839, 7.386594965907989e-6]
      },
      {
        "species": [{ "element": "Au", "occu": 1 }],
        "abc": [0.8630306520670741, 0.363030652067074, 0.22606230413414602],
        "properties": { "magmom": 0.0 },
        "label": "Au",
        "xyz": [-0.9903782928615875, 2.6249631070550237, 7.3865876011886185]
      },
      {
        "species": [{ "element": "Au", "occu": 1 }],
        "abc": [0.75, 0.75, 0.0],
        "properties": { "magmom": -0.0 },
        "label": "Au",
        "xyz": [0.0, 0.0, 11.079892481675387]
      }
    ]
  },
  "task_ids": null,
  "uncorrected_energy_per_atom": null,
  "energy_per_atom": -42.573998664375,
  "formation_energy_per_atom": -0.7737768674999971,
  "energy_above_hull": 0.065996709062503,
  "is_stable": false,
  "equilibrium_reaction_energy_per_atom": null,
  "decomposes_to": null,
  "xas": null,
  "grain_boundaries": null,
  "band_gap": 0.0,
  "cbm": null,
  "vbm": null,
  "efermi": 2.83268352,
  "is_gap_direct": null,
  "is_metal": null,
  "es_source_calc_id": null,
  "bandstructure": null,
  "dos": null,
  "dos_energy_up": null,
  "dos_energy_down": null,
  "is_magnetic": null,
  "ordering": null,
  "total_magnetization": 0.0,
  "total_magnetization_normalized_vol": null,
  "total_magnetization_normalized_formula_units": null,
  "num_magnetic_sites": null,
  "num_unique_magnetic_sites": null,
  "types_of_magnetic_species": null,
  "bulk_modulus": null,
  "shear_modulus": null,
  "universal_anisotropy": null,
  "homogeneous_poisson": null,
  "e_total": null,
  "e_ionic": null,
  "e_electronic": null,
  "n": null,
  "e_ij_max": null,
  "weighted_surface_energy_EV_PER_ANG2": null,
  "weighted_surface_energy": null,
  "weighted_work_function": null,
  "surface_anisotropy": null,
  "shape_factor": null,
  "has_reconstructed": null,
  "possible_species": null,
  "has_props": null,
  "theoretical": null,
  "database_IDs": null,
  "fields_not_requested": [
    "builder_meta",
    "nsites",
    "elements",
    "nelements",
    "composition",
    "composition_reduced",
    "chemsys",
    "symmetry",
    "property_name",
    "deprecated",
    "deprecation_reasons",
    "last_updated",
    "origins",
    "warnings",
    "task_ids",
    "uncorrected_energy_per_atom",
    "equilibrium_reaction_energy_per_atom",
    "decomposes_to",
    "xas",
    "grain_boundaries",
    "cbm",
    "vbm",
    "is_gap_direct",
    "is_metal",
    "es_source_calc_id",
    "bandstructure",
    "dos",
    "dos_energy_up",
    "dos_energy_down",
    "is_magnetic",
    "ordering",
    "total_magnetization_normalized_vol",
    "total_magnetization_normalized_formula_units",
    "num_magnetic_sites",
    "num_unique_magnetic_sites",
    "types_of_magnetic_species",
    "bulk_modulus",
    "shear_modulus",
    "universal_anisotropy",
    "homogeneous_poisson",
    "e_total",
    "e_ionic",
    "e_electronic",
    "n",
    "e_ij_max",
    "weighted_surface_energy_EV_PER_ANG2",
    "weighted_surface_energy",
    "weighted_work_function",
    "surface_anisotropy",
    "shape_factor",
    "has_reconstructed",
    "possible_species",
    "has_props",
    "theoretical",
    "database_IDs"
  ]
}
