{"builder_meta": null, "nsites": null, "elements": null, "nelements": null, "composition": null, "composition_reduced": null, "formula_pretty": "Yb5Ir3", "formula_anonymous": "A3B5", "chemsys": null, "volume": 348.61452203496026, "density": 13.735801364443292, "density_atomic": 21.788407627185016, "symmetry": null, "property_name": null, "material_id": "mp-1189800", "deprecated": null, "deprecation_reasons": null, "last_updated": null, "origins": null, "warnings": null, "structure": {"@module": "pymatgen.core.structure", "@class": "Structure", "charge": 0.0, "lattice": {"matrix": [[4.080788034067631, -7.068132932183195, -0.0], [4.080788034067631, 7.068132932183195, 0.0], [0.0, -0.0, 6.043196734151002]], "pbc": [true, true, true], "a": 8.161576693629863, "b": 8.161576693629863, "c": 6.043196734151002, "alpha": 90.0, "beta": 90.0, "gamma": 120.00000507039151, "volume": 348.6145220349602}, "properties": {}, "sites": [{"species": [{"element": "Yb", "occu": 1}], "abc": [0.666666999999996, 0.33333300000000304, 0.5], "properties": {"magmom": -0.0}, "label": "Yb", "xyz": [4.080788034067627, -2.3560490228163036, 3.021598367075501]}, {"species": [{"element": "Yb", "occu": 1}], "abc": [0.33333300000000304, 0.666666999999996, 0.5], "properties": {"magmom": -0.0}, "label": "Yb", "xyz": [4.080788034067627, 2.3560490228163036, 3.021598367075501]}, {"species": [{"element": "Yb", "occu": 1}], "abc": [0.33333300000000304, 0.666666999999996, 0.0], "properties": {"magmom": -0.0}, "label": "Yb", "xyz": [4.080788034067627, 2.3560490228163036, 0.0]}, {"species": [{"element": "Yb", "occu": 1}], "abc": [0.666666999999996, 0.33333300000000304, 0.0], "properties": {"magmom": -0.0}, "label": "Yb", "xyz": [4.080788034067627, -2.3560490228163036, 0.0]}, {"species": [{"element": "Yb", "occu": 1}], "abc": [0.7360248028092891, 0.7360248028092891, 0.25], "properties": {"magmom": 0.0}, "label": "Yb", "xyz": [6.007122416162268, 0.0, 1.5107991835377506]}, {"species": [{"element": "Yb", "occu": 1}], "abc": [0.263975197188699, 2.0108000000000003e-12, 0.25], "properties": {"magmom": 0.0}, "label": "Yb", "xyz": [1.0772268259864917, -1.8658117845147835, 1.5107991835377506]}, {"species": [{"element": "Yb", "occu": 1}], "abc": [2.0108000000000003e-12, 0.263975197188699, 0.25], "properties": {"magmom": 0.0}, "label": "Yb", "xyz": [1.0772268259864917, 1.8658117845147835, 1.5107991835377506]}, {"species": [{"element": "Yb", "occu": 1}], "abc": [0.26397519719071, 0.26397519719071, 0.75], "properties": {"magmom": 0.0}, "label": "Yb", "xyz": [2.154453651972985, 0.0, 4.5323975506132514]}, {"species": [{"element": "Yb", "occu": 1}], "abc": [0.7360248028113, 0.999999999997989, 0.75], "properties": {"magmom": 0.0}, "label": "Yb", "xyz": [7.084349242148765, 1.86581178451479, 4.5323975506132514]}, {"species": [{"element": "Yb", "occu": 1}], "abc": [0.999999999997989, 0.7360248028113, 0.75], "properties": {"magmom": 0.0}, "label": "Yb", "xyz": [7.084349242148765, -1.86581178451479, 4.5323975506132514]}, {"species": [{"element": "Ir", "occu": 1}], "abc": [0.38732522062429103, 0.38732522062429103, 0.25], "properties": {"magmom": -0.0}, "label": "Ir", "xyz": [3.1611842512324237, 0.0, 1.5107991835377506]}, {"species": [{"element": "Ir", "occu": 1}], "abc": [0.6126747793729941, 2.7072000000000004e-12, 0.25], "properties": {"magmom": -0.0}, "label": "Ir", "xyz": [2.5001959084513876, -4.330466784785198, 1.5107991835377506]}, {"species": [{"element": "Ir", "occu": 1}], "abc": [2.7072000000000004e-12, 0.6126747793729941, 0.25], "properties": {"magmom": -0.0}, "label": "Ir", "xyz": [2.5001959084513876, 4.330466784785198, 1.5107991835377506]}, {"species": [{"element": "Ir", "occu": 1}], "abc": [0.612674779375709, 0.612674779375709, 0.75], "properties": {"magmom": -0.0}, "label": "Ir", "xyz": [5.000391816902837, 0.0, 4.5323975506132514]}, {"species": [{"element": "Ir", "occu": 1}], "abc": [0.38732522062700503, 0.999999999997292, 0.75], "properties": {"magmom": -0.0}, "label": "Ir", "xyz": [5.661380159683867, 4.330466784785198, 4.5323975506132514]}, {"species": [{"element": "Ir", "occu": 1}], "abc": [0.999999999997292, 0.38732522062700503, 0.75], "properties": {"magmom": -0.0}, "label": "Ir", "xyz": [5.661380159683867, -4.330466784785198, 4.5323975506132514]}]}, "task_ids": null, "uncorrected_energy_per_atom": null, "energy_per_atom": -43.43807722375, "formation_energy_per_atom": -0.972457939375004, "energy_above_hull": 0.0, "is_stable": true, "equilibrium_reaction_energy_per_atom": null, "decomposes_to": null, "xas": null, "grain_boundaries": null, "band_gap": 0.0, "cbm": null, "vbm": null, "efermi": 3.42550445, "is_gap_direct": null, "is_metal": null, "es_source_calc_id": null, "bandstructure": null, "dos": null, "dos_energy_up": null, "dos_energy_down": null, "is_magnetic": null, "ordering": null, "total_magnetization": 6e-07, "total_magnetization_normalized_vol": null, "total_magnetization_normalized_formula_units": null, "num_magnetic_sites": null, "num_unique_magnetic_sites": null, "types_of_magnetic_species": null, "bulk_modulus": null, "shear_modulus": null, "universal_anisotropy": null, "homogeneous_poisson": null, "e_total": null, "e_ionic": null, "e_electronic": null, "n": null, "e_ij_max": null, "weighted_surface_energy_EV_PER_ANG2": null, "weighted_surface_energy": null, "weighted_work_function": null, "surface_anisotropy": null, "shape_factor": null, "has_reconstructed": null, "possible_species": null, "has_props": null, "theoretical": null, "database_IDs": null, "fields_not_requested": ["builder_meta", "nsites", "elements", "nelements", "composition", "composition_reduced", "chemsys", "symmetry", "property_name", "deprecated", "deprecation_reasons", "last_updated", "origins", "warnings", "task_ids", "uncorrected_energy_per_atom", "equilibrium_reaction_energy_per_atom", "decomposes_to", "xas", "grain_boundaries", "cbm", "vbm", "is_gap_direct", "is_metal", "es_source_calc_id", "bandstructure", "dos", "dos_energy_up", "dos_energy_down", "is_magnetic", "ordering", "total_magnetization_normalized_vol", "total_magnetization_normalized_formula_units", "num_magnetic_sites", "num_unique_magnetic_sites", "types_of_magnetic_species", "bulk_modulus", "shear_modulus", "universal_anisotropy", "homogeneous_poisson", "e_total", "e_ionic", "e_electronic", "n", "e_ij_max", "weighted_surface_energy_EV_PER_ANG2", "weighted_surface_energy", "weighted_work_function", "surface_anisotropy", "shape_factor", "has_reconstructed", "possible_species", "has_props", "theoretical", "database_IDs"]}