{"builder_meta": null, "nsites": null, "elements": null, "nelements": null, "composition": null, "composition_reduced": null, "formula_pretty": "Yb5Pt3", "formula_anonymous": "A3B5", "chemsys": null, "volume": 356.52821820479045, "density": 13.511032716320017, "density_atomic": 22.283013637799403, "symmetry": null, "property_name": null, "material_id": "mp-1190212", "deprecated": null, "deprecation_reasons": null, "last_updated": null, "origins": null, "warnings": null, "structure": {"@module": "pymatgen.core.structure", "@class": "Structure", "charge": 0.0, "lattice": {"matrix": [[4.139352702033503, -7.169569889544045, 0.0], [4.139352702033503, 7.169569889544045, 0.0], [-0.0, 0.0, 6.006733685531483]], "pbc": [true, true, true], "a": 8.278706009569893, "b": 8.278706009569893, "c": 6.006733685531483, "alpha": 90.0, "beta": 90.0, "gamma": 120.00000483889006, "volume": 356.52821820479045}, "properties": {}, "sites": [{"species": [{"element": "Yb", "occu": 1}], "abc": [0.666666999999996, 0.33333300000000304, 0.0], "properties": {"magmom": 0.0}, "label": "Yb", "xyz": [4.1393527020334995, -2.389861409561224, 0.0]}, {"species": [{"element": "Yb", "occu": 1}], "abc": [0.33333300000000304, 0.666666999999996, 0.0], "properties": {"magmom": 0.0}, "label": "Yb", "xyz": [4.1393527020334995, 2.389861409561224, 0.0]}, {"species": [{"element": "Yb", "occu": 1}], "abc": [0.33333300000000304, 0.666666999999996, 0.5], "properties": {"magmom": 0.0}, "label": "Yb", "xyz": [4.1393527020334995, 2.389861409561224, 3.0033668427657414]}, {"species": [{"element": "Yb", "occu": 1}], "abc": [0.666666999999996, 0.33333300000000304, 0.5], "properties": {"magmom": 0.0}, "label": "Yb", "xyz": [4.1393527020334995, -2.389861409561224, 3.0033668427657414]}, {"species": [{"element": "Yb", "occu": 1}], "abc": [0.752780327979174, 0.752780327979174, 0.75], "properties": {"magmom": 0.0}, "label": "Yb", "xyz": [6.2320465693165215, 0.0, 4.505050264148612]}, {"species": [{"element": "Yb", "occu": 1}], "abc": [0.247219672031761, 0.9999999999890641, 0.75], "properties": {"magmom": 0.0}, "label": "Yb", "xyz": [5.162682119408742, 5.397111172763771, 4.505050264148612]}, {"species": [{"element": "Yb", "occu": 1}], "abc": [0.9999999999890641, 0.247219672031761, 0.75], "properties": {"magmom": 0.0}, "label": "Yb", "xyz": [5.162682119408742, -5.397111172763771, 4.505050264148612]}, {"species": [{"element": "Yb", "occu": 1}], "abc": [0.247219672020826, 0.247219672020826, 0.25], "properties": {"magmom": 0.0}, "label": "Yb", "xyz": [2.046658834750485, 0.0, 1.5016834213828707]}, {"species": [{"element": "Yb", "occu": 1}], "abc": [0.752780327968238, 1.093529999999999e-11, 0.25], "properties": {"magmom": 0.0}, "label": "Yb", "xyz": [3.1160232846582576, -5.397111172763768, 1.5016834213828707]}, {"species": [{"element": "Yb", "occu": 1}], "abc": [1.093529999999999e-11, 0.752780327968238, 0.25], "properties": {"magmom": 0.0}, "label": "Yb", "xyz": [3.1160232846582576, 5.397111172763768, 1.5016834213828707]}, {"species": [{"element": "Pt", "occu": 1}], "abc": [0.39458455155527605, 0.39458455155527605, 0.75], "properties": {"magmom": 0.0}, "label": "Pt", "xyz": [3.26664925932202, 0.0, 4.505050264148612]}, {"species": [{"element": "Pt", "occu": 1}], "abc": [0.6054154484477431, 0.9999999999969801, 0.75], "properties": {"magmom": 0.0}, "label": "Pt", "xyz": [6.645380774405993, 2.82900151966665, 4.505050264148612]}, {"species": [{"element": "Pt", "occu": 1}], "abc": [0.9999999999969801, 0.6054154484477431, 0.75], "properties": {"magmom": 0.0}, "label": "Pt", "xyz": [6.645380774405993, -2.82900151966665, 4.505050264148612]}, {"species": [{"element": "Pt", "occu": 1}], "abc": [0.6054154484447231, 0.6054154484447231, 0.25], "properties": {"magmom": 0.0}, "label": "Pt", "xyz": [5.012056144744979, 0.0, 1.5016834213828707]}, {"species": [{"element": "Pt", "occu": 1}], "abc": [0.394584551552256, 3.0198e-12, 0.25], "properties": {"magmom": 0.0}, "label": "Pt", "xyz": [1.633324629661009, -2.829001519666644, 1.5016834213828707]}, {"species": [{"element": "Pt", "occu": 1}], "abc": [3.0198e-12, 0.394584551552256, 0.25], "properties": {"magmom": 0.0}, "label": "Pt", "xyz": [1.633324629661009, 2.829001519666644, 1.5016834213828707]}]}, "task_ids": null, "uncorrected_energy_per_atom": null, "energy_per_atom": -43.3223840975, "formation_energy_per_atom": -1.183628519374998, "energy_above_hull": 0.0, "is_stable": true, "equilibrium_reaction_energy_per_atom": null, "decomposes_to": null, "xas": null, "grain_boundaries": null, "band_gap": 0.0, "cbm": null, "vbm": null, "efermi": 3.14325456, "is_gap_direct": null, "is_metal": null, "es_source_calc_id": null, "bandstructure": null, "dos": null, "dos_energy_up": null, "dos_energy_down": null, "is_magnetic": null, "ordering": null, "total_magnetization": 3.1700000000000005e-05, "total_magnetization_normalized_vol": null, "total_magnetization_normalized_formula_units": null, "num_magnetic_sites": null, "num_unique_magnetic_sites": null, "types_of_magnetic_species": null, "bulk_modulus": null, "shear_modulus": null, "universal_anisotropy": null, "homogeneous_poisson": null, "e_total": null, "e_ionic": null, "e_electronic": null, "n": null, "e_ij_max": null, "weighted_surface_energy_EV_PER_ANG2": null, "weighted_surface_energy": null, "weighted_work_function": null, "surface_anisotropy": null, "shape_factor": null, "has_reconstructed": null, "possible_species": null, "has_props": null, "theoretical": null, "database_IDs": null, "fields_not_requested": ["builder_meta", "nsites", "elements", "nelements", "composition", "composition_reduced", "chemsys", "symmetry", "property_name", "deprecated", "deprecation_reasons", "last_updated", "origins", "warnings", "task_ids", "uncorrected_energy_per_atom", "equilibrium_reaction_energy_per_atom", "decomposes_to", "xas", "grain_boundaries", "cbm", "vbm", "is_gap_direct", "is_metal", "es_source_calc_id", "bandstructure", "dos", "dos_energy_up", "dos_energy_down", "is_magnetic", "ordering", "total_magnetization_normalized_vol", "total_magnetization_normalized_formula_units", "num_magnetic_sites", "num_unique_magnetic_sites", "types_of_magnetic_species", "bulk_modulus", "shear_modulus", "universal_anisotropy", "homogeneous_poisson", "e_total", "e_ionic", "e_electronic", "n", "e_ij_max", "weighted_surface_energy_EV_PER_ANG2", "weighted_surface_energy", "weighted_work_function", "surface_anisotropy", "shape_factor", "has_reconstructed", "possible_species", "has_props", "theoretical", "database_IDs"]}