{
  "builder_meta": null,
  "nsites": null,
  "elements": null,
  "nelements": null,
  "composition": null,
  "composition_reduced": null,
  "formula_pretty": "Yb5Sn3",
  "formula_anonymous": "A3B5",
  "chemsys": null,
  "volume": 428.5204612985296,
  "density": 9.465434495543127,
  "density_atomic": 26.7825288311581,
  "symmetry": null,
  "property_name": null,
  "material_id": "mp-1188350",
  "deprecated": null,
  "deprecation_reasons": null,
  "last_updated": null,
  "origins": null,
  "warnings": null,
  "structure": {
    "@module": "pymatgen.core.structure",
    "@class": "Structure",
    "charge": 0.0,
    "lattice": {
      "matrix": [
        [-4.000539449508624, 4.000539449508624, 6.693826595309313],
        [4.000539449508624, -4.000539449508624, 6.693826595309313],
        [4.000539449508624, 4.000539449508624, -6.693826595309313]
      ],
      "pbc": [true, true, true],
      "a": 8.764470677811627,
      "b": 8.764470677811627,
      "c": 8.764470677811627,
      "alpha": 125.6835095882456,
      "beta": 125.6835095882456,
      "gamma": 80.4089387029785,
      "volume": 428.5204612985296
    },
    "properties": {},
    "sites": [
      {
        "species": [{ "element": "Yb", "occu": 1 }],
        "abc": [0.5, 0.5, 0.0],
        "properties": { "magmom": -0.07 },
        "label": "Yb",
        "xyz": [0.0, 0.0, 6.693826595309313]
      },
      {
        "species": [{ "element": "Yb", "occu": 1 }],
        "abc": [0.0, 0.0, 0.0],
        "properties": { "magmom": -0.07 },
        "label": "Yb",
        "xyz": [0.0, 0.0, 0.0]
      },
      {
        "species": [{ "element": "Yb", "occu": 1 }],
        "abc": [0.5045008166885481, 0.004500816688548, 0.8094175138058971],
        "properties": { "magmom": -0.156 },
        "label": "Yb",
        "xyz": [1.2378369703493703, 5.238376419857995, -2.010931810067571]
      },
      {
        "species": [{ "element": "Yb", "occu": 1 }],
        "abc": [0.195083302882636, 0.6950833028826361, 0.190582486194102],
        "properties": { "magmom": -0.156 },
        "label": "Yb",
        "xyz": [2.76270247915925, -1.2378369703493748, 4.6828947852415475]
      },
      {
        "species": [{ "element": "Yb", "occu": 1 }],
        "abc": [0.004500816688548, 0.195083302882636, 0.5],
        "properties": { "magmom": -0.156 },
        "label": "Yb",
        "xyz": [2.7627024791591936, 1.2378369703494303, -2.010931810067671]
      },
      {
        "species": [{ "element": "Yb", "occu": 1 }],
        "abc": [0.6950833028826361, 0.5045008166885481, 0.5],
        "properties": { "magmom": -0.156 },
        "label": "Yb",
        "xyz": [1.2378369703494303, 2.7627024791591936, 4.6828947852416425]
      },
      {
        "species": [{ "element": "Yb", "occu": 1 }],
        "abc": [0.49549918331145104, 0.995499183311451, 0.190582486194102],
        "properties": { "magmom": -0.156 },
        "label": "Yb",
        "xyz": [2.7627024791592496, -1.2378369703493743, 8.704758405376875]
      },
      {
        "species": [{ "element": "Yb", "occu": 1 }],
        "abc": [0.804916697117363, 0.304916697117363, 0.8094175138058971],
        "properties": { "magmom": -0.156 },
        "label": "Yb",
        "xyz": [1.2378369703493708, 5.238376419857994, 2.010931810067757]
      },
      {
        "species": [{ "element": "Yb", "occu": 1 }],
        "abc": [0.995499183311451, 0.804916697117363, 0.5],
        "properties": { "magmom": -0.156 },
        "label": "Yb",
        "xyz": [1.2378369703494303, 2.7627024791591936, 8.704758405376971]
      },
      {
        "species": [{ "element": "Yb", "occu": 1 }],
        "abc": [0.304916697117363, 0.49549918331145104, 0.5],
        "properties": { "magmom": -0.156 },
        "label": "Yb",
        "xyz": [2.762702479159194, 1.23783697034943, 2.0109318100676576]
      },
      {
        "species": [{ "element": "Sn", "occu": 1 }],
        "abc": [0.25, 0.25, 0.0],
        "properties": { "magmom": 0.03 },
        "label": "Sn",
        "xyz": [0.0, 0.0, 3.3469132976546563]
      },
      {
        "species": [{ "element": "Sn", "occu": 1 }],
        "abc": [0.75, 0.75, 0.0],
        "properties": { "magmom": 0.03 },
        "label": "Sn",
        "xyz": [0.0, 0.0, 10.04073989296397]
      },
      {
        "species": [{ "element": "Sn", "occu": 1 }],
        "abc": [0.8536764438656511, 0.353676443865651, 0.20735188773131302],
        "properties": { "magmom": 0.015 },
        "label": "Sn",
        "xyz": [-1.1707503179551115, 2.8297891315535133, 6.693833289135836]
      },
      {
        "species": [{ "element": "Sn", "occu": 1 }],
        "abc": [0.146323556134348, 0.646323556134348, 0.792648112268686],
        "properties": { "magmom": 0.015 },
        "label": "Sn",
        "xyz": [5.1712897674637315, 1.170750317955107, -6.6938265286253795e-6]
      },
      {
        "species": [{ "element": "Sn", "occu": 1 }],
        "abc": [0.353676443865651, 0.146323556134348, 0.5],
        "properties": { "magmom": 0.015 },
        "label": "Sn",
        "xyz": [1.1707463174157016, 2.8297931320929224, -7.105427357601002e-15]
      },
      {
        "species": [{ "element": "Sn", "occu": 1 }],
        "abc": [0.646323556134348, 0.8536764438656511, 0.5],
        "properties": { "magmom": 0.015 },
        "label": "Sn",
        "xyz": [2.829793132092923, 1.1707463174157011, 6.693826595309306]
      }
    ]
  },
  "task_ids": null,
  "uncorrected_energy_per_atom": null,
  "energy_per_atom": -32.830783875625,
  "formation_energy_per_atom": -0.7201032175000031,
  "energy_above_hull": 0.0,
  "is_stable": true,
  "equilibrium_reaction_energy_per_atom": null,
  "decomposes_to": null,
  "xas": null,
  "grain_boundaries": null,
  "band_gap": 0.0,
  "cbm": null,
  "vbm": null,
  "efermi": 3.23434514,
  "is_gap_direct": null,
  "is_metal": null,
  "es_source_calc_id": null,
  "bandstructure": null,
  "dos": null,
  "dos_energy_up": null,
  "dos_energy_down": null,
  "is_magnetic": null,
  "ordering": null,
  "total_magnetization": 1.5106166,
  "total_magnetization_normalized_vol": null,
  "total_magnetization_normalized_formula_units": null,
  "num_magnetic_sites": null,
  "num_unique_magnetic_sites": null,
  "types_of_magnetic_species": null,
  "bulk_modulus": null,
  "shear_modulus": null,
  "universal_anisotropy": null,
  "homogeneous_poisson": null,
  "e_total": null,
  "e_ionic": null,
  "e_electronic": null,
  "n": null,
  "e_ij_max": null,
  "weighted_surface_energy_EV_PER_ANG2": null,
  "weighted_surface_energy": null,
  "weighted_work_function": null,
  "surface_anisotropy": null,
  "shape_factor": null,
  "has_reconstructed": null,
  "possible_species": null,
  "has_props": null,
  "theoretical": null,
  "database_IDs": null,
  "fields_not_requested": [
    "builder_meta",
    "nsites",
    "elements",
    "nelements",
    "composition",
    "composition_reduced",
    "chemsys",
    "symmetry",
    "property_name",
    "deprecated",
    "deprecation_reasons",
    "last_updated",
    "origins",
    "warnings",
    "task_ids",
    "uncorrected_energy_per_atom",
    "equilibrium_reaction_energy_per_atom",
    "decomposes_to",
    "xas",
    "grain_boundaries",
    "cbm",
    "vbm",
    "is_gap_direct",
    "is_metal",
    "es_source_calc_id",
    "bandstructure",
    "dos",
    "dos_energy_up",
    "dos_energy_down",
    "is_magnetic",
    "ordering",
    "total_magnetization_normalized_vol",
    "total_magnetization_normalized_formula_units",
    "num_magnetic_sites",
    "num_unique_magnetic_sites",
    "types_of_magnetic_species",
    "bulk_modulus",
    "shear_modulus",
    "universal_anisotropy",
    "homogeneous_poisson",
    "e_total",
    "e_ionic",
    "e_electronic",
    "n",
    "e_ij_max",
    "weighted_surface_energy_EV_PER_ANG2",
    "weighted_surface_energy",
    "weighted_work_function",
    "surface_anisotropy",
    "shape_factor",
    "has_reconstructed",
    "possible_species",
    "has_props",
    "theoretical",
    "database_IDs"
  ]
}
