{"builder_meta": null, "nsites": null, "elements": null, "nelements": null, "composition": null, "composition_reduced": null, "formula_pretty": "Yb5Se7", "formula_anonymous": "A5B7", "chemsys": null, "volume": 293.9848127325951, "density": 8.008956419987264, "density_atomic": 24.498734394382925, "symmetry": null, "property_name": null, "material_id": "mp-3216667", "deprecated": null, "deprecation_reasons": null, "last_updated": null, "origins": null, "warnings": null, "structure": {"@module": "pymatgen.core.structure", "@class": "Structure", "charge": 0.0, "lattice": {"matrix": [[1.938484426043596, 6.5249239286890734, -0.41572376217272405], [-1.938484426043596, 6.5249239286890734, -0.41572376217272405], [-0.0, 3.7008836034945993, 11.38556958298024]], "pbc": [true, true, true], "a": 6.819470682657699, "b": 6.819470682657699, "c": 11.97195615492723, "alpha": 76.24314739115867, "beta": 76.24314739115867, "gamma": 33.02891971282665, "volume": 293.984812732595}, "properties": {}, "sites": [{"species": [{"element": "Yb", "occu": 1}], "abc": [0.887579673236849, 0.887579673236849, 0.9221871319809191], "properties": {"magmom": 0.0}, "label": "Yb", "xyz": [0.0, 14.995686933144185, 9.761649837725615]}, {"species": [{"element": "Yb", "occu": 1}], "abc": [0.11242032676315, 0.11242032676315, 0.07781286801908001], "properties": {"magmom": 0.0}, "label": "Yb", "xyz": [0.0, 1.7550445277285467, 0.7924722209091658]}, {"species": [{"element": "Yb", "occu": 1}], "abc": [0.7003972413655001, 0.7003972413655001, 0.6863628351203771], "properties": {"magmom": -0.0}, "label": "Yb", "xyz": [0.0, 11.680226402092206, 7.2322882660429215]}, {"species": [{"element": "Yb", "occu": 1}], "abc": [0.29960275863449903, 0.29960275863449903, 0.313637164879622], "properties": {"magmom": -0.0}, "label": "Yb", "xyz": [0.0, 5.070505058780524, 3.3218337925918617]}, {"species": [{"element": "Yb", "occu": 1}], "abc": [0.0, 0.0, 0.5], "properties": {"magmom": 0.0}, "label": "Yb", "xyz": [0.0, 1.8504418017472997, 5.69278479149012]}, {"species": [{"element": "Se", "occu": 1}], "abc": [0.258037609880439, 0.258037609880439, 0.8533648044086981], "properties": {"magmom": -0.0}, "label": "Se", "xyz": [0.0, 6.5255553628567515, 9.501499628338449]}, {"species": [{"element": "Se", "occu": 1}], "abc": [0.7419623901195601, 0.7419623901195601, 0.146635195591301], "properties": {"magmom": -0.0}, "label": "Se", "xyz": [0.0, 10.225176098015979, 1.0526224302963352]}, {"species": [{"element": "Se", "occu": 1}], "abc": [0.960299840450019, 0.960299840450019, 0.28483076923195905], "properties": {"magmom": 0.0}, "label": "Se", "xyz": [0.0, 13.585892338958567, 2.44452161749276]}, {"species": [{"element": "Se", "occu": 1}], "abc": [0.039700159549980005, 0.039700159549980005, 0.7151692307680401], "properties": {"magmom": 0.0}, "label": "Se", "xyz": [0.0, 3.1648391219141616, 8.109600441142023]}, {"species": [{"element": "Se", "occu": 1}], "abc": [0.340818116706017, 0.340818116706017, 0.5509373745555091], "properties": {"magmom": 0.0}, "label": "Se", "xyz": [0.0, 6.486579666096518, 5.9893634344789]}, {"species": [{"element": "Se", "occu": 1}], "abc": [0.6591818832939821, 0.6591818832939821, 0.44906262544449005], "properties": {"magmom": 0.0}, "label": "Se", "xyz": [0.0, 10.264151794776213, 4.564758624155884]}, {"species": [{"element": "Se", "occu": 1}], "abc": [0.5, 0.5, 0.0], "properties": {"magmom": 0.0}, "label": "Se", "xyz": [0.0, 6.5249239286890734, -0.41572376217272405]}]}, "task_ids": null, "uncorrected_energy_per_atom": null, "energy_per_atom": -25.669404547499997, "formation_energy_per_atom": -2.100419919036459, "energy_above_hull": 0.037352740000002, "is_stable": false, "equilibrium_reaction_energy_per_atom": null, "decomposes_to": null, "xas": null, "grain_boundaries": null, "band_gap": 0.0, "cbm": null, "vbm": null, "efermi": 4.78002506, "is_gap_direct": null, "is_metal": null, "es_source_calc_id": null, "bandstructure": null, "dos": null, "dos_energy_up": null, "dos_energy_down": null, "is_magnetic": null, "ordering": null, "total_magnetization": 0.0, "total_magnetization_normalized_vol": null, "total_magnetization_normalized_formula_units": null, "num_magnetic_sites": null, "num_unique_magnetic_sites": null, "types_of_magnetic_species": null, "bulk_modulus": null, "shear_modulus": null, "universal_anisotropy": null, "homogeneous_poisson": null, "e_total": null, "e_ionic": null, "e_electronic": null, "n": null, "e_ij_max": null, "weighted_surface_energy_EV_PER_ANG2": null, "weighted_surface_energy": null, "weighted_work_function": null, "surface_anisotropy": null, "shape_factor": null, "has_reconstructed": null, "possible_species": null, "has_props": null, "theoretical": null, "database_IDs": null, "fields_not_requested": ["builder_meta", "nsites", "elements", "nelements", "composition", "composition_reduced", "chemsys", "symmetry", "property_name", "deprecated", "deprecation_reasons", "last_updated", "origins", "warnings", "task_ids", "uncorrected_energy_per_atom", "equilibrium_reaction_energy_per_atom", "decomposes_to", "xas", "grain_boundaries", "cbm", "vbm", "is_gap_direct", "is_metal", "es_source_calc_id", "bandstructure", "dos", "dos_energy_up", "dos_energy_down", "is_magnetic", "ordering", "total_magnetization_normalized_vol", "total_magnetization_normalized_formula_units", "num_magnetic_sites", "num_unique_magnetic_sites", "types_of_magnetic_species", "bulk_modulus", "shear_modulus", "universal_anisotropy", "homogeneous_poisson", "e_total", "e_ionic", "e_electronic", "n", "e_ij_max", "weighted_surface_energy_EV_PER_ANG2", "weighted_surface_energy", "weighted_work_function", "surface_anisotropy", "shape_factor", "has_reconstructed", "possible_species", "has_props", "theoretical", "database_IDs"]}