{
  "builder_meta": null,
  "nsites": null,
  "elements": null,
  "nelements": null,
  "composition": null,
  "composition_reduced": null,
  "formula_pretty": "Yb5Si3",
  "formula_anonymous": "A3B5",
  "chemsys": null,
  "volume": 363.54152292011855,
  "density": 8.673615039202732,
  "density_atomic": 22.72134518250741,
  "symmetry": null,
  "property_name": null,
  "material_id": "mp-1188257",
  "deprecated": null,
  "deprecation_reasons": null,
  "last_updated": null,
  "origins": null,
  "warnings": null,
  "structure": {
    "@module": "pymatgen.core.structure",
    "@class": "Structure",
    "charge": 0.0,
    "lattice": {
      "matrix": [
        [0.0, 0.0, -6.187893922590994],
        [-4.11822258854088, -7.1329713404700215, -0.0],
        [-4.118234800143517, 7.132978799635583, 0.0]
      ],
      "pbc": [true, true, true],
      "a": 6.187893922590994,
      "b": 8.236445679583824,
      "c": 8.236458245214614,
      "alpha": 119.99995641328009,
      "beta": 90.0,
      "gamma": 90.0,
      "volume": 363.54152292011855
    },
    "properties": {},
    "sites": [
      {
        "species": [{ "element": "Yb", "occu": 1 }],
        "abc": [0.49999985269657504, 0.333338354104704, 0.6666771748652841],
        "properties": { "magmom": 0.0 },
        "label": "Yb",
        "xyz": [-4.118294681492609, 2.3777012280067145, -3.0939460497975286]
      },
      {
        "species": [{ "element": "Yb", "occu": 1 }],
        "abc": [0.49999985269657504, 0.6666611792391911, 0.333322825134715],
        "properties": { "magmom": 0.0 },
        "label": "Yb",
        "xyz": [-4.118160785398073, -2.3776904401965377, -3.0939460497975286]
      },
      {
        "species": [{ "element": "Yb", "occu": 1 }],
        "abc": [0.9999998526965751, 0.6666616458953031, 0.333322825134715],
        "properties": { "magmom": 0.0 },
        "label": "Yb",
        "xyz": [-4.118162707191814, -2.3776937688412105, -6.187893011093026]
      },
      {
        "species": [{ "element": "Yb", "occu": 1 }],
        "abc": [0.9999998526965751, 0.333338820760808, 0.6666771748652841],
        "properties": { "magmom": 0.0 },
        "label": "Yb",
        "xyz": [-4.118296603286317, 2.377697899362099, -6.187893011093026]
      },
      {
        "species": [{ "element": "Yb", "occu": 1 }],
        "abc": [0.749999588300674, 0.242072121457887, 0.9999999999913171],
        "properties": { "magmom": -0.0 },
        "label": "Yb",
        "xyz": [-5.115141678751641, 5.406285294887762, -4.640917894391488]
      },
      {
        "species": [{ "element": "Yb", "occu": 1 }],
        "abc": [0.7500004714070411, 0.7578907586527771, 0.7578954522887421],
        "properties": { "magmom": 0.0 },
        "label": "Yb",
        "xyz": [-6.24235426841626, 3.913283847811755e-5, -4.64092335896001]
      },
      {
        "species": [{ "element": "Yb", "occu": 1 }],
        "abc": [0.7500004714070411, 0.9999953063581721, 0.24210454772081302],
        "properties": { "magmom": 0.0 },
        "label": "Yb",
        "xyz": [-5.115246632775941, -5.40601125466946, -4.64092335896001]
      },
      {
        "species": [{ "element": "Yb", "occu": 1 }],
        "abc": [0.249999588300674, 0.7579278785421121, 8.6828e-12],
        "properties": { "magmom": -0.0 },
        "label": "Yb",
        "xyz": [-3.121315709932752, -5.406277835722195, -1.546970933095991]
      },
      {
        "species": [{ "element": "Yb", "occu": 1 }],
        "abc": [0.250000471407041, 0.24210924134722203, 0.24210454771125703],
        "properties": { "magmom": 0.0 },
        "label": "Yb",
        "xyz": [-1.9941031202681305, -3.167367291645462e-5, -1.5469763976645126]
      },
      {
        "species": [{ "element": "Yb", "occu": 1 }],
        "abc": [0.250000471407041, 4.6936418272e-6, 0.7578954522791861],
        "properties": { "magmom": 0.0 },
        "label": "Yb",
        "xyz": [-3.1212107559084497, 5.40601871383502, -1.5469763976645126]
      },
      {
        "species": [{ "element": "Si", "occu": 1 }],
        "abc": [0.750000006467288, 0.6056017129591701, 4.6683e-12],
        "properties": { "magmom": -0.0 },
        "label": "Si",
        "xyz": [-2.4940026539867297, -4.319739662244014, -4.640920481962137]
      },
      {
        "species": [{ "element": "Si", "occu": 1 }],
        "abc": [0.749999878512404, 0.39438387313352, 0.39439079167545504],
        "properties": { "magmom": 0.0 },
        "label": "Si",
        "xyz": [-3.248354458028714, 5.229158755160057e-5, -4.640919690190889]
      },
      {
        "species": [{ "element": "Si", "occu": 1 }],
        "abc": [0.749999878512404, 0.9999940814608831, 0.6056092083201741],
        "properties": { "magmom": 0.0 },
        "label": "Si",
        "xyz": [-6.612239131670904, -2.8131314798882316, -4.640919690190889]
      },
      {
        "species": [{ "element": "Si", "occu": 1 }],
        "abc": [0.25000000646728804, 0.394398287040829, 0.9999999999953311],
        "properties": { "magmom": -0.0 },
        "label": "Si",
        "xyz": [-5.742454734697661, 4.319747121409577, -1.5469735206666408]
      },
      {
        "species": [{ "element": "Si", "occu": 1 }],
        "abc": [0.24999987851240402, 0.605616126866479, 0.605609208324551],
        "properties": { "magmom": 0.0 },
        "label": "Si",
        "xyz": [-4.988102930655705, -4.483242194019965e-5, -1.5469727288953916]
      },
      {
        "species": [{ "element": "Si", "occu": 1 }],
        "abc": [0.24999987851240402, 5.918539116599998e-6, 0.39439079167982505],
        "properties": { "magmom": 0.0 },
        "label": "Si",
        "xyz": [-1.6242182570134889, 2.8131389390537893, -1.5469727288953916]
      }
    ]
  },
  "task_ids": null,
  "uncorrected_energy_per_atom": null,
  "energy_per_atom": -26.922833519375,
  "formation_energy_per_atom": -0.8018100556250011,
  "energy_above_hull": 0.0,
  "is_stable": true,
  "equilibrium_reaction_energy_per_atom": null,
  "decomposes_to": null,
  "xas": null,
  "grain_boundaries": null,
  "band_gap": 0.0,
  "cbm": null,
  "vbm": null,
  "efermi": 4.11180162,
  "is_gap_direct": null,
  "is_metal": null,
  "es_source_calc_id": null,
  "bandstructure": null,
  "dos": null,
  "dos_energy_up": null,
  "dos_energy_down": null,
  "is_magnetic": null,
  "ordering": null,
  "total_magnetization": 8.4e-6,
  "total_magnetization_normalized_vol": null,
  "total_magnetization_normalized_formula_units": null,
  "num_magnetic_sites": null,
  "num_unique_magnetic_sites": null,
  "types_of_magnetic_species": null,
  "bulk_modulus": null,
  "shear_modulus": null,
  "universal_anisotropy": null,
  "homogeneous_poisson": null,
  "e_total": null,
  "e_ionic": null,
  "e_electronic": null,
  "n": null,
  "e_ij_max": null,
  "weighted_surface_energy_EV_PER_ANG2": null,
  "weighted_surface_energy": null,
  "weighted_work_function": null,
  "surface_anisotropy": null,
  "shape_factor": null,
  "has_reconstructed": null,
  "possible_species": null,
  "has_props": null,
  "theoretical": null,
  "database_IDs": null,
  "fields_not_requested": [
    "builder_meta",
    "nsites",
    "elements",
    "nelements",
    "composition",
    "composition_reduced",
    "chemsys",
    "symmetry",
    "property_name",
    "deprecated",
    "deprecation_reasons",
    "last_updated",
    "origins",
    "warnings",
    "task_ids",
    "uncorrected_energy_per_atom",
    "equilibrium_reaction_energy_per_atom",
    "decomposes_to",
    "xas",
    "grain_boundaries",
    "cbm",
    "vbm",
    "is_gap_direct",
    "is_metal",
    "es_source_calc_id",
    "bandstructure",
    "dos",
    "dos_energy_up",
    "dos_energy_down",
    "is_magnetic",
    "ordering",
    "total_magnetization_normalized_vol",
    "total_magnetization_normalized_formula_units",
    "num_magnetic_sites",
    "num_unique_magnetic_sites",
    "types_of_magnetic_species",
    "bulk_modulus",
    "shear_modulus",
    "universal_anisotropy",
    "homogeneous_poisson",
    "e_total",
    "e_ionic",
    "e_electronic",
    "n",
    "e_ij_max",
    "weighted_surface_energy_EV_PER_ANG2",
    "weighted_surface_energy",
    "weighted_work_function",
    "surface_anisotropy",
    "shape_factor",
    "has_reconstructed",
    "possible_species",
    "has_props",
    "theoretical",
    "database_IDs"
  ]
}
