{"builder_meta": null, "nsites": null, "elements": null, "nelements": null, "composition": null, "composition_reduced": null, "formula_pretty": "Yb5Sb3", "formula_anonymous": "A3B5", "chemsys": null, "volume": 412.10560113328546, "density": 9.91619674690675, "density_atomic": 25.75660007083034, "symmetry": null, "property_name": null, "material_id": "mp-201", "deprecated": null, "deprecation_reasons": null, "last_updated": null, "origins": null, "warnings": null, "structure": {"@module": "pymatgen.core.structure", "@class": "Structure", "charge": 0.0, "lattice": {"matrix": [[4.387206553279223, -7.598865239447272, 0.0], [4.387206553279223, 7.598865239447272, -0.0], [-0.0, -0.0, 6.180757394596043]], "pbc": [true, true, true], "a": 8.774413613935476, "b": 8.774413613935476, "c": 6.180757394596043, "alpha": 90.0, "beta": 90.0, "gamma": 120.00000382564522, "volume": 412.10560113328546}, "properties": {}, "sites": [{"species": [{"element": "Yb", "occu": 1}], "abc": [1.3003e-12, 0.7530937786524411, 0.75], "properties": {"magmom": -0.076}, "label": "Yb", "xyz": [3.303977960943507, 5.722658136636151, 4.635568045947032]}, {"species": [{"element": "Yb", "occu": 1}], "abc": [0.999999999998699, 0.24690622134755802, 0.25], "properties": {"magmom": -0.076}, "label": "Yb", "xyz": [5.470435145614933, -5.722658136636154, 1.5451893486490107]}, {"species": [{"element": "Yb", "occu": 1}], "abc": [0.753093778653742, 0.753093778653742, 0.25], "properties": {"magmom": -0.076}, "label": "Yb", "xyz": [6.60795592188702, 0.0, 1.5451893486490107]}, {"species": [{"element": "Yb", "occu": 1}], "abc": [0.7530937786524411, 1.3003e-12, 0.75], "properties": {"magmom": -0.076}, "label": "Yb", "xyz": [3.303977960943507, -5.722658136636151, 4.635568045947032]}, {"species": [{"element": "Yb", "occu": 1}], "abc": [0.24690622134625703, 0.24690622134625703, 0.75], "properties": {"magmom": -0.076}, "label": "Yb", "xyz": [2.1664571846714185, 0.0, 4.635568045947032]}, {"species": [{"element": "Yb", "occu": 1}], "abc": [0.24690622134755802, 0.999999999998699, 0.25], "properties": {"magmom": -0.076}, "label": "Yb", "xyz": [5.470435145614933, 5.722658136636154, 1.5451893486490107]}, {"species": [{"element": "Yb", "occu": 1}], "abc": [0.33333300000000304, 0.666666999999996, 0.5], "properties": {"magmom": -0.203}, "label": "Yb", "xyz": [4.387206553279219, 2.5329601457258635, 3.0903786972980214]}, {"species": [{"element": "Yb", "occu": 1}], "abc": [0.666666999999996, 0.33333300000000304, 0.0], "properties": {"magmom": -0.203}, "label": "Yb", "xyz": [4.387206553279219, -2.5329601457258635, 0.0]}, {"species": [{"element": "Yb", "occu": 1}], "abc": [0.666666999999996, 0.33333300000000304, 0.5], "properties": {"magmom": -0.203}, "label": "Yb", "xyz": [4.387206553279219, -2.5329601457258635, 3.0903786972980214]}, {"species": [{"element": "Yb", "occu": 1}], "abc": [0.33333300000000304, 0.666666999999996, 0.0], "properties": {"magmom": -0.203}, "label": "Yb", "xyz": [4.387206553279219, 2.5329601457258635, 0.0]}, {"species": [{"element": "Sb", "occu": 1}], "abc": [0.38804512802484903, 5.898e-13, 0.75], "properties": {"magmom": 0.012}, "label": "Sb", "xyz": [1.7024341286412803, -2.94870263468041, 4.635568045947032]}, {"species": [{"element": "Sb", "occu": 1}], "abc": [0.388045128025424, 0.388045128025424, 0.25], "properties": {"magmom": 0.012}, "label": "Sb", "xyz": [3.404868257282431, 0.0, 1.5451893486490107]}, {"species": [{"element": "Sb", "occu": 1}], "abc": [0.99999999999941, 0.6119548719751571, 0.25], "properties": {"magmom": 0.012}, "label": "Sb", "xyz": [7.071978977917192, -2.9487026346803615, 1.5451893486490107]}, {"species": [{"element": "Sb", "occu": 1}], "abc": [5.898e-13, 0.38804512802484903, 0.75], "properties": {"magmom": 0.012}, "label": "Sb", "xyz": [1.7024341286412803, 2.94870263468041, 4.635568045947032]}, {"species": [{"element": "Sb", "occu": 1}], "abc": [0.6119548719745751, 0.6119548719745751, 0.75], "properties": {"magmom": 0.012}, "label": "Sb", "xyz": [5.369544849276008, 0.0, 4.635568045947032]}, {"species": [{"element": "Sb", "occu": 1}], "abc": [0.6119548719751571, 0.99999999999941, 0.25], "properties": {"magmom": 0.012}, "label": "Sb", "xyz": [7.071978977917192, 2.9487026346803615, 1.5451893486490107]}]}, "task_ids": null, "uncorrected_energy_per_atom": null, "energy_per_atom": -33.4430609525, "formation_energy_per_atom": -0.972330813124997, "energy_above_hull": 0.0, "is_stable": true, "equilibrium_reaction_energy_per_atom": null, "decomposes_to": null, "xas": null, "grain_boundaries": null, "band_gap": 0.0, "cbm": null, "vbm": null, "efermi": 3.9790614300000002, "is_gap_direct": null, "is_metal": null, "es_source_calc_id": null, "bandstructure": null, "dos": null, "dos_energy_up": null, "dos_energy_down": null, "is_magnetic": null, "ordering": null, "total_magnetization": 1.3562419000000001, "total_magnetization_normalized_vol": null, "total_magnetization_normalized_formula_units": null, "num_magnetic_sites": null, "num_unique_magnetic_sites": null, "types_of_magnetic_species": null, "bulk_modulus": null, "shear_modulus": null, "universal_anisotropy": null, "homogeneous_poisson": null, "e_total": null, "e_ionic": null, "e_electronic": null, "n": null, "e_ij_max": null, "weighted_surface_energy_EV_PER_ANG2": null, "weighted_surface_energy": null, "weighted_work_function": null, "surface_anisotropy": null, "shape_factor": null, "has_reconstructed": null, "possible_species": null, "has_props": null, "theoretical": null, "database_IDs": null, "fields_not_requested": ["builder_meta", "nsites", "elements", "nelements", "composition", "composition_reduced", "chemsys", "symmetry", "property_name", "deprecated", "deprecation_reasons", "last_updated", "origins", "warnings", "task_ids", "uncorrected_energy_per_atom", "equilibrium_reaction_energy_per_atom", "decomposes_to", "xas", "grain_boundaries", "cbm", "vbm", "is_gap_direct", "is_metal", "es_source_calc_id", "bandstructure", "dos", "dos_energy_up", "dos_energy_down", "is_magnetic", "ordering", "total_magnetization_normalized_vol", "total_magnetization_normalized_formula_units", "num_magnetic_sites", "num_unique_magnetic_sites", "types_of_magnetic_species", "bulk_modulus", "shear_modulus", "universal_anisotropy", "homogeneous_poisson", "e_total", "e_ionic", "e_electronic", "n", "e_ij_max", "weighted_surface_energy_EV_PER_ANG2", "weighted_surface_energy", "weighted_work_function", "surface_anisotropy", "shape_factor", "has_reconstructed", "possible_species", "has_props", "theoretical", "database_IDs"]}