{"builder_meta": null, "nsites": null, "elements": null, "nelements": null, "composition": null, "composition_reduced": null, "formula_pretty": "Yb5Si4", "formula_anonymous": "A4B5", "chemsys": null, "volume": 776.0270663970467, "density": 8.36695909475806, "density_atomic": 21.556307399917966, "symmetry": null, "property_name": null, "material_id": "mp-20101", "deprecated": null, "deprecation_reasons": null, "last_updated": null, "origins": null, "warnings": null, "structure": {"@module": "pymatgen.core.structure", "@class": "Structure", "charge": 0.0, "lattice": {"matrix": [[7.245638132623902, -0.0, 0.0], [-0.0, 7.5333700476007355, 0.0], [0.0, 0.0, 14.217097034120204]], "pbc": [true, true, true], "a": 7.245638132623902, "b": 7.5333700476007355, "c": 14.217097034120204, "alpha": 90.0, "beta": 90.0, "gamma": 90.0, "volume": 776.0270663970466}, "properties": {}, "sites": [{"species": [{"element": "Yb", "occu": 1}], "abc": [0.321727486053539, 0.17948192863524, 0.123839056516665], "properties": {"magmom": -0.001}, "label": "Yb", "xyz": [2.3311209412627467, 1.3521037852663298, 1.7606318831113223]}, {"species": [{"element": "Yb", "occu": 1}], "abc": [0.8217274860535391, 0.320518071364759, 0.376160943483334], "properties": {"magmom": -0.001}, "label": "Yb", "xyz": [5.953940007574698, 2.4145812385340304, 5.347916633948766]}, {"species": [{"element": "Yb", "occu": 1}], "abc": [0.178272513946467, 0.67948192863524, 0.8761609434833341], "properties": {"magmom": -0.001}, "label": "Yb", "xyz": [1.2916981250492476, 5.1187888090666975, 12.456465151008869]}, {"species": [{"element": "Yb", "occu": 1}], "abc": [0.67827251394646, 0.8205180713647591, 0.623839056516665], "properties": {"magmom": -0.001}, "label": "Yb", "xyz": [4.914517191361148, 6.181266262334399, 8.869180400171425]}, {"species": [{"element": "Yb", "occu": 1}], "abc": [0.321727486053539, 0.17948192863524, 0.376160943483334], "properties": {"magmom": -0.001}, "label": "Yb", "xyz": [2.3311209412627467, 1.3521037852663298, 5.347916633948766]}, {"species": [{"element": "Yb", "occu": 1}], "abc": [0.8217274860535391, 0.320518071364759, 0.123839056516665], "properties": {"magmom": -0.001}, "label": "Yb", "xyz": [5.953940007574698, 2.4145812385340304, 1.7606318831113223]}, {"species": [{"element": "Yb", "occu": 1}], "abc": [0.178272513946467, 0.67948192863524, 0.623839056516665], "properties": {"magmom": -0.001}, "label": "Yb", "xyz": [1.2916981250492476, 5.1187888090666975, 8.869180400171425]}, {"species": [{"element": "Yb", "occu": 1}], "abc": [0.67827251394646, 0.8205180713647591, 0.8761609434833341], "properties": {"magmom": -0.001}, "label": "Yb", "xyz": [4.914517191361148, 6.181266262334399, 12.456465151008869]}, {"species": [{"element": "Yb", "occu": 1}], "abc": [0.977518085354489, 0.8194190228531251, 0.402437124567931], "properties": {"magmom": -0.0}, "label": "Yb", "xyz": [7.082742314573991, 6.1729867231959945, 5.721487650114595]}, {"species": [{"element": "Yb", "occu": 1}], "abc": [0.47751808535448903, 0.680580977146874, 0.09756287543206801], "properties": {"magmom": -0.0}, "label": "Yb", "xyz": [3.4599232482620406, 5.127068348205102, 1.3870608669454931]}, {"species": [{"element": "Yb", "occu": 1}], "abc": [0.5224819146455101, 0.319419022853125, 0.5975628754320681], "properties": {"magmom": -0.0}, "label": "Yb", "xyz": [3.7857148843618544, 2.4063016993956268, 8.495609384005597]}, {"species": [{"element": "Yb", "occu": 1}], "abc": [0.022481914645510002, 0.18058097714687402, 0.902437124567931], "properties": {"magmom": -0.0}, "label": "Yb", "xyz": [0.16289581804990302, 1.3603833244047336, 12.830036167174697]}, {"species": [{"element": "Yb", "occu": 1}], "abc": [0.022481914645510002, 0.18058097714687402, 0.5975628754320681], "properties": {"magmom": -0.0}, "label": "Yb", "xyz": [0.16289581804990302, 1.3603833244047336, 8.495609384005597]}, {"species": [{"element": "Yb", "occu": 1}], "abc": [0.5224819146455101, 0.319419022853125, 0.902437124567931], "properties": {"magmom": -0.0}, "label": "Yb", "xyz": [3.7857148843618544, 2.4063016993956268, 12.830036167174697]}, {"species": [{"element": "Yb", "occu": 1}], "abc": [0.47751808535448903, 0.680580977146874, 0.402437124567931], "properties": {"magmom": -0.0}, "label": "Yb", "xyz": [3.4599232482620406, 5.127068348205102, 5.721487650114595]}, {"species": [{"element": "Yb", "occu": 1}], "abc": [0.977518085354489, 0.8194190228531251, 0.09756287543206801], "properties": {"magmom": -0.0}, "label": "Yb", "xyz": [7.082742314573991, 6.1729867231959945, 1.3870608669454931]}, {"species": [{"element": "Yb", "occu": 1}], "abc": [0.346985804934732, 0.011035048494292, 0.75], "properties": {"magmom": 0.0}, "label": "Yb", "xyz": [2.514133579714293, 0.08313110380072095, 10.662822775590154]}, {"species": [{"element": "Yb", "occu": 1}], "abc": [0.8469858049347321, 0.488964951505707, 0.75], "properties": {"magmom": 0.0}, "label": "Yb", "xyz": [6.136952646026244, 3.6835539199996394, 10.662822775590154]}, {"species": [{"element": "Yb", "occu": 1}], "abc": [0.153014195065267, 0.511035048494292, 0.25], "properties": {"magmom": 0.0}, "label": "Yb", "xyz": [1.1086854865976508, 3.849816127601089, 3.554274258530051]}, {"species": [{"element": "Yb", "occu": 1}], "abc": [0.653014195065267, 0.9889649515057071, 0.25], "properties": {"magmom": 0.0}, "label": "Yb", "xyz": [4.731504552909602, 7.450238943800008, 3.554274258530051]}, {"species": [{"element": "Si", "occu": 1}], "abc": [0.8479245740779711, 0.5294042607882681, 0.5391760080316811], "properties": {"magmom": -0.0}, "label": "Si", "xyz": [6.143754627528227, 3.9881982012945474, 7.665517624655985]}, {"species": [{"element": "Si", "occu": 1}], "abc": [0.347924574077971, 0.970595739211731, 0.960823991968318], "properties": {"magmom": -0.0}, "label": "Si", "xyz": [2.5209355612162763, 7.311856870106549, 13.660127926524309]}, {"species": [{"element": "Si", "occu": 1}], "abc": [0.652075425922028, 0.029404260788268, 0.460823991968318], "properties": {"magmom": -0.0}, "label": "Si", "xyz": [4.724702571407619, 0.22151317749417895, 6.551579409464207]}, {"species": [{"element": "Si", "occu": 1}], "abc": [0.15207542592202802, 0.47059573921173103, 0.039176008031681], "properties": {"magmom": -0.0}, "label": "Si", "xyz": [1.1018835050956677, 3.5451718463061814, 0.5569691075958813]}, {"species": [{"element": "Si", "occu": 1}], "abc": [0.15207542592202802, 0.47059573921173103, 0.460823991968318], "properties": {"magmom": -0.0}, "label": "Si", "xyz": [1.1018835050956677, 3.5451718463061814, 6.551579409464207]}, {"species": [{"element": "Si", "occu": 1}], "abc": [0.652075425922028, 0.029404260788268, 0.039176008031681], "properties": {"magmom": -0.0}, "label": "Si", "xyz": [4.724702571407619, 0.22151317749417895, 0.5569691075958813]}, {"species": [{"element": "Si", "occu": 1}], "abc": [0.347924574077971, 0.970595739211731, 0.5391760080316811], "properties": {"magmom": -0.0}, "label": "Si", "xyz": [2.5209355612162763, 7.311856870106549, 7.665517624655985]}, {"species": [{"element": "Si", "occu": 1}], "abc": [0.8479245740779711, 0.5294042607882681, 0.960823991968318], "properties": {"magmom": -0.0}, "label": "Si", "xyz": [6.143754627528227, 3.9881982012945474, 13.660127926524309]}, {"species": [{"element": "Si", "occu": 1}], "abc": [0.9758274794575571, 0.89532853503519, 0.75], "properties": {"magmom": -0.0}, "label": "Si", "xyz": [7.070492796019943, 6.744841168596347, 10.662822775590154]}, {"species": [{"element": "Si", "occu": 1}], "abc": [0.47582747945755705, 0.6046714649648091, 0.75], "properties": {"magmom": -0.0}, "label": "Si", "xyz": [3.4476737297079914, 4.55521390280475, 10.662822775590154]}, {"species": [{"element": "Si", "occu": 1}], "abc": [0.524172520542443, 0.39532853503519005, 0.25], "properties": {"magmom": -0.0}, "label": "Si", "xyz": [3.7979644029159103, 2.9781561447959786, 3.554274258530051]}, {"species": [{"element": "Si", "occu": 1}], "abc": [0.024172520542443003, 0.104671464964809, 0.25], "properties": {"magmom": -0.0}, "label": "Si", "xyz": [0.17514533660395962, 0.788528879004382, 3.554274258530051]}, {"species": [{"element": "Si", "occu": 1}], "abc": [0.22627627055569302, 0.36954878939067004, 0.75], "properties": {"magmom": -0.0}, "label": "Si", "xyz": [1.6395159744462524, 2.783947781122786, 10.662822775590154]}, {"species": [{"element": "Si", "occu": 1}], "abc": [0.7262762705556931, 0.13045121060932902, 0.75], "properties": {"magmom": -0.0}, "label": "Si", "xyz": [5.262335040758204, 0.9827372426775745, 10.662822775590154]}, {"species": [{"element": "Si", "occu": 1}], "abc": [0.273723729444306, 0.86954878939067, 0.25], "properties": {"magmom": -0.0}, "label": "Si", "xyz": [1.9833030918656915, 6.550632804923154, 3.554274258530051]}, {"species": [{"element": "Si", "occu": 1}], "abc": [0.773723729444306, 0.6304512106093291, 0.25], "properties": {"magmom": -0.0}, "label": "Si", "xyz": [5.606122158177643, 4.749422266477943, 3.554274258530051]}]}, "task_ids": null, "uncorrected_energy_per_atom": null, "energy_per_atom": -25.014760709444445, "formation_energy_per_atom": -0.8212104533333341, "energy_above_hull": 0.026577040833334002, "is_stable": false, "equilibrium_reaction_energy_per_atom": null, "decomposes_to": null, "xas": null, "grain_boundaries": null, "band_gap": 0.0, "cbm": null, "vbm": null, "efermi": 2.96813763, "is_gap_direct": null, "is_metal": null, "es_source_calc_id": null, "bandstructure": null, "dos": null, "dos_energy_up": null, "dos_energy_down": null, "is_magnetic": null, "ordering": null, "total_magnetization": 0.0101958, "total_magnetization_normalized_vol": null, "total_magnetization_normalized_formula_units": null, "num_magnetic_sites": null, "num_unique_magnetic_sites": null, "types_of_magnetic_species": null, "bulk_modulus": null, "shear_modulus": null, "universal_anisotropy": null, "homogeneous_poisson": null, "e_total": null, "e_ionic": null, "e_electronic": null, "n": null, "e_ij_max": null, "weighted_surface_energy_EV_PER_ANG2": null, "weighted_surface_energy": null, "weighted_work_function": null, "surface_anisotropy": null, "shape_factor": null, "has_reconstructed": null, "possible_species": null, "has_props": null, "theoretical": null, "database_IDs": null, "fields_not_requested": ["builder_meta", "nsites", "elements", "nelements", "composition", "composition_reduced", "chemsys", "symmetry", "property_name", "deprecated", "deprecation_reasons", "last_updated", "origins", "warnings", "task_ids", "uncorrected_energy_per_atom", "equilibrium_reaction_energy_per_atom", "decomposes_to", "xas", "grain_boundaries", "cbm", "vbm", "is_gap_direct", "is_metal", "es_source_calc_id", "bandstructure", "dos", "dos_energy_up", "dos_energy_down", "is_magnetic", "ordering", "total_magnetization_normalized_vol", "total_magnetization_normalized_formula_units", "num_magnetic_sites", "num_unique_magnetic_sites", "types_of_magnetic_species", "bulk_modulus", "shear_modulus", "universal_anisotropy", "homogeneous_poisson", "e_total", "e_ionic", "e_electronic", "n", "e_ij_max", "weighted_surface_energy_EV_PER_ANG2", "weighted_surface_energy", "weighted_work_function", "surface_anisotropy", "shape_factor", "has_reconstructed", "possible_species", "has_props", "theoretical", "database_IDs"]}