{
  "builder_meta": null,
  "nsites": null,
  "elements": null,
  "nelements": null,
  "composition": null,
  "composition_reduced": null,
  "formula_pretty": "YbAu4",
  "formula_anonymous": "AB4",
  "chemsys": null,
  "volume": 92.8794940925878,
  "density": 17.17949076088324,
  "density_atomic": 18.575898818517558,
  "symmetry": null,
  "property_name": null,
  "material_id": "mp-11262",
  "deprecated": null,
  "deprecation_reasons": null,
  "last_updated": null,
  "origins": null,
  "warnings": null,
  "structure": {
    "@module": "pymatgen.core.structure",
    "@class": "Structure",
    "charge": 0.0,
    "lattice": {
      "matrix": [
        [-3.348501042374467, 3.34850103523138, 2.070899264358684],
        [3.348501042374467, -3.34850103523138, 2.070899264358684],
        [3.34850103523138, 3.348501042374467, -2.070899264358684]
      ],
      "pbc": [true, true, true],
      "a": 5.16851450388309,
      "b": 5.16851450388309,
      "c": 5.16851450388309,
      "alpha": 99.23831002046828,
      "beta": 99.23831002046828,
      "gamma": 132.75912035223092,
      "volume": 92.8794940925878
    },
    "properties": {},
    "sites": [
      {
        "species": [{ "element": "Yb", "occu": 1 }],
        "abc": [0.0, 0.0, 0.0],
        "properties": { "magmom": -0.0 },
        "label": "Yb",
        "xyz": [0.0, 0.0, 0.0]
      },
      {
        "species": [{ "element": "Au", "occu": 1 }],
        "abc": [0.39934975764121106, 0.7998521141694821, 0.1992018718107],
        "properties": { "magmom": 0.0 },
        "label": "Au",
        "xyz": [2.0081102322865036, -0.6740548800464488, 2.07089926435867]
      },
      {
        "species": [{ "element": "Au", "occu": 1 }],
        "abc": [0.6006502423587881, 0.200147885830517, 0.8007981281893061],
        "properties": { "magmom": 0.0 },
        "label": "Au",
        "xyz": [1.3403908029448965, 4.022555922420937, -2.220446049250313e-15]
      },
      {
        "species": [{ "element": "Au", "occu": 1 }],
        "abc": [0.200147885830517, 0.39934975764121106, 0.5994986434717261],
        "properties": { "magmom": 0.0 },
        "label": "Au",
        "xyz": [2.6744495036859366, 1.340394158589016, -2.0708992602980203e-6]
      },
      {
        "species": [{ "element": "Au", "occu": 1 }],
        "abc": [0.7998521141694821, 0.6006502423587881, 0.400501356528273],
        "properties": { "magmom": 0.0 },
        "label": "Au",
        "xyz": [0.6740515315454405, 2.008106883785448, 2.0709013352579424]
      }
    ]
  },
  "task_ids": null,
  "uncorrected_energy_per_atom": null,
  "energy_per_atom": -48.43904824,
  "formation_energy_per_atom": -0.6652043629999981,
  "energy_above_hull": 0.0,
  "is_stable": true,
  "equilibrium_reaction_energy_per_atom": null,
  "decomposes_to": null,
  "xas": null,
  "grain_boundaries": null,
  "band_gap": 0.0,
  "cbm": null,
  "vbm": null,
  "efermi": 4.03924298,
  "is_gap_direct": null,
  "is_metal": null,
  "es_source_calc_id": null,
  "bandstructure": null,
  "dos": null,
  "dos_energy_up": null,
  "dos_energy_down": null,
  "is_magnetic": null,
  "ordering": null,
  "total_magnetization": 0.0,
  "total_magnetization_normalized_vol": null,
  "total_magnetization_normalized_formula_units": null,
  "num_magnetic_sites": null,
  "num_unique_magnetic_sites": null,
  "types_of_magnetic_species": null,
  "bulk_modulus": null,
  "shear_modulus": null,
  "universal_anisotropy": null,
  "homogeneous_poisson": null,
  "e_total": null,
  "e_ionic": null,
  "e_electronic": null,
  "n": null,
  "e_ij_max": null,
  "weighted_surface_energy_EV_PER_ANG2": null,
  "weighted_surface_energy": null,
  "weighted_work_function": null,
  "surface_anisotropy": null,
  "shape_factor": null,
  "has_reconstructed": null,
  "possible_species": null,
  "has_props": null,
  "theoretical": null,
  "database_IDs": null,
  "fields_not_requested": [
    "builder_meta",
    "nsites",
    "elements",
    "nelements",
    "composition",
    "composition_reduced",
    "chemsys",
    "symmetry",
    "property_name",
    "deprecated",
    "deprecation_reasons",
    "last_updated",
    "origins",
    "warnings",
    "task_ids",
    "uncorrected_energy_per_atom",
    "equilibrium_reaction_energy_per_atom",
    "decomposes_to",
    "xas",
    "grain_boundaries",
    "cbm",
    "vbm",
    "is_gap_direct",
    "is_metal",
    "es_source_calc_id",
    "bandstructure",
    "dos",
    "dos_energy_up",
    "dos_energy_down",
    "is_magnetic",
    "ordering",
    "total_magnetization_normalized_vol",
    "total_magnetization_normalized_formula_units",
    "num_magnetic_sites",
    "num_unique_magnetic_sites",
    "types_of_magnetic_species",
    "bulk_modulus",
    "shear_modulus",
    "universal_anisotropy",
    "homogeneous_poisson",
    "e_total",
    "e_ionic",
    "e_electronic",
    "n",
    "e_ij_max",
    "weighted_surface_energy_EV_PER_ANG2",
    "weighted_surface_energy",
    "weighted_work_function",
    "surface_anisotropy",
    "shape_factor",
    "has_reconstructed",
    "possible_species",
    "has_props",
    "theoretical",
    "database_IDs"
  ]
}
