{
  "builder_meta": null,
  "nsites": null,
  "elements": null,
  "nelements": null,
  "composition": null,
  "composition_reduced": null,
  "formula_pretty": "YbAu",
  "formula_anonymous": "AB",
  "chemsys": null,
  "volume": 178.9870553492106,
  "density": 13.730833473390359,
  "density_atomic": 22.373381918651326,
  "symmetry": null,
  "property_name": null,
  "material_id": "mp-1084808",
  "deprecated": null,
  "deprecation_reasons": null,
  "last_updated": null,
  "origins": null,
  "warnings": null,
  "structure": {
    "@module": "pymatgen.core.structure",
    "@class": "Structure",
    "charge": 0.0,
    "lattice": {
      "matrix": [
        [4.6251007856852855, -0.0, 0.0],
        [-0.0, 5.521291925662816, 0.0],
        [0.0, 0.0, 7.009058943045047]
      ],
      "pbc": [true, true, true],
      "a": 4.6251007856852855,
      "b": 5.521291925662816,
      "c": 7.009058943045047,
      "alpha": 90.0,
      "beta": 90.0,
      "gamma": 90.0,
      "volume": 178.98705534921064
    },
    "properties": {},
    "sites": [
      {
        "species": [{ "element": "Yb", "occu": 1 }],
        "abc": [0.25, 0.34518937641520603, 0.687915268522836],
        "properties": { "magmom": -0.0 },
        "label": "Yb",
        "xyz": [1.1562751964213214, 1.9058913168258595, 4.821638664897218]
      },
      {
        "species": [{ "element": "Yb", "occu": 1 }],
        "abc": [0.25, 0.154810623584793, 0.18791526852283602],
        "properties": { "magmom": -0.0 },
        "label": "Yb",
        "xyz": [1.1562751964213214, 0.8547546460055432, 1.3171091933746952]
      },
      {
        "species": [{ "element": "Yb", "occu": 1 }],
        "abc": [0.75, 0.654810623584793, 0.31208473147716304],
        "properties": { "magmom": -0.0 },
        "label": "Yb",
        "xyz": [3.468825589263964, 3.6154006088369517, 2.1874202781478216]
      },
      {
        "species": [{ "element": "Yb", "occu": 1 }],
        "abc": [0.75, 0.8451893764152061, 0.8120847314771631],
        "properties": { "magmom": -0.0 },
        "label": "Yb",
        "xyz": [3.468825589263964, 4.666537279657268, 5.6919497496703455]
      },
      {
        "species": [{ "element": "Au", "occu": 1 }],
        "abc": [0.25, 0.8388545873673431, 0.541465947384509],
        "properties": { "magmom": -0.0 },
        "label": "Au",
        "xyz": [1.1562751964213214, 4.631561060036525, 3.795166740869752]
      },
      {
        "species": [{ "element": "Au", "occu": 1 }],
        "abc": [0.25, 0.661145412632656, 0.041465947384509004],
        "properties": { "magmom": -0.0 },
        "label": "Au",
        "xyz": [1.1562751964213214, 3.6503768284576945, 0.2906372693472282]
      },
      {
        "species": [{ "element": "Au", "occu": 1 }],
        "abc": [0.75, 0.161145412632656, 0.45853405261549],
        "properties": { "magmom": -0.0 },
        "label": "Au",
        "xyz": [3.468825589263964, 0.8897308656262863, 3.2138922021752885]
      },
      {
        "species": [{ "element": "Au", "occu": 1 }],
        "abc": [0.75, 0.33885458736734303, 0.9585340526154901],
        "properties": { "magmom": -0.0 },
        "label": "Au",
        "xyz": [3.468825589263964, 1.8709150972051165, 6.718421673697812]
      }
    ]
  },
  "task_ids": null,
  "uncorrected_energy_per_atom": null,
  "energy_per_atom": -44.56049997125,
  "formation_energy_per_atom": -1.00333050375,
  "energy_above_hull": 0.0,
  "is_stable": true,
  "equilibrium_reaction_energy_per_atom": null,
  "decomposes_to": null,
  "xas": null,
  "grain_boundaries": null,
  "band_gap": 0.0,
  "cbm": null,
  "vbm": null,
  "efermi": 3.27864688,
  "is_gap_direct": null,
  "is_metal": null,
  "es_source_calc_id": null,
  "bandstructure": null,
  "dos": null,
  "dos_energy_up": null,
  "dos_energy_down": null,
  "is_magnetic": null,
  "ordering": null,
  "total_magnetization": 0.0,
  "total_magnetization_normalized_vol": null,
  "total_magnetization_normalized_formula_units": null,
  "num_magnetic_sites": null,
  "num_unique_magnetic_sites": null,
  "types_of_magnetic_species": null,
  "bulk_modulus": null,
  "shear_modulus": null,
  "universal_anisotropy": null,
  "homogeneous_poisson": null,
  "e_total": null,
  "e_ionic": null,
  "e_electronic": null,
  "n": null,
  "e_ij_max": null,
  "weighted_surface_energy_EV_PER_ANG2": null,
  "weighted_surface_energy": null,
  "weighted_work_function": null,
  "surface_anisotropy": null,
  "shape_factor": null,
  "has_reconstructed": null,
  "possible_species": null,
  "has_props": null,
  "theoretical": null,
  "database_IDs": null,
  "fields_not_requested": [
    "builder_meta",
    "nsites",
    "elements",
    "nelements",
    "composition",
    "composition_reduced",
    "chemsys",
    "symmetry",
    "property_name",
    "deprecated",
    "deprecation_reasons",
    "last_updated",
    "origins",
    "warnings",
    "task_ids",
    "uncorrected_energy_per_atom",
    "equilibrium_reaction_energy_per_atom",
    "decomposes_to",
    "xas",
    "grain_boundaries",
    "cbm",
    "vbm",
    "is_gap_direct",
    "is_metal",
    "es_source_calc_id",
    "bandstructure",
    "dos",
    "dos_energy_up",
    "dos_energy_down",
    "is_magnetic",
    "ordering",
    "total_magnetization_normalized_vol",
    "total_magnetization_normalized_formula_units",
    "num_magnetic_sites",
    "num_unique_magnetic_sites",
    "types_of_magnetic_species",
    "bulk_modulus",
    "shear_modulus",
    "universal_anisotropy",
    "homogeneous_poisson",
    "e_total",
    "e_ionic",
    "e_electronic",
    "n",
    "e_ij_max",
    "weighted_surface_energy_EV_PER_ANG2",
    "weighted_surface_energy",
    "weighted_work_function",
    "surface_anisotropy",
    "shape_factor",
    "has_reconstructed",
    "possible_species",
    "has_props",
    "theoretical",
    "database_IDs"
  ]
}
