{
  "builder_meta": null,
  "nsites": null,
  "elements": null,
  "nelements": null,
  "composition": null,
  "composition_reduced": null,
  "formula_pretty": "YbAu3",
  "formula_anonymous": "AB3",
  "chemsys": null,
  "volume": 152.40542928105052,
  "density": 16.64706741727847,
  "density_atomic": 19.050678660131315,
  "symmetry": null,
  "property_name": null,
  "material_id": "mp-568823",
  "deprecated": null,
  "deprecation_reasons": null,
  "last_updated": null,
  "origins": null,
  "warnings": null,
  "structure": {
    "@module": "pymatgen.core.structure",
    "@class": "Structure",
    "charge": 0.0,
    "lattice": {
      "matrix": [
        [4.942020676458168, 0.0, 0.0],
        [0.0, 5.088626343088333, 0.0],
        [0.0, 0.0, 6.060316678878889]
      ],
      "pbc": [true, true, true],
      "a": 4.942020676458168,
      "b": 5.088626343088333,
      "c": 6.060316678878889,
      "alpha": 90.0,
      "beta": 90.0,
      "gamma": 90.0,
      "volume": 152.40542928105052
    },
    "properties": {},
    "sites": [
      {
        "species": [{ "element": "Yb", "occu": 1 }],
        "abc": [0.0, 0.34488033596854, 0.0],
        "properties": { "magmom": 0.0 },
        "label": "Yb",
        "xyz": [0.0, 1.7549671628226675, 0.0]
      },
      {
        "species": [{ "element": "Yb", "occu": 1 }],
        "abc": [0.5, 0.65511966403146, 0.5],
        "properties": { "magmom": 0.0 },
        "label": "Yb",
        "xyz": [2.471010338229084, 3.3336591802656663, 3.0301583394394447]
      },
      {
        "species": [{ "element": "Au", "occu": 1 }],
        "abc": [0.5, 0.162572126233008, 0.75436952327896],
        "properties": { "magmom": -0.0 },
        "label": "Au",
        "xyz": [2.471010338229084, 0.8272688042011664, 4.571718203965398]
      },
      {
        "species": [{ "element": "Au", "occu": 1 }],
        "abc": [0.0, 0.837427873766991, 0.25436952327896],
        "properties": { "magmom": -0.0 },
        "label": "Au",
        "xyz": [0.0, 4.261357538887162, 1.5415598645259532]
      },
      {
        "species": [{ "element": "Au", "occu": 1 }],
        "abc": [0.0, 0.837427873766991, 0.7456304767210391],
        "properties": { "magmom": -0.0 },
        "label": "Au",
        "xyz": [0.0, 4.261357538887162, 4.518756814352931]
      },
      {
        "species": [{ "element": "Au", "occu": 1 }],
        "abc": [0.5, 0.162572126233008, 0.24563047672103902],
        "properties": { "magmom": -0.0 },
        "label": "Au",
        "xyz": [2.471010338229084, 0.8272688042011664, 1.4885984749134855]
      },
      {
        "species": [{ "element": "Au", "occu": 1 }],
        "abc": [0.0, 0.335451144658279, 0.5],
        "properties": { "magmom": 0.0 },
        "label": "Au",
        "xyz": [0.0, 1.706985531527254, 3.0301583394394447]
      },
      {
        "species": [{ "element": "Au", "occu": 1 }],
        "abc": [0.5, 0.66454885534172, 0.0],
        "properties": { "magmom": 0.0 },
        "label": "Au",
        "xyz": [2.471010338229084, 3.3816408115610748, 0.0]
      }
    ]
  },
  "task_ids": null,
  "uncorrected_energy_per_atom": null,
  "energy_per_atom": -47.86776356625,
  "formation_energy_per_atom": -0.7966987574999961,
  "energy_above_hull": 0.0,
  "is_stable": true,
  "equilibrium_reaction_energy_per_atom": null,
  "decomposes_to": null,
  "xas": null,
  "grain_boundaries": null,
  "band_gap": 0.0,
  "cbm": null,
  "vbm": null,
  "efermi": 4.58690333,
  "is_gap_direct": null,
  "is_metal": null,
  "es_source_calc_id": null,
  "bandstructure": null,
  "dos": null,
  "dos_energy_up": null,
  "dos_energy_down": null,
  "is_magnetic": null,
  "ordering": null,
  "total_magnetization": 0.0,
  "total_magnetization_normalized_vol": null,
  "total_magnetization_normalized_formula_units": null,
  "num_magnetic_sites": null,
  "num_unique_magnetic_sites": null,
  "types_of_magnetic_species": null,
  "bulk_modulus": null,
  "shear_modulus": null,
  "universal_anisotropy": null,
  "homogeneous_poisson": null,
  "e_total": null,
  "e_ionic": null,
  "e_electronic": null,
  "n": null,
  "e_ij_max": null,
  "weighted_surface_energy_EV_PER_ANG2": null,
  "weighted_surface_energy": null,
  "weighted_work_function": null,
  "surface_anisotropy": null,
  "shape_factor": null,
  "has_reconstructed": null,
  "possible_species": null,
  "has_props": null,
  "theoretical": null,
  "database_IDs": null,
  "fields_not_requested": [
    "builder_meta",
    "nsites",
    "elements",
    "nelements",
    "composition",
    "composition_reduced",
    "chemsys",
    "symmetry",
    "property_name",
    "deprecated",
    "deprecation_reasons",
    "last_updated",
    "origins",
    "warnings",
    "task_ids",
    "uncorrected_energy_per_atom",
    "equilibrium_reaction_energy_per_atom",
    "decomposes_to",
    "xas",
    "grain_boundaries",
    "cbm",
    "vbm",
    "is_gap_direct",
    "is_metal",
    "es_source_calc_id",
    "bandstructure",
    "dos",
    "dos_energy_up",
    "dos_energy_down",
    "is_magnetic",
    "ordering",
    "total_magnetization_normalized_vol",
    "total_magnetization_normalized_formula_units",
    "num_magnetic_sites",
    "num_unique_magnetic_sites",
    "types_of_magnetic_species",
    "bulk_modulus",
    "shear_modulus",
    "universal_anisotropy",
    "homogeneous_poisson",
    "e_total",
    "e_ionic",
    "e_electronic",
    "n",
    "e_ij_max",
    "weighted_surface_energy_EV_PER_ANG2",
    "weighted_surface_energy",
    "weighted_work_function",
    "surface_anisotropy",
    "shape_factor",
    "has_reconstructed",
    "possible_species",
    "has_props",
    "theoretical",
    "database_IDs"
  ]
}
