{
  "builder_meta": null,
  "nsites": null,
  "elements": null,
  "nelements": null,
  "composition": null,
  "composition_reduced": null,
  "formula_pretty": "YbBi2",
  "formula_anonymous": "AB2",
  "chemsys": null,
  "volume": 174.0596242846787,
  "density": 11.276364875828788,
  "density_atomic": 29.009937380779785,
  "symmetry": null,
  "property_name": null,
  "material_id": "mp-1024947",
  "deprecated": null,
  "deprecation_reasons": null,
  "last_updated": null,
  "origins": null,
  "warnings": null,
  "structure": {
    "@module": "pymatgen.core.structure",
    "@class": "Structure",
    "charge": 0.0,
    "lattice": {
      "matrix": [
        [2.206189936485501, -8.590198376596925, 0.0],
        [2.206189936485501, 8.590198376596925, -0.0],
        [-0.0, -0.0, 4.592212258812181]
      ],
      "pbc": [true, true, true],
      "a": 8.868978643854001,
      "b": 8.868978643854001,
      "c": 4.592212258812181,
      "alpha": 90.0,
      "beta": 90.0,
      "gamma": 151.19246789985047,
      "volume": 174.0596242846787
    },
    "properties": {},
    "sites": [
      {
        "species": [{ "element": "Yb", "occu": 1 }],
        "abc": [0.6034926537663521, 0.39650734623364703, 0.25],
        "properties": { "magmom": -0.0 },
        "label": "Yb",
        "xyz": [2.206189936485499, -1.778044852746858, 1.1480530647030454]
      },
      {
        "species": [{ "element": "Yb", "occu": 1 }],
        "abc": [0.39650734623364703, 0.6034926537663521, 0.75],
        "properties": { "magmom": -0.0 },
        "label": "Yb",
        "xyz": [2.206189936485499, 1.778044852746858, 3.444159194109136]
      },
      {
        "species": [{ "element": "Bi", "occu": 1 }],
        "abc": [0.927779000851323, 0.07222099914867601, 0.25],
        "properties": { "magmom": 0.0 },
        "label": "Bi",
        "xyz": [2.2061899364854987, -7.349412957310588, 1.1480530647030454]
      },
      {
        "species": [{ "element": "Bi", "occu": 1 }],
        "abc": [0.07222099914867601, 0.927779000851323, 0.75],
        "properties": { "magmom": 0.0 },
        "label": "Bi",
        "xyz": [2.2061899364854987, 7.349412957310588, 3.444159194109136]
      },
      {
        "species": [{ "element": "Bi", "occu": 1 }],
        "abc": [0.24951978061555702, 0.7504802193844421, 0.25],
        "properties": { "magmom": 0.0 },
        "label": "Bi",
        "xyz": [2.206189936485499, 4.303349547851759, 1.1480530647030454]
      },
      {
        "species": [{ "element": "Bi", "occu": 1 }],
        "abc": [0.7504802193844421, 0.24951978061555702, 0.75],
        "properties": { "magmom": 0.0 },
        "label": "Bi",
        "xyz": [2.206189936485499, -4.303349547851759, 3.444159194109136]
      }
    ]
  },
  "task_ids": null,
  "uncorrected_energy_per_atom": null,
  "energy_per_atom": -51.642883955,
  "formation_energy_per_atom": -0.46490853000000204,
  "energy_above_hull": 0.0,
  "is_stable": true,
  "equilibrium_reaction_energy_per_atom": null,
  "decomposes_to": null,
  "xas": null,
  "grain_boundaries": null,
  "band_gap": 0.0,
  "cbm": null,
  "vbm": null,
  "efermi": 4.8186437600000005,
  "is_gap_direct": null,
  "is_metal": null,
  "es_source_calc_id": null,
  "bandstructure": null,
  "dos": null,
  "dos_energy_up": null,
  "dos_energy_down": null,
  "is_magnetic": null,
  "ordering": null,
  "total_magnetization": 6e-7,
  "total_magnetization_normalized_vol": null,
  "total_magnetization_normalized_formula_units": null,
  "num_magnetic_sites": null,
  "num_unique_magnetic_sites": null,
  "types_of_magnetic_species": null,
  "bulk_modulus": null,
  "shear_modulus": null,
  "universal_anisotropy": null,
  "homogeneous_poisson": null,
  "e_total": null,
  "e_ionic": null,
  "e_electronic": null,
  "n": null,
  "e_ij_max": null,
  "weighted_surface_energy_EV_PER_ANG2": null,
  "weighted_surface_energy": null,
  "weighted_work_function": null,
  "surface_anisotropy": null,
  "shape_factor": null,
  "has_reconstructed": null,
  "possible_species": null,
  "has_props": null,
  "theoretical": null,
  "database_IDs": null,
  "fields_not_requested": [
    "builder_meta",
    "nsites",
    "elements",
    "nelements",
    "composition",
    "composition_reduced",
    "chemsys",
    "symmetry",
    "property_name",
    "deprecated",
    "deprecation_reasons",
    "last_updated",
    "origins",
    "warnings",
    "task_ids",
    "uncorrected_energy_per_atom",
    "equilibrium_reaction_energy_per_atom",
    "decomposes_to",
    "xas",
    "grain_boundaries",
    "cbm",
    "vbm",
    "is_gap_direct",
    "is_metal",
    "es_source_calc_id",
    "bandstructure",
    "dos",
    "dos_energy_up",
    "dos_energy_down",
    "is_magnetic",
    "ordering",
    "total_magnetization_normalized_vol",
    "total_magnetization_normalized_formula_units",
    "num_magnetic_sites",
    "num_unique_magnetic_sites",
    "types_of_magnetic_species",
    "bulk_modulus",
    "shear_modulus",
    "universal_anisotropy",
    "homogeneous_poisson",
    "e_total",
    "e_ionic",
    "e_electronic",
    "n",
    "e_ij_max",
    "weighted_surface_energy_EV_PER_ANG2",
    "weighted_surface_energy",
    "weighted_work_function",
    "surface_anisotropy",
    "shape_factor",
    "has_reconstructed",
    "possible_species",
    "has_props",
    "theoretical",
    "database_IDs"
  ]
}
