{
  "builder_meta": null,
  "nsites": null,
  "elements": null,
  "nelements": null,
  "composition": null,
  "composition_reduced": null,
  "formula_pretty": "YbBr2",
  "formula_anonymous": "AB2",
  "chemsys": null,
  "volume": 350.69391961622944,
  "density": 6.304153865507721,
  "density_atomic": 29.224493301352453,
  "symmetry": null,
  "property_name": null,
  "material_id": "mp-571232",
  "deprecated": null,
  "deprecation_reasons": null,
  "last_updated": null,
  "origins": null,
  "warnings": null,
  "structure": {
    "@module": "pymatgen.core.structure",
    "@class": "Structure",
    "charge": 0.0,
    "lattice": {
      "matrix": [
        [6.81339304180114, -0.0, 0.0],
        [-0.0, 6.3602585674781125, 0.0],
        [0.0, 0.0, 8.092636282375711]
      ],
      "pbc": [true, true, true],
      "a": 6.81339304180114,
      "b": 6.3602585674781125,
      "c": 8.092636282375711,
      "alpha": 90.0,
      "beta": 90.0,
      "gamma": 90.0,
      "volume": 350.6939196162295
    },
    "properties": {},
    "sites": [
      {
        "species": [{ "element": "Yb", "occu": 1 }],
        "abc": [0.0, 0.25, 0.592954587488954],
        "properties": { "magmom": 0.812 },
        "label": "Yb",
        "xyz": [0.0, 1.5900646418695281, 4.798565808514232]
      },
      {
        "species": [{ "element": "Yb", "occu": 1 }],
        "abc": [0.5, 0.75, 0.9070454125110451],
        "properties": { "magmom": 0.812 },
        "label": "Yb",
        "xyz": [3.40669652090057, 4.770193925608584, 7.340388615049327]
      },
      {
        "species": [{ "element": "Yb", "occu": 1 }],
        "abc": [0.0, 0.75, 0.40704541251104503],
        "properties": { "magmom": 0.812 },
        "label": "Yb",
        "xyz": [0.0, 4.770193925608584, 3.294070473861471]
      },
      {
        "species": [{ "element": "Yb", "occu": 1 }],
        "abc": [0.5, 0.25, 0.09295458748895401],
        "properties": { "magmom": 0.812 },
        "label": "Yb",
        "xyz": [3.40669652090057, 1.5900646418695281, 0.7522476673263765]
      },
      {
        "species": [{ "element": "Br", "occu": 1 }],
        "abc": [0.23174390075345702, 0.08902875638077701, 0.8614449730287811],
        "properties": { "magmom": 0.02 },
        "label": "Br",
        "xyz": [1.578962280873458, 0.5662459105227586, 6.97136084400288]
      },
      {
        "species": [{ "element": "Br", "occu": 1 }],
        "abc": [0.26825609924654203, 0.589028756380777, 0.638555026971218],
        "properties": { "magmom": 0.02 },
        "label": "Br",
        "xyz": [1.8277342400271055, 3.746375194261815, 5.1675935795606796]
      },
      {
        "species": [{ "element": "Br", "occu": 1 }],
        "abc": [0.7317439007534571, 0.9109712436192221, 0.638555026971218],
        "properties": { "magmom": 0.02 },
        "label": "Br",
        "xyz": [4.985658801774028, 5.794012656955348, 5.1675935795606796]
      },
      {
        "species": [{ "element": "Br", "occu": 1 }],
        "abc": [0.768256099246542, 0.41097124361922205, 0.8614449730287811],
        "properties": { "magmom": 0.02 },
        "label": "Br",
        "xyz": [5.234430760927675, 2.6138833732162916, 6.97136084400288]
      },
      {
        "species": [{ "element": "Br", "occu": 1 }],
        "abc": [0.768256099246542, 0.9109712436192221, 0.13855502697121802],
        "properties": { "magmom": 0.02 },
        "label": "Br",
        "xyz": [5.234430760927675, 5.794012656955348, 1.121275438372824]
      },
      {
        "species": [{ "element": "Br", "occu": 1 }],
        "abc": [0.7317439007534571, 0.41097124361922205, 0.36144497302878104],
        "properties": { "magmom": 0.02 },
        "label": "Br",
        "xyz": [4.985658801774028, 2.6138833732162916, 2.925042702815024]
      },
      {
        "species": [{ "element": "Br", "occu": 1 }],
        "abc": [0.26825609924654203, 0.08902875638077701, 0.36144497302878104],
        "properties": { "magmom": 0.02 },
        "label": "Br",
        "xyz": [1.8277342400271055, 0.5662459105227586, 2.925042702815024]
      },
      {
        "species": [{ "element": "Br", "occu": 1 }],
        "abc": [0.23174390075345702, 0.589028756380777, 0.13855502697121802],
        "properties": { "magmom": 0.02 },
        "label": "Br",
        "xyz": [1.578962280873458, 3.746375194261815, 1.121275438372824]
      }
    ]
  },
  "task_ids": null,
  "uncorrected_energy_per_atom": null,
  "energy_per_atom": -22.688445740833334,
  "formation_energy_per_atom": -1.6727329708333372,
  "energy_above_hull": 0.23540226527778002,
  "is_stable": false,
  "equilibrium_reaction_energy_per_atom": null,
  "decomposes_to": null,
  "xas": null,
  "grain_boundaries": null,
  "band_gap": 4.4692,
  "cbm": null,
  "vbm": null,
  "efermi": -0.79044557,
  "is_gap_direct": null,
  "is_metal": null,
  "es_source_calc_id": null,
  "bandstructure": null,
  "dos": null,
  "dos_energy_up": null,
  "dos_energy_down": null,
  "is_magnetic": null,
  "ordering": null,
  "total_magnetization": 4.0,
  "total_magnetization_normalized_vol": null,
  "total_magnetization_normalized_formula_units": null,
  "num_magnetic_sites": null,
  "num_unique_magnetic_sites": null,
  "types_of_magnetic_species": null,
  "bulk_modulus": null,
  "shear_modulus": null,
  "universal_anisotropy": null,
  "homogeneous_poisson": null,
  "e_total": null,
  "e_ionic": null,
  "e_electronic": null,
  "n": null,
  "e_ij_max": null,
  "weighted_surface_energy_EV_PER_ANG2": null,
  "weighted_surface_energy": null,
  "weighted_work_function": null,
  "surface_anisotropy": null,
  "shape_factor": null,
  "has_reconstructed": null,
  "possible_species": null,
  "has_props": null,
  "theoretical": null,
  "database_IDs": null,
  "fields_not_requested": [
    "builder_meta",
    "nsites",
    "elements",
    "nelements",
    "composition",
    "composition_reduced",
    "chemsys",
    "symmetry",
    "property_name",
    "deprecated",
    "deprecation_reasons",
    "last_updated",
    "origins",
    "warnings",
    "task_ids",
    "uncorrected_energy_per_atom",
    "equilibrium_reaction_energy_per_atom",
    "decomposes_to",
    "xas",
    "grain_boundaries",
    "cbm",
    "vbm",
    "is_gap_direct",
    "is_metal",
    "es_source_calc_id",
    "bandstructure",
    "dos",
    "dos_energy_up",
    "dos_energy_down",
    "is_magnetic",
    "ordering",
    "total_magnetization_normalized_vol",
    "total_magnetization_normalized_formula_units",
    "num_magnetic_sites",
    "num_unique_magnetic_sites",
    "types_of_magnetic_species",
    "bulk_modulus",
    "shear_modulus",
    "universal_anisotropy",
    "homogeneous_poisson",
    "e_total",
    "e_ionic",
    "e_electronic",
    "n",
    "e_ij_max",
    "weighted_surface_energy_EV_PER_ANG2",
    "weighted_surface_energy",
    "weighted_work_function",
    "surface_anisotropy",
    "shape_factor",
    "has_reconstructed",
    "possible_species",
    "has_props",
    "theoretical",
    "database_IDs"
  ]
}
