{
  "builder_meta": null,
  "nsites": null,
  "elements": null,
  "nelements": null,
  "composition": null,
  "composition_reduced": null,
  "formula_pretty": "YbBr3",
  "formula_anonymous": "AB3",
  "chemsys": null,
  "volume": 277.33490909682564,
  "density": 4.9426941819141375,
  "density_atomic": 34.666863637103205,
  "symmetry": null,
  "property_name": null,
  "material_id": "mp-685068",
  "deprecated": null,
  "deprecation_reasons": null,
  "last_updated": null,
  "origins": null,
  "warnings": null,
  "structure": {
    "@module": "pymatgen.core.structure",
    "@class": "Structure",
    "charge": 0.0,
    "lattice": {
      "matrix": [
        [6.834437389764831, -3.498032150847625, 0.421843977327702],
        [6.834437090365725, 3.498032640189651, 0.421844770250736],
        [4.6942002245431045, -4.893420337e-7, 6.090008382900142]
      ],
      "pbc": [true, true, true],
      "a": 7.68919473704411,
      "b": 7.689194737044107,
      "c": 7.689194876701642,
      "alpha": 54.12064673921972,
      "beta": 54.12064673921974,
      "gamma": 54.1206438044611,
      "volume": 277.3349090968256
    },
    "properties": {},
    "sites": [
      {
        "species": [{ "element": "Yb", "occu": 1 }],
        "abc": [0.833237870273492, 0.833237870273492, 0.833237870273407],
        "properties": { "magmom": -0.0 },
        "label": "Yb",
        "xyz": [15.300809258594915, -6.4336455800731755e-15, 5.777419030120877]
      },
      {
        "species": [{ "element": "Yb", "occu": 1 }],
        "abc": [0.166762129726507, 0.166762129726507, 0.16676212972659202],
        "properties": { "magmom": -0.0 },
        "label": "Yb",
        "xyz": [3.062265446078727, -1.255323566903191e-15, 1.156278100357696]
      },
      {
        "species": [{ "element": "Br", "occu": 1 }],
        "abc": [0.9354212991592231, 0.224386258708165, 0.5799278125460461],
        "properties": { "magmom": 0.0 },
        "label": "Br",
        "xyz": [10.648929339112112, -2.4872236058584716, 4.021023250948904]
      },
      {
        "species": [{ "element": "Br", "occu": 1 }],
        "abc": [0.579927812569742, 0.93542129916694, 0.22438625867685802],
        "properties": { "magmom": 0.0 },
        "label": "Br",
        "xyz": [11.409872373601097, 1.243527993473243, 2.0057558344017616]
      },
      {
        "species": [{ "element": "Br", "occu": 1 }],
        "abc": [0.22438625868390702, 0.579927812537761, 0.9354212991903591],
        "properties": { "magmom": 0.0 },
        "label": "Br",
        "xyz": [9.88808886054326, 1.2436956123851937, 6.036019060275534]
      },
      {
        "species": [{ "element": "Br", "occu": 1 }],
        "abc": [0.7756137413160921, 0.420072187462238, 0.06457870080964001],
        "properties": { "magmom": 0.0 },
        "label": "Br",
        "xyz": [8.474985844130385, -1.2436956123852014, 0.8976780702030395]
      },
      {
        "species": [{ "element": "Br", "occu": 1 }],
        "abc": [0.42007218743025704, 0.06457870083306, 0.7756137413231411],
        "properties": { "magmom": 0.0 },
        "label": "Br",
        "xyz": [6.953202331072552, -1.2435279934732477, 4.9279412960768125]
      },
      {
        "species": [{ "element": "Br", "occu": 1 }],
        "abc": [0.06457870084077601, 0.775613741291834, 0.420072187453953],
        "properties": { "magmom": 0.0 },
        "label": "Br",
        "xyz": [7.714145365561532, 2.487223605858463, 2.91267387952967]
      }
    ]
  },
  "task_ids": null,
  "uncorrected_energy_per_atom": null,
  "energy_per_atom": -21.22315665875,
  "formation_energy_per_atom": -2.146652140625001,
  "energy_above_hull": 0.0,
  "is_stable": true,
  "equilibrium_reaction_energy_per_atom": null,
  "decomposes_to": null,
  "xas": null,
  "grain_boundaries": null,
  "band_gap": 0.0,
  "cbm": null,
  "vbm": null,
  "efermi": -1.21839699,
  "is_gap_direct": null,
  "is_metal": null,
  "es_source_calc_id": null,
  "bandstructure": null,
  "dos": null,
  "dos_energy_up": null,
  "dos_energy_down": null,
  "is_magnetic": null,
  "ordering": null,
  "total_magnetization": 0.0,
  "total_magnetization_normalized_vol": null,
  "total_magnetization_normalized_formula_units": null,
  "num_magnetic_sites": null,
  "num_unique_magnetic_sites": null,
  "types_of_magnetic_species": null,
  "bulk_modulus": null,
  "shear_modulus": null,
  "universal_anisotropy": null,
  "homogeneous_poisson": null,
  "e_total": null,
  "e_ionic": null,
  "e_electronic": null,
  "n": null,
  "e_ij_max": null,
  "weighted_surface_energy_EV_PER_ANG2": null,
  "weighted_surface_energy": null,
  "weighted_work_function": null,
  "surface_anisotropy": null,
  "shape_factor": null,
  "has_reconstructed": null,
  "possible_species": null,
  "has_props": null,
  "theoretical": null,
  "database_IDs": null,
  "fields_not_requested": [
    "builder_meta",
    "nsites",
    "elements",
    "nelements",
    "composition",
    "composition_reduced",
    "chemsys",
    "symmetry",
    "property_name",
    "deprecated",
    "deprecation_reasons",
    "last_updated",
    "origins",
    "warnings",
    "task_ids",
    "uncorrected_energy_per_atom",
    "equilibrium_reaction_energy_per_atom",
    "decomposes_to",
    "xas",
    "grain_boundaries",
    "cbm",
    "vbm",
    "is_gap_direct",
    "is_metal",
    "es_source_calc_id",
    "bandstructure",
    "dos",
    "dos_energy_up",
    "dos_energy_down",
    "is_magnetic",
    "ordering",
    "total_magnetization_normalized_vol",
    "total_magnetization_normalized_formula_units",
    "num_magnetic_sites",
    "num_unique_magnetic_sites",
    "types_of_magnetic_species",
    "bulk_modulus",
    "shear_modulus",
    "universal_anisotropy",
    "homogeneous_poisson",
    "e_total",
    "e_ionic",
    "e_electronic",
    "n",
    "e_ij_max",
    "weighted_surface_energy_EV_PER_ANG2",
    "weighted_surface_energy",
    "weighted_work_function",
    "surface_anisotropy",
    "shape_factor",
    "has_reconstructed",
    "possible_species",
    "has_props",
    "theoretical",
    "database_IDs"
  ]
}
