{"builder_meta": null, "nsites": null, "elements": null, "nelements": null, "composition": null, "composition_reduced": null, "formula_pretty": "YbCd3", "formula_anonymous": "AB3", "chemsys": null, "volume": 179.34973448458683, "density": 9.448893287366428, "density_atomic": 22.418716810573354, "symmetry": null, "property_name": null, "material_id": "mp-1187653", "deprecated": null, "deprecation_reasons": null, "last_updated": null, "origins": null, "warnings": null, "structure": {"@module": "pymatgen.core.structure", "@class": "Structure", "charge": 0.0, "lattice": {"matrix": [[3.249823312665577, -5.628860036657068, -0.0], [3.249823312665577, 5.628860036657068, 0.0], [0.0, 0.0, 4.902194548884142]], "pbc": [true, true, true], "a": 6.499647442424833, "b": 6.499647442424833, "c": 4.902194548884142, "alpha": 90.0, "beta": 90.0, "gamma": 120.00000831714058, "volume": 179.34973448458683}, "properties": {}, "sites": [{"species": [{"element": "Yb", "occu": 1}], "abc": [0.33333300000000304, 0.666666999999996, 0.75], "properties": {"magmom": 0.0}, "label": "Yb", "xyz": [3.2498233126655736, 1.8762904314590074, 3.6766459116631065]}, {"species": [{"element": "Yb", "occu": 1}], "abc": [0.666666999999996, 0.33333300000000304, 0.25], "properties": {"magmom": 0.0}, "label": "Yb", "xyz": [3.2498233126655736, -1.8762904314590074, 1.2255486372210356]}, {"species": [{"element": "Cd", "occu": 1}], "abc": [0.16338400947439802, 0.32676801894801605, 0.25], "properties": {"magmom": -0.0}, "label": "Cd", "xyz": [1.5929074887174817, 0.9196657215548483, 1.2255486372210356]}, {"species": [{"element": "Cd", "occu": 1}], "abc": [0.673231981051984, 0.8366159905256011, 0.25], "properties": {"magmom": -0.0}, "label": "Cd", "xyz": [4.90673913661367, 0.9196657215548432, 1.2255486372210356]}, {"species": [{"element": "Cd", "occu": 1}], "abc": [0.163384009473617, 0.836615990526382, 0.25], "properties": {"magmom": -0.0}, "label": "Cd", "xyz": [3.249823312665574, 3.7895285935473773, 1.2255486372210356]}, {"species": [{"element": "Cd", "occu": 1}], "abc": [0.8366159905256011, 0.673231981051984, 0.75], "properties": {"magmom": -0.0}, "label": "Cd", "xyz": [4.90673913661367, -0.9196657215548432, 3.6766459116631065]}, {"species": [{"element": "Cd", "occu": 1}], "abc": [0.32676801894801605, 0.16338400947439802, 0.75], "properties": {"magmom": -0.0}, "label": "Cd", "xyz": [1.5929074887174817, -0.9196657215548483, 3.6766459116631065]}, {"species": [{"element": "Cd", "occu": 1}], "abc": [0.836615990526382, 0.163384009473617, 0.75], "properties": {"magmom": -0.0}, "label": "Cd", "xyz": [3.249823312665574, -3.7895285935473773, 3.6766459116631065]}]}, "task_ids": null, "uncorrected_energy_per_atom": null, "energy_per_atom": -24.4882314, "formation_energy_per_atom": -0.277145936249997, "energy_above_hull": 0.0, "is_stable": true, "equilibrium_reaction_energy_per_atom": null, "decomposes_to": null, "xas": null, "grain_boundaries": null, "band_gap": 0.0, "cbm": null, "vbm": null, "efermi": 2.22335064, "is_gap_direct": null, "is_metal": null, "es_source_calc_id": null, "bandstructure": null, "dos": null, "dos_energy_up": null, "dos_energy_down": null, "is_magnetic": null, "ordering": null, "total_magnetization": 0.0, "total_magnetization_normalized_vol": null, "total_magnetization_normalized_formula_units": null, "num_magnetic_sites": null, "num_unique_magnetic_sites": null, "types_of_magnetic_species": null, "bulk_modulus": null, "shear_modulus": null, "universal_anisotropy": null, "homogeneous_poisson": null, "e_total": null, "e_ionic": null, "e_electronic": null, "n": null, "e_ij_max": null, "weighted_surface_energy_EV_PER_ANG2": null, "weighted_surface_energy": null, "weighted_work_function": null, "surface_anisotropy": null, "shape_factor": null, "has_reconstructed": null, "possible_species": null, "has_props": null, "theoretical": null, "database_IDs": null, "fields_not_requested": ["builder_meta", "nsites", "elements", "nelements", "composition", "composition_reduced", "chemsys", "symmetry", "property_name", "deprecated", "deprecation_reasons", "last_updated", "origins", "warnings", "task_ids", "uncorrected_energy_per_atom", "equilibrium_reaction_energy_per_atom", "decomposes_to", "xas", "grain_boundaries", "cbm", "vbm", "is_gap_direct", "is_metal", "es_source_calc_id", "bandstructure", "dos", "dos_energy_up", "dos_energy_down", "is_magnetic", "ordering", "total_magnetization_normalized_vol", "total_magnetization_normalized_formula_units", "num_magnetic_sites", "num_unique_magnetic_sites", "types_of_magnetic_species", "bulk_modulus", "shear_modulus", "universal_anisotropy", "homogeneous_poisson", "e_total", "e_ionic", "e_electronic", "n", "e_ij_max", "weighted_surface_energy_EV_PER_ANG2", "weighted_surface_energy", "weighted_work_function", "surface_anisotropy", "shape_factor", "has_reconstructed", "possible_species", "has_props", "theoretical", "database_IDs"]}