{"builder_meta": null, "nsites": null, "elements": null, "nelements": null, "composition": null, "composition_reduced": null, "formula_pretty": "YbCe3", "formula_anonymous": "AB3", "chemsys": null, "volume": 248.37445664049707, "density": 7.93434211375327, "density_atomic": 31.046807080062134, "symmetry": null, "property_name": null, "material_id": "mp-1187837", "deprecated": null, "deprecation_reasons": null, "last_updated": null, "origins": null, "warnings": null, "structure": {"@module": "pymatgen.core.structure", "@class": "Structure", "charge": 0.0, "lattice": {"matrix": [[3.5250951720593493, -6.105643965186176, -0.0], [3.5250951720593493, 6.105643965186176, -0.0], [-0.0, -0.0, 5.76998403710625]], "pbc": [true, true, true], "a": 7.0501903663440535, "b": 7.0501903663440535, "c": 5.76998403710625, "alpha": 90.0, "beta": 90.0, "gamma": 120.00000020856426, "volume": 248.374456640497}, "properties": {}, "sites": [{"species": [{"element": "Yb", "occu": 1}], "abc": [0.33333300000000304, 0.666666999999996, 0.75], "properties": {"magmom": 0.15}, "label": "Yb", "xyz": [3.5250951720593457, 2.0352187254913257, 4.327488027829688]}, {"species": [{"element": "Yb", "occu": 1}], "abc": [0.666666999999996, 0.33333300000000304, 0.25], "properties": {"magmom": 0.15}, "label": "Yb", "xyz": [3.5250951720593457, -2.0352187254913257, 1.4424960092765624]}, {"species": [{"element": "Ce", "occu": 1}], "abc": [0.16623371720169902, 0.33246843440120705, 0.25], "properties": {"magmom": 1.007}, "label": "Ce", "xyz": [1.757972546911014, 1.0149699978736069, 1.4424960092765624]}, {"species": [{"element": "Ce", "occu": 1}], "abc": [0.667531565598793, 0.8337662827983011, 0.25], "properties": {"magmom": 1.007}, "label": "Ce", "xyz": [5.292217797207686, 1.0149699978736075, 1.4424960092765624]}, {"species": [{"element": "Ce", "occu": 1}], "abc": [0.16623371719951002, 0.833766282800489, 0.25], "properties": {"magmom": 1.007}, "label": "Ce", "xyz": [3.5250951720593457, 4.075716180726863, 1.4424960092765624]}, {"species": [{"element": "Ce", "occu": 1}], "abc": [0.8337662827983011, 0.667531565598793, 0.75], "properties": {"magmom": 1.007}, "label": "Ce", "xyz": [5.292217797207686, -1.0149699978736075, 4.327488027829688]}, {"species": [{"element": "Ce", "occu": 1}], "abc": [0.33246843440120705, 0.16623371720169902, 0.75], "properties": {"magmom": 1.007}, "label": "Ce", "xyz": [1.757972546911014, -1.0149699978736069, 4.327488027829688]}, {"species": [{"element": "Ce", "occu": 1}], "abc": [0.833766282800489, 0.16623371719951002, 0.75], "properties": {"magmom": 1.007}, "label": "Ce", "xyz": [3.5250951720593457, -4.075716180726863, 4.327488027829688]}]}, "task_ids": null, "uncorrected_energy_per_atom": null, "energy_per_atom": -32.15451156625, "formation_energy_per_atom": 0.108304699999997, "energy_above_hull": 0.108304699999997, "is_stable": false, "equilibrium_reaction_energy_per_atom": null, "decomposes_to": null, "xas": null, "grain_boundaries": null, "band_gap": 0.0, "cbm": null, "vbm": null, "efermi": 6.28968184, "is_gap_direct": null, "is_metal": null, "es_source_calc_id": null, "bandstructure": null, "dos": null, "dos_energy_up": null, "dos_energy_down": null, "is_magnetic": null, "ordering": null, "total_magnetization": 7.8577785, "total_magnetization_normalized_vol": null, "total_magnetization_normalized_formula_units": null, "num_magnetic_sites": null, "num_unique_magnetic_sites": null, "types_of_magnetic_species": null, "bulk_modulus": null, "shear_modulus": null, "universal_anisotropy": null, "homogeneous_poisson": null, "e_total": null, "e_ionic": null, "e_electronic": null, "n": null, "e_ij_max": null, "weighted_surface_energy_EV_PER_ANG2": null, "weighted_surface_energy": null, "weighted_work_function": null, "surface_anisotropy": null, "shape_factor": null, "has_reconstructed": null, "possible_species": null, "has_props": null, "theoretical": null, "database_IDs": null, "fields_not_requested": ["builder_meta", "nsites", "elements", "nelements", "composition", "composition_reduced", "chemsys", "symmetry", "property_name", "deprecated", "deprecation_reasons", "last_updated", "origins", "warnings", "task_ids", "uncorrected_energy_per_atom", "equilibrium_reaction_energy_per_atom", "decomposes_to", "xas", "grain_boundaries", "cbm", "vbm", "is_gap_direct", "is_metal", "es_source_calc_id", "bandstructure", "dos", "dos_energy_up", "dos_energy_down", "is_magnetic", "ordering", "total_magnetization_normalized_vol", "total_magnetization_normalized_formula_units", "num_magnetic_sites", "num_unique_magnetic_sites", "types_of_magnetic_species", "bulk_modulus", "shear_modulus", "universal_anisotropy", "homogeneous_poisson", "e_total", "e_ionic", "e_electronic", "n", "e_ij_max", "weighted_surface_energy_EV_PER_ANG2", "weighted_surface_energy", "weighted_work_function", "surface_anisotropy", "shape_factor", "has_reconstructed", "possible_species", "has_props", "theoretical", "database_IDs"]}