{"builder_meta": null, "nsites": null, "elements": null, "nelements": null, "composition": null, "composition_reduced": null, "formula_pretty": "YbCl2", "formula_anonymous": "AB2", "chemsys": null, "volume": 152.5428664887312, "density": 5.3110561308447455, "density_atomic": 25.4238110814552, "symmetry": null, "property_name": null, "material_id": "mp-865716", "deprecated": null, "deprecation_reasons": null, "last_updated": null, "origins": null, "warnings": null, "structure": {"@module": "pymatgen.core.structure", "@class": "Structure", "charge": 0.0, "lattice": {"matrix": [[6.719075100920147, 0.0, 0.0], [1e-16, 6.719075100920147, 0.0], [0.0, 0.0, 3.378881122126005]], "pbc": [true, true, true], "a": 6.719075100920147, "b": 6.719075100920147, "c": 3.378881122126005, "alpha": 90.0, "beta": 90.0, "gamma": 90.0, "volume": 152.54286648873116}, "properties": {}, "sites": [{"species": [{"element": "Yb", "occu": 1}], "abc": [0.0, 0.0, 0.0], "properties": {"magmom": 0.006}, "label": "Yb", "xyz": [0.0, 0.0, 0.0]}, {"species": [{"element": "Yb", "occu": 1}], "abc": [0.5, 0.5, 0.5], "properties": {"magmom": 0.006}, "label": "Yb", "xyz": [3.3595375504600735, 3.3595375504600735, 1.6894405610630026]}, {"species": [{"element": "Cl", "occu": 1}], "abc": [0.27949878439040504, 0.27949878439040504, 0.0], "properties": {"magmom": 0.0}, "label": "Cl", "xyz": [1.877973322935019, 1.877973322935019, 0.0]}, {"species": [{"element": "Cl", "occu": 1}], "abc": [0.720501215609594, 0.720501215609594, 0.0], "properties": {"magmom": 0.0}, "label": "Cl", "xyz": [4.841101777985122, 4.841101777985122, 0.0]}, {"species": [{"element": "Cl", "occu": 1}], "abc": [0.22050121560959401, 0.7794987843904051, 0.5], "properties": {"magmom": 0.0}, "label": "Cl", "xyz": [1.481564227525048, 5.2375108733950935, 1.6894405610630026]}, {"species": [{"element": "Cl", "occu": 1}], "abc": [0.7794987843904051, 0.22050121560959401, 0.5], "properties": {"magmom": 0.0}, "label": "Cl", "xyz": [5.2375108733950935, 1.481564227525048, 1.6894405610630026]}]}, "task_ids": null, "uncorrected_energy_per_atom": null, "energy_per_atom": -18.302610133333335, "formation_energy_per_atom": -2.024524606666666, "energy_above_hull": 0.18584689944444202, "is_stable": false, "equilibrium_reaction_energy_per_atom": null, "decomposes_to": null, "xas": null, "grain_boundaries": null, "band_gap": 5.3995, "cbm": null, "vbm": null, "efermi": -0.9489271300000001, "is_gap_direct": null, "is_metal": null, "es_source_calc_id": null, "bandstructure": null, "dos": null, "dos_energy_up": null, "dos_energy_down": null, "is_magnetic": null, "ordering": null, "total_magnetization": 0.0119875, "total_magnetization_normalized_vol": null, "total_magnetization_normalized_formula_units": null, "num_magnetic_sites": null, "num_unique_magnetic_sites": null, "types_of_magnetic_species": null, "bulk_modulus": null, "shear_modulus": null, "universal_anisotropy": null, "homogeneous_poisson": null, "e_total": null, "e_ionic": null, "e_electronic": null, "n": null, "e_ij_max": null, "weighted_surface_energy_EV_PER_ANG2": null, "weighted_surface_energy": null, "weighted_work_function": null, "surface_anisotropy": null, "shape_factor": null, "has_reconstructed": null, "possible_species": null, "has_props": null, "theoretical": null, "database_IDs": null, "fields_not_requested": ["builder_meta", "nsites", "elements", "nelements", "composition", "composition_reduced", "chemsys", "symmetry", "property_name", "deprecated", "deprecation_reasons", "last_updated", "origins", "warnings", "task_ids", "uncorrected_energy_per_atom", "equilibrium_reaction_energy_per_atom", "decomposes_to", "xas", "grain_boundaries", "cbm", "vbm", "is_gap_direct", "is_metal", "es_source_calc_id", "bandstructure", "dos", "dos_energy_up", "dos_energy_down", "is_magnetic", "ordering", "total_magnetization_normalized_vol", "total_magnetization_normalized_formula_units", "num_magnetic_sites", "num_unique_magnetic_sites", "types_of_magnetic_species", "bulk_modulus", "shear_modulus", "universal_anisotropy", "homogeneous_poisson", "e_total", "e_ionic", "e_electronic", "n", "e_ij_max", "weighted_surface_energy_EV_PER_ANG2", "weighted_surface_energy", "weighted_work_function", "surface_anisotropy", "shape_factor", "has_reconstructed", "possible_species", "has_props", "theoretical", "database_IDs"]}