{"builder_meta": null, "nsites": null, "elements": null, "nelements": null, "composition": null, "composition_reduced": null, "formula_pretty": "YbCl3", "formula_anonymous": "AB3", "chemsys": null, "volume": 192.20086205260137, "density": 4.827792651023586, "density_atomic": 24.02510775657517, "symmetry": null, "property_name": null, "material_id": "mp-1025400", "deprecated": null, "deprecation_reasons": null, "last_updated": null, "origins": null, "warnings": null, "structure": {"@module": "pymatgen.core.structure", "@class": "Structure", "charge": 0.0, "lattice": {"matrix": [[1.834114629221849, -6.155364210405051, 0.0], [1.834114629221849, 6.155364210405051, -0.0], [0.0, 0.0, 8.51226441566062]], "pbc": [true, true, true], "a": 6.422809746198388, "b": 6.422809746198388, "c": 8.51226441566062, "alpha": 90.0, "beta": 90.0, "gamma": 146.81503130952933, "volume": 192.20086205260137}, "properties": {}, "sites": [{"species": [{"element": "Yb", "occu": 1}], "abc": [0.25614099495687903, 0.7438590050431201, 0.25], "properties": {"magmom": -0.0}, "label": "Yb", "xyz": [1.8341146292218475, 3.0020819840548176, 2.128066103915155]}, {"species": [{"element": "Yb", "occu": 1}], "abc": [0.7438590050431201, 0.25614099495687903, 0.75], "properties": {"magmom": -0.0}, "label": "Yb", "xyz": [1.8341146292218475, -3.0020819840548176, 6.3841983117454655]}, {"species": [{"element": "Cl", "occu": 1}], "abc": [0.652457345888379, 0.34754265411162705, 0.069558157347074], "properties": {"magmom": 0.0}, "label": "Cl", "xyz": [1.83411462922186, -1.876860980989306, 0.5920974276044204]}, {"species": [{"element": "Cl", "occu": 1}], "abc": [0.34754265411162705, 0.652457345888379, 0.9304418426529251], "properties": {"magmom": 0.0}, "label": "Cl", "xyz": [1.83411462922186, 1.876860980989306, 7.9201669880561925]}, {"species": [{"element": "Cl", "occu": 1}], "abc": [0.34754265411162705, 0.652457345888379, 0.569558157347074], "properties": {"magmom": 0.0}, "label": "Cl", "xyz": [1.83411462922186, 1.876860980989306, 4.848229635434731]}, {"species": [{"element": "Cl", "occu": 1}], "abc": [0.652457345888379, 0.34754265411162705, 0.430441842652925], "properties": {"magmom": 0.0}, "label": "Cl", "xyz": [1.83411462922186, -1.876860980989306, 3.6640347802258817]}, {"species": [{"element": "Cl", "occu": 1}], "abc": [0.9051815059503091, 0.09481849404969, 0.25], "properties": {"magmom": 0.0}, "label": "Cl", "xyz": [1.8341146292218473, -4.988079480889113, 2.128066103915155]}, {"species": [{"element": "Cl", "occu": 1}], "abc": [0.09481849404969, 0.9051815059503091, 0.75], "properties": {"magmom": 0.0}, "label": "Cl", "xyz": [1.8341146292218473, 4.988079480889113, 6.3841983117454655]}]}, "task_ids": null, "uncorrected_energy_per_atom": null, "energy_per_atom": -16.23334181375, "formation_energy_per_atom": -2.486667944374998, "energy_above_hull": 0.0, "is_stable": true, "equilibrium_reaction_energy_per_atom": null, "decomposes_to": null, "xas": null, "grain_boundaries": null, "band_gap": 0.0, "cbm": null, "vbm": null, "efermi": -0.02535445, "is_gap_direct": null, "is_metal": null, "es_source_calc_id": null, "bandstructure": null, "dos": null, "dos_energy_up": null, "dos_energy_down": null, "is_magnetic": null, "ordering": null, "total_magnetization": 0.0, "total_magnetization_normalized_vol": null, "total_magnetization_normalized_formula_units": null, "num_magnetic_sites": null, "num_unique_magnetic_sites": null, "types_of_magnetic_species": null, "bulk_modulus": null, "shear_modulus": null, "universal_anisotropy": null, "homogeneous_poisson": null, "e_total": null, "e_ionic": null, "e_electronic": null, "n": null, "e_ij_max": null, "weighted_surface_energy_EV_PER_ANG2": null, "weighted_surface_energy": null, "weighted_work_function": null, "surface_anisotropy": null, "shape_factor": null, "has_reconstructed": null, "possible_species": null, "has_props": null, "theoretical": null, "database_IDs": null, "fields_not_requested": ["builder_meta", "nsites", "elements", "nelements", "composition", "composition_reduced", "chemsys", "symmetry", "property_name", "deprecated", "deprecation_reasons", "last_updated", "origins", "warnings", "task_ids", "uncorrected_energy_per_atom", "equilibrium_reaction_energy_per_atom", "decomposes_to", "xas", "grain_boundaries", "cbm", "vbm", "is_gap_direct", "is_metal", "es_source_calc_id", "bandstructure", "dos", "dos_energy_up", "dos_energy_down", "is_magnetic", "ordering", "total_magnetization_normalized_vol", "total_magnetization_normalized_formula_units", "num_magnetic_sites", "num_unique_magnetic_sites", "types_of_magnetic_species", "bulk_modulus", "shear_modulus", "universal_anisotropy", "homogeneous_poisson", "e_total", "e_ionic", "e_electronic", "n", "e_ij_max", "weighted_surface_energy_EV_PER_ANG2", "weighted_surface_energy", "weighted_work_function", "surface_anisotropy", "shape_factor", "has_reconstructed", "possible_species", "has_props", "theoretical", "database_IDs"]}