{"builder_meta": null, "nsites": null, "elements": null, "nelements": null, "composition": null, "composition_reduced": null, "formula_pretty": "YbCu2", "formula_anonymous": "AB2", "chemsys": null, "volume": 99.9863180450886, "density": 9.968982174382049, "density_atomic": 16.6643863408481, "symmetry": null, "property_name": null, "material_id": "mp-567538", "deprecated": null, "deprecation_reasons": null, "last_updated": null, "origins": null, "warnings": null, "structure": {"@module": "pymatgen.core.structure", "@class": "Structure", "charge": 0.0, "lattice": {"matrix": [[-2.100330375100626, 3.313922881463844, 3.591290806209476], [2.100330375100626, -3.313922881463844, 3.591290806209476], [2.100330375100626, 3.313922881463844, -3.591290806209476]], "pbc": [true, true, true], "a": 5.318913630021141, "b": 5.318913630021141, "c": 5.318913630021141, "alpha": 133.48307214675097, "beta": 102.92231251072972, "gamma": 95.06179228154764, "volume": 99.98631804508858}, "properties": {}, "sites": [{"species": [{"element": "Yb", "occu": 1}], "abc": [0.20319943133932103, 0.45319943133932106, 0.75], "properties": {"magmom": 0.0}, "label": "Yb", "xyz": [2.1003303751006266, 1.656961440731922, -0.3361489039129437]}, {"species": [{"element": "Yb", "occu": 1}], "abc": [0.796800568660678, 0.546800568660678, 0.25], "properties": {"magmom": 0.0}, "label": "Yb", "xyz": [-1.1102230246251565e-16, 1.6569614407319218, 3.927439710122413]}, {"species": [{"element": "Cu", "occu": 1}], "abc": [0.38888670009118403, 0.836090813585123, 0.552795886506054], "properties": {"magmom": 0.0}, "label": "Cu", "xyz": [2.1003303751006115, 0.34992299267918425, 2.413999697759455]}, {"species": [{"element": "Cu", "occu": 1}], "abc": [0.611113299908815, 0.163909186414876, 0.447204113493946], "properties": {"magmom": 0.0}, "label": "Cu", "xyz": [1.4765966227514582e-14, 2.9639998887846595, 1.1772911084500137]}, {"species": [{"element": "Cu", "occu": 1}], "abc": [0.216705072920923, 0.163909186414876, 0.052795886506054004], "properties": {"magmom": 0.0}, "label": "Cu", "xyz": [1.469657728847551e-14, 0.34992299267913796, 1.1772911084500135]}, {"species": [{"element": "Cu", "occu": 1}], "abc": [0.7832949270790761, 0.836090813585123, 0.9472041134939461], "properties": {"magmom": 0.0}, "label": "Cu", "xyz": [2.1003303751006115, 2.9639998887847065, 2.413999697759456]}]}, "task_ids": null, "uncorrected_energy_per_atom": null, "energy_per_atom": -19.710525658333335, "formation_energy_per_atom": -0.30286873000000003, "energy_above_hull": 0.0, "is_stable": true, "equilibrium_reaction_energy_per_atom": null, "decomposes_to": null, "xas": null, "grain_boundaries": null, "band_gap": 0.0, "cbm": null, "vbm": null, "efermi": 4.1433211, "is_gap_direct": null, "is_metal": null, "es_source_calc_id": null, "bandstructure": null, "dos": null, "dos_energy_up": null, "dos_energy_down": null, "is_magnetic": null, "ordering": null, "total_magnetization": 0.0, "total_magnetization_normalized_vol": null, "total_magnetization_normalized_formula_units": null, "num_magnetic_sites": null, "num_unique_magnetic_sites": null, "types_of_magnetic_species": null, "bulk_modulus": null, "shear_modulus": null, "universal_anisotropy": null, "homogeneous_poisson": null, "e_total": null, "e_ionic": null, "e_electronic": null, "n": null, "e_ij_max": null, "weighted_surface_energy_EV_PER_ANG2": null, "weighted_surface_energy": null, "weighted_work_function": null, "surface_anisotropy": null, "shape_factor": null, "has_reconstructed": null, "possible_species": null, "has_props": null, "theoretical": null, "database_IDs": null, "fields_not_requested": ["builder_meta", "nsites", "elements", "nelements", "composition", "composition_reduced", "chemsys", "symmetry", "property_name", "deprecated", "deprecation_reasons", "last_updated", "origins", "warnings", "task_ids", "uncorrected_energy_per_atom", "equilibrium_reaction_energy_per_atom", "decomposes_to", "xas", "grain_boundaries", "cbm", "vbm", "is_gap_direct", "is_metal", "es_source_calc_id", "bandstructure", "dos", "dos_energy_up", "dos_energy_down", "is_magnetic", "ordering", "total_magnetization_normalized_vol", "total_magnetization_normalized_formula_units", "num_magnetic_sites", "num_unique_magnetic_sites", "types_of_magnetic_species", "bulk_modulus", "shear_modulus", "universal_anisotropy", "homogeneous_poisson", "e_total", "e_ionic", "e_electronic", "n", "e_ij_max", "weighted_surface_energy_EV_PER_ANG2", "weighted_surface_energy", "weighted_work_function", "surface_anisotropy", "shape_factor", "has_reconstructed", "possible_species", "has_props", "theoretical", "database_IDs"]}