{"builder_meta": null, "nsites": null, "elements": null, "nelements": null, "composition": null, "composition_reduced": null, "formula_pretty": "YbCu", "formula_anonymous": "AB", "chemsys": null, "volume": 159.31962751166319, "density": 9.863450015456952, "density_atomic": 19.914953438957898, "symmetry": null, "property_name": null, "material_id": "mp-1937", "deprecated": null, "deprecation_reasons": null, "last_updated": null, "origins": null, "warnings": null, "structure": {"@module": "pymatgen.core.structure", "@class": "Structure", "charge": 0.0, "lattice": {"matrix": [[4.405167249603745, 0.0, 0.0], [-0.0, 5.197295450680424, 0.0], [0.0, 0.0, 6.958721805735625]], "pbc": [true, true, true], "a": 4.405167249603745, "b": 5.197295450680424, "c": 6.958721805735625, "alpha": 90.0, "beta": 90.0, "gamma": 90.0, "volume": 159.31962751166316}, "properties": {}, "sites": [{"species": [{"element": "Yb", "occu": 1}], "abc": [0.25, 0.140238009746006, 0.182463155359116], "properties": {"magmom": -0.0}, "label": "Yb", "xyz": [1.1012918124009363, 0.728858370065394, 1.2697103379408075]}, {"species": [{"element": "Yb", "occu": 1}], "abc": [0.75, 0.859761990253993, 0.817536844640883], "properties": {"magmom": -0.0}, "label": "Yb", "xyz": [3.3038754372028087, 4.468437080615025, 5.689011467794811]}, {"species": [{"element": "Yb", "occu": 1}], "abc": [0.75, 0.6402380097460061, 0.317536844640883], "properties": {"magmom": -0.0}, "label": "Yb", "xyz": [3.3038754372028087, 3.3275060954056066, 2.209650564926998]}, {"species": [{"element": "Yb", "occu": 1}], "abc": [0.25, 0.359761990253993, 0.6824631553591161], "properties": {"magmom": -0.0}, "label": "Yb", "xyz": [1.1012918124009363, 1.869789355274813, 4.74907124080862]}, {"species": [{"element": "Cu", "occu": 1}], "abc": [0.25, 0.6306745293023961, 0.029384275383826004], "properties": {"magmom": -0.0}, "label": "Cu", "xyz": [1.1012918124009363, 3.277801862003361, 0.20447699785917056]}, {"species": [{"element": "Cu", "occu": 1}], "abc": [0.75, 0.369325470697603, 0.9706157246161731], "properties": {"magmom": -0.0}, "label": "Cu", "xyz": [3.3038754372028087, 1.9194935886770585, 6.754244807876447]}, {"species": [{"element": "Cu", "occu": 1}], "abc": [0.75, 0.130674529302396, 0.470615724616173], "properties": {"magmom": -0.0}, "label": "Cu", "xyz": [3.3038754372028087, 0.6791541366631485, 3.274883905008635]}, {"species": [{"element": "Cu", "occu": 1}], "abc": [0.25, 0.869325470697603, 0.529384275383826], "properties": {"magmom": -0.0}, "label": "Cu", "xyz": [1.1012918124009363, 4.518141314017271, 3.6838379007269832]}]}, "task_ids": null, "uncorrected_energy_per_atom": null, "energy_per_atom": -24.00376776125, "formation_energy_per_atom": -0.31568036875000105, "energy_above_hull": 0.0, "is_stable": true, "equilibrium_reaction_energy_per_atom": null, "decomposes_to": null, "xas": null, "grain_boundaries": null, "band_gap": 0.0, "cbm": null, "vbm": null, "efermi": 3.34137906, "is_gap_direct": null, "is_metal": null, "es_source_calc_id": null, "bandstructure": null, "dos": null, "dos_energy_up": null, "dos_energy_down": null, "is_magnetic": null, "ordering": null, "total_magnetization": 0.0, "total_magnetization_normalized_vol": null, "total_magnetization_normalized_formula_units": null, "num_magnetic_sites": null, "num_unique_magnetic_sites": null, "types_of_magnetic_species": null, "bulk_modulus": null, "shear_modulus": null, "universal_anisotropy": null, "homogeneous_poisson": null, "e_total": null, "e_ionic": null, "e_electronic": null, "n": null, "e_ij_max": null, "weighted_surface_energy_EV_PER_ANG2": null, "weighted_surface_energy": null, "weighted_work_function": null, "surface_anisotropy": null, "shape_factor": null, "has_reconstructed": null, "possible_species": null, "has_props": null, "theoretical": null, "database_IDs": null, "fields_not_requested": ["builder_meta", "nsites", "elements", "nelements", "composition", "composition_reduced", "chemsys", "symmetry", "property_name", "deprecated", "deprecation_reasons", "last_updated", "origins", "warnings", "task_ids", "uncorrected_energy_per_atom", "equilibrium_reaction_energy_per_atom", "decomposes_to", "xas", "grain_boundaries", "cbm", "vbm", "is_gap_direct", "is_metal", "es_source_calc_id", "bandstructure", "dos", "dos_energy_up", "dos_energy_down", "is_magnetic", "ordering", "total_magnetization_normalized_vol", "total_magnetization_normalized_formula_units", "num_magnetic_sites", "num_unique_magnetic_sites", "types_of_magnetic_species", "bulk_modulus", "shear_modulus", "universal_anisotropy", "homogeneous_poisson", "e_total", "e_ionic", "e_electronic", "n", "e_ij_max", "weighted_surface_energy_EV_PER_ANG2", "weighted_surface_energy", "weighted_work_function", "surface_anisotropy", "shape_factor", "has_reconstructed", "possible_species", "has_props", "theoretical", "database_IDs"]}