{"builder_meta": null, "nsites": null, "elements": null, "nelements": null, "composition": null, "composition_reduced": null, "formula_pretty": "YbEu", "formula_anonymous": "AB", "chemsys": null, "volume": 68.71171486589027, "density": 7.854291511347129, "density_atomic": 34.355857432945136, "symmetry": null, "property_name": null, "material_id": "mp-1215556", "deprecated": null, "deprecation_reasons": null, "last_updated": null, "origins": null, "warnings": null, "structure": {"@module": "pymatgen.core.structure", "@class": "Structure", "charge": 0.0, "lattice": {"matrix": [[6.192468940160381, -1.802589031912075, 0.028084113357616004], [6.192468940160381, 1.802589031912075, 0.028084113357616004], [5.653799261879051, 0.0, 3.10343996960166]], "pbc": [true, true, true], "a": 6.449557156134352, "b": 6.449557156134352, "c": 6.4495570187839455, "alpha": 32.45957648764184, "beta": 32.45957648764184, "gamma": 32.4595799680697, "volume": 68.71171486589027}, "properties": {}, "sites": [{"species": [{"element": "Yb", "occu": 1}], "abc": [0.5, 0.5, 0.5], "properties": {"magmom": 0.333}, "label": "Yb", "xyz": [9.019368571099907, 0.0, 1.579804098158446]}, {"species": [{"element": "Eu", "occu": 1}], "abc": [0.0, 0.0, 0.0], "properties": {"magmom": 7.012}, "label": "Eu", "xyz": [0.0, 0.0, 0.0]}]}, "task_ids": null, "uncorrected_energy_per_atom": null, "energy_per_atom": -37.41710174, "formation_energy_per_atom": 0.10802901000000201, "energy_above_hull": 0.10802901000000201, "is_stable": false, "equilibrium_reaction_energy_per_atom": null, "decomposes_to": null, "xas": null, "grain_boundaries": null, "band_gap": 0.0, "cbm": null, "vbm": null, "efermi": 1.71016594, "is_gap_direct": null, "is_metal": null, "es_source_calc_id": null, "bandstructure": null, "dos": null, "dos_energy_up": null, "dos_energy_down": null, "is_magnetic": null, "ordering": null, "total_magnetization": 8.0002148, "total_magnetization_normalized_vol": null, "total_magnetization_normalized_formula_units": null, "num_magnetic_sites": null, "num_unique_magnetic_sites": null, "types_of_magnetic_species": null, "bulk_modulus": null, "shear_modulus": null, "universal_anisotropy": null, "homogeneous_poisson": null, "e_total": null, "e_ionic": null, "e_electronic": null, "n": null, "e_ij_max": null, "weighted_surface_energy_EV_PER_ANG2": null, "weighted_surface_energy": null, "weighted_work_function": null, "surface_anisotropy": null, "shape_factor": null, "has_reconstructed": null, "possible_species": null, "has_props": null, "theoretical": null, "database_IDs": null, "fields_not_requested": ["builder_meta", "nsites", "elements", "nelements", "composition", "composition_reduced", "chemsys", "symmetry", "property_name", "deprecated", "deprecation_reasons", "last_updated", "origins", "warnings", "task_ids", "uncorrected_energy_per_atom", "equilibrium_reaction_energy_per_atom", "decomposes_to", "xas", "grain_boundaries", "cbm", "vbm", "is_gap_direct", "is_metal", "es_source_calc_id", "bandstructure", "dos", "dos_energy_up", "dos_energy_down", "is_magnetic", "ordering", "total_magnetization_normalized_vol", "total_magnetization_normalized_formula_units", "num_magnetic_sites", "num_unique_magnetic_sites", "types_of_magnetic_species", "bulk_modulus", "shear_modulus", "universal_anisotropy", "homogeneous_poisson", "e_total", "e_ionic", "e_electronic", "n", "e_ij_max", "weighted_surface_energy_EV_PER_ANG2", "weighted_surface_energy", "weighted_work_function", "surface_anisotropy", "shape_factor", "has_reconstructed", "possible_species", "has_props", "theoretical", "database_IDs"]}