{"builder_meta": null, "nsites": null, "elements": null, "nelements": null, "composition": null, "composition_reduced": null, "formula_pretty": "YbF3", "formula_anonymous": "AB3", "chemsys": null, "volume": 180.1399203624185, "density": 8.481905653468024, "density_atomic": 11.258745022651157, "symmetry": null, "property_name": null, "material_id": "mp-22072", "deprecated": null, "deprecation_reasons": null, "last_updated": null, "origins": null, "warnings": null, "structure": {"@module": "pymatgen.core.structure", "@class": "Structure", "charge": 0.0, "lattice": {"matrix": [[4.432727072857122, 0.0, 0.0], [-0.0, 6.070577474265501, 0.0], [0.0, 0.0, 6.694358529628029]], "pbc": [true, true, true], "a": 4.432727072857122, "b": 6.070577474265501, "c": 6.694358529628029, "alpha": 90.0, "beta": 90.0, "gamma": 90.0, "volume": 180.1399203624185}, "properties": {}, "sites": [{"species": [{"element": "Yb", "occu": 1}], "abc": [0.948696798288381, 0.6316939875349731, 0.75], "properties": {"magmom": 0.0}, "label": "Yb", "xyz": [4.205313981705779, 3.8347472913587595, 5.020768897221021]}, {"species": [{"element": "Yb", "occu": 1}], "abc": [0.44869679828838105, 0.868306012465026, 0.25], "properties": {"magmom": 0.0}, "label": "Yb", "xyz": [1.9889504452772178, 5.271118920039486, 1.6735896324070072]}, {"species": [{"element": "Yb", "occu": 1}], "abc": [0.5513032017116181, 0.13169398753497302, 0.75], "properties": {"magmom": 0.0}, "label": "Yb", "xyz": [2.4437766275799, 0.7994585542260089, 5.020768897221021]}, {"species": [{"element": "Yb", "occu": 1}], "abc": [0.05130320171161801, 0.36830601246502603, 0.25], "properties": {"magmom": 0.0}, "label": "Yb", "xyz": [0.22741309115133898, 2.235830182906736, 1.6735896324070072]}, {"species": [{"element": "F", "occu": 1}], "abc": [0.108503121977726, 0.9711199500276421, 0.75], "properties": {"magmom": -0.0}, "label": "F", "xyz": [0.48096472628018466, 5.895258893447643, 5.020768897221021]}, {"species": [{"element": "F", "occu": 1}], "abc": [0.608503121977726, 0.528880049972357, 0.25], "properties": {"magmom": -0.0}, "label": "F", "xyz": [2.697328262708746, 3.210607317950603, 1.6735896324070072]}, {"species": [{"element": "F", "occu": 1}], "abc": [0.391496878022273, 0.471119950027642, 0.75], "properties": {"magmom": -0.0}, "label": "F", "xyz": [1.735398810148372, 2.859970156314892, 5.020768897221021]}, {"species": [{"element": "F", "occu": 1}], "abc": [0.8914968780222731, 0.028880049972357002, 0.25], "properties": {"magmom": -0.0}, "label": "F", "xyz": [3.9517623465769334, 0.17531858081785243, 1.6735896324070072]}, {"species": [{"element": "F", "occu": 1}], "abc": [0.363064429722442, 0.165195255046924, 0.062411803564437006], "properties": {"magmom": -0.0}, "label": "F", "xyz": [1.6093655268221008, 1.0028305941434013, 0.4178069895410579]}, {"species": [{"element": "F", "occu": 1}], "abc": [0.863064429722442, 0.33480474495307505, 0.9375881964355621], "properties": {"magmom": -0.0}, "label": "F", "xyz": [3.8257290632506615, 2.0324581429893436, 6.276551540086965]}, {"species": [{"element": "F", "occu": 1}], "abc": [0.136935570277557, 0.665195255046924, 0.437588196435562], "properties": {"magmom": -0.0}, "label": "F", "xyz": [0.606998009606456, 4.038119331276151, 2.92937227527295]}, {"species": [{"element": "F", "occu": 1}], "abc": [0.6369355702775571, 0.8348047449530751, 0.5624118035644371], "properties": {"magmom": -0.0}, "label": "F", "xyz": [2.8233615460350174, 5.067746880122094, 3.764986254355073]}, {"species": [{"element": "F", "occu": 1}], "abc": [0.6369355702775571, 0.8348047449530751, 0.9375881964355621], "properties": {"magmom": -0.0}, "label": "F", "xyz": [2.8233615460350174, 5.067746880122094, 6.276551540086965]}, {"species": [{"element": "F", "occu": 1}], "abc": [0.136935570277557, 0.665195255046924, 0.062411803564437006], "properties": {"magmom": -0.0}, "label": "F", "xyz": [0.606998009606456, 4.038119331276151, 0.4178069895410579]}, {"species": [{"element": "F", "occu": 1}], "abc": [0.863064429722442, 0.33480474495307505, 0.5624118035644371], "properties": {"magmom": -0.0}, "label": "F", "xyz": [3.8257290632506615, 2.0324581429893436, 3.764986254355073]}, {"species": [{"element": "F", "occu": 1}], "abc": [0.363064429722442, 0.165195255046924, 0.437588196435562], "properties": {"magmom": -0.0}, "label": "F", "xyz": [1.6093655268221008, 1.0028305941434013, 2.92937227527295]}]}, "task_ids": null, "uncorrected_energy_per_atom": null, "energy_per_atom": -16.001185450625, "formation_energy_per_atom": -4.524319791875001, "energy_above_hull": 0.0, "is_stable": true, "equilibrium_reaction_energy_per_atom": null, "decomposes_to": null, "xas": null, "grain_boundaries": null, "band_gap": 0.0, "cbm": null, "vbm": null, "efermi": -2.11683385, "is_gap_direct": null, "is_metal": null, "es_source_calc_id": null, "bandstructure": null, "dos": null, "dos_energy_up": null, "dos_energy_down": null, "is_magnetic": null, "ordering": null, "total_magnetization": 0.0, "total_magnetization_normalized_vol": null, "total_magnetization_normalized_formula_units": null, "num_magnetic_sites": null, "num_unique_magnetic_sites": null, "types_of_magnetic_species": null, "bulk_modulus": null, "shear_modulus": null, "universal_anisotropy": null, "homogeneous_poisson": null, "e_total": null, "e_ionic": null, "e_electronic": null, "n": null, "e_ij_max": null, "weighted_surface_energy_EV_PER_ANG2": null, "weighted_surface_energy": null, "weighted_work_function": null, "surface_anisotropy": null, "shape_factor": null, "has_reconstructed": null, "possible_species": null, "has_props": null, "theoretical": null, "database_IDs": null, "fields_not_requested": ["builder_meta", "nsites", "elements", "nelements", "composition", "composition_reduced", "chemsys", "symmetry", "property_name", "deprecated", "deprecation_reasons", "last_updated", "origins", "warnings", "task_ids", "uncorrected_energy_per_atom", "equilibrium_reaction_energy_per_atom", "decomposes_to", "xas", "grain_boundaries", "cbm", "vbm", "is_gap_direct", "is_metal", "es_source_calc_id", "bandstructure", "dos", "dos_energy_up", "dos_energy_down", "is_magnetic", "ordering", "total_magnetization_normalized_vol", "total_magnetization_normalized_formula_units", "num_magnetic_sites", "num_unique_magnetic_sites", "types_of_magnetic_species", "bulk_modulus", "shear_modulus", "universal_anisotropy", "homogeneous_poisson", "e_total", "e_ionic", "e_electronic", "n", "e_ij_max", "weighted_surface_energy_EV_PER_ANG2", "weighted_surface_energy", "weighted_work_function", "surface_anisotropy", "shape_factor", "has_reconstructed", "possible_species", "has_props", "theoretical", "database_IDs"]}