{"builder_meta": null, "nsites": null, "elements": null, "nelements": null, "composition": null, "composition_reduced": null, "formula_pretty": "YbFe2", "formula_anonymous": "AB2", "chemsys": null, "volume": 191.05789519237277, "density": 9.898680982682423, "density_atomic": 15.921491266031063, "symmetry": null, "property_name": null, "material_id": "mp-1103467", "deprecated": null, "deprecation_reasons": null, "last_updated": null, "origins": null, "warnings": null, "structure": {"@module": "pymatgen.core.structure", "@class": "Structure", "charge": 0.0, "lattice": {"matrix": [[5.128884809953559, 0.0, 0.0], [-2.564442404976779, 4.443516159716721, 0.0], [0.0, -0.0, 8.383305248821308]], "pbc": [true, true, true], "a": 5.128884809953559, "b": 5.1304191554011185, "c": 8.383305248821308, "alpha": 90.0, "beta": 90.0, "gamma": 119.99010739514453, "volume": 191.0578951923727}, "properties": {}, "sites": [{"species": [{"element": "Yb", "occu": 1}], "abc": [0.33336260730162304, 0.6667252146032531, 0.43699079350580605], "properties": {"magmom": -1.219}, "label": "Yb", "xyz": [-1.7541523789077473e-14, 2.962604265180154, 3.6634272128838123]}, {"species": [{"element": "Yb", "occu": 1}], "abc": [0.6666373926983761, 0.33327478539674604, 0.5630092064941931], "properties": {"magmom": -1.219}, "label": "Yb", "xyz": [2.5644424049767953, 1.4809118945365634, 4.719878035937489]}, {"species": [{"element": "Yb", "occu": 1}], "abc": [0.6666373926983761, 0.33327478539674604, 0.936990793505806], "properties": {"magmom": -1.219}, "label": "Yb", "xyz": [2.5644424049767953, 1.4809118945365634, 7.855079837294467]}, {"species": [{"element": "Yb", "occu": 1}], "abc": [0.33336260730162304, 0.6667252146032531, 0.063009206494193], "properties": {"magmom": -1.219}, "label": "Yb", "xyz": [-1.7541523789077473e-14, 2.962604265180154, 0.5282254115268339]}, {"species": [{"element": "Fe", "occu": 1}], "abc": [0.0, 0.0, 0.5], "properties": {"magmom": 2.502}, "label": "Fe", "xyz": [0.0, 0.0, 4.191652624410654]}, {"species": [{"element": "Fe", "occu": 1}], "abc": [0.0, 0.0, 0.0], "properties": {"magmom": 2.502}, "label": "Fe", "xyz": [0.0, 0.0, 0.0]}, {"species": [{"element": "Fe", "occu": 1}], "abc": [0.836864891366886, 0.16334989566792002, 0.25], "properties": {"magmom": 2.519}, "label": "Fe", "xyz": [3.8732822300157097, 0.7258479010884431, 2.095826312205327]}, {"species": [{"element": "Fe", "occu": 1}], "abc": [0.836919715509424, 0.673839431018862, 0.25], "properties": {"magmom": 2.517}, "label": "Fe", "xyz": [2.5644424049767434, 2.9942164007866343, 2.095826312205327]}, {"species": [{"element": "Fe", "occu": 1}], "abc": [0.326485004301034, 0.16334989566792002, 0.25], "properties": {"magmom": 2.519}, "label": "Fe", "xyz": [1.255602579937849, 0.7258479010884431, 2.095826312205327]}, {"species": [{"element": "Fe", "occu": 1}], "abc": [0.163135108633113, 0.8366501043320791, 0.75], "properties": {"magmom": 2.519}, "label": "Fe", "xyz": [-1.3088398250389328, 3.7176682586282745, 6.287478936615981]}, {"species": [{"element": "Fe", "occu": 1}], "abc": [0.16308028449057502, 0.32616056898113704, 0.75], "properties": {"magmom": 2.517}, "label": "Fe", "xyz": [3.352873534367973e-14, 1.449299758930083, 6.287478936615981]}, {"species": [{"element": "Fe", "occu": 1}], "abc": [0.673514995698965, 0.8366501043320791, 0.75], "properties": {"magmom": 2.519}, "label": "Fe", "xyz": [1.3088398250389282, 3.7176682586282745, 6.287478936615981]}]}, "task_ids": null, "uncorrected_energy_per_atom": null, "energy_per_atom": -21.836391989166668, "formation_energy_per_atom": -0.051006634166668, "energy_above_hull": 0.0, "is_stable": true, "equilibrium_reaction_energy_per_atom": null, "decomposes_to": null, "xas": null, "grain_boundaries": null, "band_gap": 0.0, "cbm": null, "vbm": null, "efermi": 3.81927172, "is_gap_direct": null, "is_metal": null, "es_source_calc_id": null, "bandstructure": null, "dos": null, "dos_energy_up": null, "dos_energy_down": null, "is_magnetic": null, "ordering": null, "total_magnetization": 15.4231302, "total_magnetization_normalized_vol": null, "total_magnetization_normalized_formula_units": null, "num_magnetic_sites": null, "num_unique_magnetic_sites": null, "types_of_magnetic_species": null, "bulk_modulus": null, "shear_modulus": null, "universal_anisotropy": null, "homogeneous_poisson": null, "e_total": null, "e_ionic": null, "e_electronic": null, "n": null, "e_ij_max": null, "weighted_surface_energy_EV_PER_ANG2": null, "weighted_surface_energy": null, "weighted_work_function": null, "surface_anisotropy": null, "shape_factor": null, "has_reconstructed": null, "possible_species": null, "has_props": null, "theoretical": null, "database_IDs": null, "fields_not_requested": ["builder_meta", "nsites", "elements", "nelements", "composition", "composition_reduced", "chemsys", "symmetry", "property_name", "deprecated", "deprecation_reasons", "last_updated", "origins", "warnings", "task_ids", "uncorrected_energy_per_atom", "equilibrium_reaction_energy_per_atom", "decomposes_to", "xas", "grain_boundaries", "cbm", "vbm", "is_gap_direct", "is_metal", "es_source_calc_id", "bandstructure", "dos", "dos_energy_up", "dos_energy_down", "is_magnetic", "ordering", "total_magnetization_normalized_vol", "total_magnetization_normalized_formula_units", "num_magnetic_sites", "num_unique_magnetic_sites", "types_of_magnetic_species", "bulk_modulus", "shear_modulus", "universal_anisotropy", "homogeneous_poisson", "e_total", "e_ionic", "e_electronic", "n", "e_ij_max", "weighted_surface_energy_EV_PER_ANG2", "weighted_surface_energy", "weighted_work_function", "surface_anisotropy", "shape_factor", "has_reconstructed", "possible_species", "has_props", "theoretical", "database_IDs"]}