{
  "builder_meta": null,
  "nsites": null,
  "elements": null,
  "nelements": null,
  "composition": null,
  "composition_reduced": null,
  "formula_pretty": "YbGa4",
  "formula_anonymous": "AB4",
  "chemsys": null,
  "volume": 96.69883229600224,
  "density": 7.760701175268448,
  "density_atomic": 19.339766459200447,
  "symmetry": null,
  "property_name": null,
  "material_id": "mp-3216688",
  "deprecated": null,
  "deprecation_reasons": null,
  "last_updated": null,
  "origins": null,
  "warnings": null,
  "structure": {
    "@module": "pymatgen.core.structure",
    "@class": "Structure",
    "charge": 0.0,
    "lattice": {
      "matrix": [
        [2.75552776126292, 3.164548985895881, -0.37641303171087104],
        [-2.75552776126292, 3.164548985895881, -0.37641303171087104],
        [0.0, 2.280183941708785, 5.273435549121352]
      ],
      "pbc": [true, true, true],
      "a": 4.212955055263118,
      "b": 4.212955055263118,
      "c": 5.745290358090131,
      "alpha": 77.51959302587173,
      "beta": 77.51959302587173,
      "gamma": 81.69691060254127,
      "volume": 96.6988322960022
    },
    "properties": {},
    "sites": [
      {
        "species": [{ "element": "Yb", "occu": 1 }],
        "abc": [0.0, 0.0, 0.0],
        "properties": { "magmom": -0.0 },
        "label": "Yb",
        "xyz": [0.0, 0.0, 0.0]
      },
      {
        "species": [{ "element": "Ga", "occu": 1 }],
        "abc": [0.373576100170041, 0.373576100170041, 0.21154942175180402],
        "properties": { "magmom": -0.0 },
        "label": "Ga",
        "xyz": [0.0, 2.846771332252325, 0.8343544161825708]
      },
      {
        "species": [{ "element": "Ga", "occu": 1 }],
        "abc": [0.626423899829958, 0.626423899829958, 0.7884505782481951],
        "properties": { "magmom": -0.0 },
        "label": "Ga",
        "xyz": [0.0, 5.762510581248213, 3.6862550695170353]
      },
      {
        "species": [{ "element": "Ga", "occu": 1 }],
        "abc": [0.7693948628134991, 0.23060513718650102, 0.5],
        "properties": { "magmom": 0.0 },
        "label": "Ga",
        "xyz": [1.4846500464484254, 4.304640956750274, 2.260304742849805]
      },
      {
        "species": [{ "element": "Ga", "occu": 1 }],
        "abc": [0.23060513718650102, 0.7693948628134991, 0.5],
        "properties": { "magmom": 0.0 },
        "label": "Ga",
        "xyz": [-1.4846500464484254, 4.304640956750274, 2.260304742849805]
      }
    ]
  },
  "task_ids": null,
  "uncorrected_energy_per_atom": null,
  "energy_per_atom": -16.821081392,
  "formation_energy_per_atom": -0.36098487499999904,
  "energy_above_hull": 0.060460590999998,
  "is_stable": false,
  "equilibrium_reaction_energy_per_atom": null,
  "decomposes_to": null,
  "xas": null,
  "grain_boundaries": null,
  "band_gap": 0.0,
  "cbm": null,
  "vbm": null,
  "efermi": 5.35210097,
  "is_gap_direct": null,
  "is_metal": null,
  "es_source_calc_id": null,
  "bandstructure": null,
  "dos": null,
  "dos_energy_up": null,
  "dos_energy_down": null,
  "is_magnetic": null,
  "ordering": null,
  "total_magnetization": 0.0,
  "total_magnetization_normalized_vol": null,
  "total_magnetization_normalized_formula_units": null,
  "num_magnetic_sites": null,
  "num_unique_magnetic_sites": null,
  "types_of_magnetic_species": null,
  "bulk_modulus": null,
  "shear_modulus": null,
  "universal_anisotropy": null,
  "homogeneous_poisson": null,
  "e_total": null,
  "e_ionic": null,
  "e_electronic": null,
  "n": null,
  "e_ij_max": null,
  "weighted_surface_energy_EV_PER_ANG2": null,
  "weighted_surface_energy": null,
  "weighted_work_function": null,
  "surface_anisotropy": null,
  "shape_factor": null,
  "has_reconstructed": null,
  "possible_species": null,
  "has_props": null,
  "theoretical": null,
  "database_IDs": null,
  "fields_not_requested": [
    "builder_meta",
    "nsites",
    "elements",
    "nelements",
    "composition",
    "composition_reduced",
    "chemsys",
    "symmetry",
    "property_name",
    "deprecated",
    "deprecation_reasons",
    "last_updated",
    "origins",
    "warnings",
    "task_ids",
    "uncorrected_energy_per_atom",
    "equilibrium_reaction_energy_per_atom",
    "decomposes_to",
    "xas",
    "grain_boundaries",
    "cbm",
    "vbm",
    "is_gap_direct",
    "is_metal",
    "es_source_calc_id",
    "bandstructure",
    "dos",
    "dos_energy_up",
    "dos_energy_down",
    "is_magnetic",
    "ordering",
    "total_magnetization_normalized_vol",
    "total_magnetization_normalized_formula_units",
    "num_magnetic_sites",
    "num_unique_magnetic_sites",
    "types_of_magnetic_species",
    "bulk_modulus",
    "shear_modulus",
    "universal_anisotropy",
    "homogeneous_poisson",
    "e_total",
    "e_ionic",
    "e_electronic",
    "n",
    "e_ij_max",
    "weighted_surface_energy_EV_PER_ANG2",
    "weighted_surface_energy",
    "weighted_work_function",
    "surface_anisotropy",
    "shape_factor",
    "has_reconstructed",
    "possible_species",
    "has_props",
    "theoretical",
    "database_IDs"
  ]
}
