{
  "builder_meta": null,
  "nsites": null,
  "elements": null,
  "nelements": null,
  "composition": null,
  "composition_reduced": null,
  "formula_pretty": "YbGa6",
  "formula_anonymous": "AB6",
  "chemsys": null,
  "volume": 257.19726553151673,
  "density": 7.636210829056737,
  "density_atomic": 18.371233252251194,
  "symmetry": null,
  "property_name": null,
  "material_id": "mp-1104639",
  "deprecated": null,
  "deprecation_reasons": null,
  "last_updated": null,
  "origins": null,
  "warnings": null,
  "structure": {
    "@module": "pymatgen.core.structure",
    "@class": "Structure",
    "charge": 0.0,
    "lattice": {
      "matrix": [
        [5.878574552080561, 0.0, 0.0],
        [0.0, 5.878574552080561, 0.0],
        [0.0, -0.0, 7.442559003675369]
      ],
      "pbc": [true, true, true],
      "a": 5.878574552080561,
      "b": 5.878574552080561,
      "c": 7.442559003675369,
      "alpha": 90.0,
      "beta": 90.0,
      "gamma": 90.0,
      "volume": 257.19726553151673
    },
    "properties": {},
    "sites": [
      {
        "species": [{ "element": "Yb", "occu": 1 }],
        "abc": [0.5, 0.0, 0.0],
        "properties": { "magmom": 0.0 },
        "label": "Yb",
        "xyz": [2.9392872760402806, 0.0, 0.0]
      },
      {
        "species": [{ "element": "Yb", "occu": 1 }],
        "abc": [0.0, 0.5, 0.0],
        "properties": { "magmom": 0.0 },
        "label": "Yb",
        "xyz": [0.0, 2.9392872760402806, 0.0]
      },
      {
        "species": [{ "element": "Ga", "occu": 1 }],
        "abc": [0.5, 0.5, 0.161209687030513],
        "properties": { "magmom": -0.0 },
        "label": "Ga",
        "xyz": [2.9392872760402806, 2.9392872760402806, 1.1998126076886328]
      },
      {
        "species": [{ "element": "Ga", "occu": 1 }],
        "abc": [0.0, 0.0, 0.161209687030513],
        "properties": { "magmom": -0.0 },
        "label": "Ga",
        "xyz": [0.0, 0.0, 1.1998126076886328]
      },
      {
        "species": [{ "element": "Ga", "occu": 1 }],
        "abc": [0.0, 0.0, 0.838790312969486],
        "properties": { "magmom": -0.0 },
        "label": "Ga",
        "xyz": [0.0, 0.0, 6.242746395986728]
      },
      {
        "species": [{ "element": "Ga", "occu": 1 }],
        "abc": [0.5, 0.5, 0.838790312969486],
        "properties": { "magmom": -0.0 },
        "label": "Ga",
        "xyz": [2.9392872760402806, 2.9392872760402806, 6.242746395986728]
      },
      {
        "species": [{ "element": "Ga", "occu": 1 }],
        "abc": [0.8238017021638411, 0.676198297836158, 0.351690586566462],
        "properties": { "magmom": 0.0 },
        "label": "Ga",
        "xyz": [4.842779722301006, 3.9750821058198307, 2.6174779415580933]
      },
      {
        "species": [{ "element": "Ga", "occu": 1 }],
        "abc": [0.323801702163841, 0.8238017021638411, 0.351690586566462],
        "properties": { "magmom": 0.0 },
        "label": "Ga",
        "xyz": [1.903492446260725, 4.842779722301006, 2.6174779415580933]
      },
      {
        "species": [{ "element": "Ga", "occu": 1 }],
        "abc": [0.676198297836158, 0.176198297836158, 0.351690586566462],
        "properties": { "magmom": 0.0 },
        "label": "Ga",
        "xyz": [3.9750821058198307, 1.0357948297795498, 2.6174779415580933]
      },
      {
        "species": [{ "element": "Ga", "occu": 1 }],
        "abc": [0.176198297836158, 0.323801702163841, 0.351690586566462],
        "properties": { "magmom": 0.0 },
        "label": "Ga",
        "xyz": [1.0357948297795498, 1.903492446260725, 2.6174779415580933]
      },
      {
        "species": [{ "element": "Ga", "occu": 1 }],
        "abc": [0.676198297836158, 0.8238017021638411, 0.6483094134335371],
        "properties": { "magmom": 0.0 },
        "label": "Ga",
        "xyz": [3.9750821058198307, 4.842779722301006, 4.825081062117269]
      },
      {
        "species": [{ "element": "Ga", "occu": 1 }],
        "abc": [0.176198297836158, 0.676198297836158, 0.6483094134335371],
        "properties": { "magmom": 0.0 },
        "label": "Ga",
        "xyz": [1.0357948297795498, 3.9750821058198307, 4.825081062117269]
      },
      {
        "species": [{ "element": "Ga", "occu": 1 }],
        "abc": [0.8238017021638411, 0.323801702163841, 0.6483094134335371],
        "properties": { "magmom": 0.0 },
        "label": "Ga",
        "xyz": [4.842779722301006, 1.903492446260725, 4.825081062117269]
      },
      {
        "species": [{ "element": "Ga", "occu": 1 }],
        "abc": [0.323801702163841, 0.176198297836158, 0.6483094134335371],
        "properties": { "magmom": 0.0 },
        "label": "Ga",
        "xyz": [1.903492446260725, 1.0357948297795498, 4.825081062117269]
      }
    ]
  },
  "task_ids": null,
  "uncorrected_energy_per_atom": null,
  "energy_per_atom": -15.333012215714286,
  "formation_energy_per_atom": -0.306435860714285,
  "energy_above_hull": 0.0,
  "is_stable": true,
  "equilibrium_reaction_energy_per_atom": null,
  "decomposes_to": null,
  "xas": null,
  "grain_boundaries": null,
  "band_gap": 0.0,
  "cbm": null,
  "vbm": null,
  "efermi": 3.26406576,
  "is_gap_direct": null,
  "is_metal": null,
  "es_source_calc_id": null,
  "bandstructure": null,
  "dos": null,
  "dos_energy_up": null,
  "dos_energy_down": null,
  "is_magnetic": null,
  "ordering": null,
  "total_magnetization": 0.0,
  "total_magnetization_normalized_vol": null,
  "total_magnetization_normalized_formula_units": null,
  "num_magnetic_sites": null,
  "num_unique_magnetic_sites": null,
  "types_of_magnetic_species": null,
  "bulk_modulus": null,
  "shear_modulus": null,
  "universal_anisotropy": null,
  "homogeneous_poisson": null,
  "e_total": null,
  "e_ionic": null,
  "e_electronic": null,
  "n": null,
  "e_ij_max": null,
  "weighted_surface_energy_EV_PER_ANG2": null,
  "weighted_surface_energy": null,
  "weighted_work_function": null,
  "surface_anisotropy": null,
  "shape_factor": null,
  "has_reconstructed": null,
  "possible_species": null,
  "has_props": null,
  "theoretical": null,
  "database_IDs": null,
  "fields_not_requested": [
    "builder_meta",
    "nsites",
    "elements",
    "nelements",
    "composition",
    "composition_reduced",
    "chemsys",
    "symmetry",
    "property_name",
    "deprecated",
    "deprecation_reasons",
    "last_updated",
    "origins",
    "warnings",
    "task_ids",
    "uncorrected_energy_per_atom",
    "equilibrium_reaction_energy_per_atom",
    "decomposes_to",
    "xas",
    "grain_boundaries",
    "cbm",
    "vbm",
    "is_gap_direct",
    "is_metal",
    "es_source_calc_id",
    "bandstructure",
    "dos",
    "dos_energy_up",
    "dos_energy_down",
    "is_magnetic",
    "ordering",
    "total_magnetization_normalized_vol",
    "total_magnetization_normalized_formula_units",
    "num_magnetic_sites",
    "num_unique_magnetic_sites",
    "types_of_magnetic_species",
    "bulk_modulus",
    "shear_modulus",
    "universal_anisotropy",
    "homogeneous_poisson",
    "e_total",
    "e_ionic",
    "e_electronic",
    "n",
    "e_ij_max",
    "weighted_surface_energy_EV_PER_ANG2",
    "weighted_surface_energy",
    "weighted_work_function",
    "surface_anisotropy",
    "shape_factor",
    "has_reconstructed",
    "possible_species",
    "has_props",
    "theoretical",
    "database_IDs"
  ]
}
