{
  "builder_meta": null,
  "nsites": null,
  "elements": null,
  "nelements": null,
  "composition": null,
  "composition_reduced": null,
  "formula_pretty": "YbGd3",
  "formula_anonymous": "AB3",
  "chemsys": null,
  "volume": 263.21511838975715,
  "density": 8.135543211219128,
  "density_atomic": 32.901889798719644,
  "symmetry": null,
  "property_name": null,
  "material_id": "mp-1188067",
  "deprecated": null,
  "deprecation_reasons": null,
  "last_updated": null,
  "origins": null,
  "warnings": null,
  "structure": {
    "@module": "pymatgen.core.structure",
    "@class": "Structure",
    "charge": 0.0,
    "lattice": {
      "matrix": [
        [3.608450630126347, -6.250021110412154, -0.0],
        [3.608450630126347, 6.250021110412154, 0.0],
        [0.0, 0.0, 5.835506843684925]
      ],
      "pbc": [true, true, true],
      "a": 7.216902370869154,
      "b": 7.216902370869154,
      "c": 5.835506843684925,
      "alpha": 90.0,
      "beta": 90.0,
      "gamma": 120.00001018134759,
      "volume": 263.2151183897571
    },
    "properties": {},
    "sites": [
      {
        "species": [{ "element": "Yb", "occu": 1 }],
        "abc": [0.33333300000000304, 0.666666999999996, 0.75],
        "properties": { "magmom": 0.492 },
        "label": "Yb",
        "xyz": [3.6084506301263435, 2.083344536818081, 4.376630132763694]
      },
      {
        "species": [{ "element": "Yb", "occu": 1 }],
        "abc": [0.666666999999996, 0.33333300000000304, 0.25],
        "properties": { "magmom": 0.492 },
        "label": "Yb",
        "xyz": [3.6084506301263435, -2.083344536818081, 1.4588767109212313]
      },
      {
        "species": [{ "element": "Gd", "occu": 1 }],
        "abc": [0.167844676540084, 0.335689353083566, 0.25],
        "properties": { "magmom": 7.349 },
        "label": "Gd",
        "xyz": [1.8169776864855187, 1.0490327716670624, 1.4588767109212313]
      },
      {
        "species": [{ "element": "Gd", "occu": 1 }],
        "abc": [0.664310646916433, 0.832155323459915, 0.25],
        "properties": { "magmom": 7.349 },
        "label": "Gd",
        "xyz": [5.399923573767168, 1.0490327716670622, 1.4588767109212313]
      },
      {
        "species": [{ "element": "Gd", "occu": 1 }],
        "abc": [0.167844676543481, 0.8321553234565181, 0.25],
        "properties": { "magmom": 7.349 },
        "label": "Gd",
        "xyz": [3.608450630126344, 4.151955567078037, 1.4588767109212313]
      },
      {
        "species": [{ "element": "Gd", "occu": 1 }],
        "abc": [0.832155323459915, 0.664310646916433, 0.75],
        "properties": { "magmom": 7.349 },
        "label": "Gd",
        "xyz": [5.399923573767168, -1.0490327716670622, 4.376630132763694]
      },
      {
        "species": [{ "element": "Gd", "occu": 1 }],
        "abc": [0.335689353083566, 0.167844676540084, 0.75],
        "properties": { "magmom": 7.349 },
        "label": "Gd",
        "xyz": [1.8169776864855187, -1.0490327716670624, 4.376630132763694]
      },
      {
        "species": [{ "element": "Gd", "occu": 1 }],
        "abc": [0.8321553234565181, 0.167844676543481, 0.75],
        "properties": { "magmom": 7.349 },
        "label": "Gd",
        "xyz": [3.608450630126344, -4.151955567078037, 4.376630132763694]
      }
    ]
  },
  "task_ids": null,
  "uncorrected_energy_per_atom": null,
  "energy_per_atom": -41.69702911875,
  "formation_energy_per_atom": -0.016930447499994002,
  "energy_above_hull": 0.0,
  "is_stable": true,
  "equilibrium_reaction_energy_per_atom": null,
  "decomposes_to": null,
  "xas": null,
  "grain_boundaries": null,
  "band_gap": 0.0,
  "cbm": null,
  "vbm": null,
  "efermi": 3.45762949,
  "is_gap_direct": null,
  "is_metal": null,
  "es_source_calc_id": null,
  "bandstructure": null,
  "dos": null,
  "dos_energy_up": null,
  "dos_energy_down": null,
  "is_magnetic": null,
  "ordering": null,
  "total_magnetization": 48.7524635,
  "total_magnetization_normalized_vol": null,
  "total_magnetization_normalized_formula_units": null,
  "num_magnetic_sites": null,
  "num_unique_magnetic_sites": null,
  "types_of_magnetic_species": null,
  "bulk_modulus": null,
  "shear_modulus": null,
  "universal_anisotropy": null,
  "homogeneous_poisson": null,
  "e_total": null,
  "e_ionic": null,
  "e_electronic": null,
  "n": null,
  "e_ij_max": null,
  "weighted_surface_energy_EV_PER_ANG2": null,
  "weighted_surface_energy": null,
  "weighted_work_function": null,
  "surface_anisotropy": null,
  "shape_factor": null,
  "has_reconstructed": null,
  "possible_species": null,
  "has_props": null,
  "theoretical": null,
  "database_IDs": null,
  "fields_not_requested": [
    "builder_meta",
    "nsites",
    "elements",
    "nelements",
    "composition",
    "composition_reduced",
    "chemsys",
    "symmetry",
    "property_name",
    "deprecated",
    "deprecation_reasons",
    "last_updated",
    "origins",
    "warnings",
    "task_ids",
    "uncorrected_energy_per_atom",
    "equilibrium_reaction_energy_per_atom",
    "decomposes_to",
    "xas",
    "grain_boundaries",
    "cbm",
    "vbm",
    "is_gap_direct",
    "is_metal",
    "es_source_calc_id",
    "bandstructure",
    "dos",
    "dos_energy_up",
    "dos_energy_down",
    "is_magnetic",
    "ordering",
    "total_magnetization_normalized_vol",
    "total_magnetization_normalized_formula_units",
    "num_magnetic_sites",
    "num_unique_magnetic_sites",
    "types_of_magnetic_species",
    "bulk_modulus",
    "shear_modulus",
    "universal_anisotropy",
    "homogeneous_poisson",
    "e_total",
    "e_ionic",
    "e_electronic",
    "n",
    "e_ij_max",
    "weighted_surface_energy_EV_PER_ANG2",
    "weighted_surface_energy",
    "weighted_work_function",
    "surface_anisotropy",
    "shape_factor",
    "has_reconstructed",
    "possible_species",
    "has_props",
    "theoretical",
    "database_IDs"
  ]
}
