{"builder_meta": null, "nsites": null, "elements": null, "nelements": null, "composition": null, "composition_reduced": null, "formula_pretty": "YbGe3", "formula_anonymous": "AB3", "chemsys": null, "volume": 154.8313952688226, "density": 8.385952375495542, "density_atomic": 19.353924408602825, "symmetry": null, "property_name": null, "material_id": "mp-972063", "deprecated": null, "deprecation_reasons": null, "last_updated": null, "origins": null, "warnings": null, "structure": {"@module": "pymatgen.core.structure", "@class": "Structure", "charge": 0.0, "lattice": {"matrix": [[2.93544786488221, -5.084344499666805, -0.0], [2.93544786488221, 5.084344499666805, -0.0], [0.0, -0.0, 5.187041121448233]], "pbc": [true, true, true], "a": 5.870895430744242, "b": 5.870895430744242, "c": 5.187041121448233, "alpha": 90.0, "beta": 90.0, "gamma": 119.9999966303239, "volume": 154.83139526882255}, "properties": {}, "sites": [{"species": [{"element": "Yb", "occu": 1}], "abc": [0.33333300000000304, 0.666666999999996, 0.75], "properties": {"magmom": 0.0}, "label": "Yb", "xyz": [2.9354478648822075, 1.6947848894518986, 3.8902808410861747]}, {"species": [{"element": "Yb", "occu": 1}], "abc": [0.666666999999996, 0.33333300000000304, 0.25], "properties": {"magmom": 0.0}, "label": "Yb", "xyz": [2.9354478648822075, -1.6947848894518986, 1.2967602803620581]}, {"species": [{"element": "Ge", "occu": 1}], "abc": [0.15693396029929801, 0.313867920568974, 0.25], "properties": {"magmom": -0.0}, "label": "Ge", "xyz": [1.3820143759772978, 0.7979063177080559, 1.2967602803620581]}, {"species": [{"element": "Ge", "occu": 1}], "abc": [0.686132079431025, 0.843066039700701, 0.25], "properties": {"magmom": -0.0}, "label": "Ge", "xyz": [4.488881353787117, 0.7979063177080561, 1.2967602803620581]}, {"species": [{"element": "Ge", "occu": 1}], "abc": [0.15693396026966802, 0.8430660397303311, 0.25], "properties": {"magmom": -0.0}, "label": "Ge", "xyz": [2.9354478648822075, 3.4885318642507688, 1.2967602803620581]}, {"species": [{"element": "Ge", "occu": 1}], "abc": [0.843066039700701, 0.686132079431025, 0.75], "properties": {"magmom": -0.0}, "label": "Ge", "xyz": [4.488881353787117, -0.7979063177080561, 3.8902808410861747]}, {"species": [{"element": "Ge", "occu": 1}], "abc": [0.313867920568974, 0.15693396029929801, 0.75], "properties": {"magmom": -0.0}, "label": "Ge", "xyz": [1.3820143759772978, -0.7979063177080559, 3.8902808410861747]}, {"species": [{"element": "Ge", "occu": 1}], "abc": [0.8430660397303311, 0.15693396026966802, 0.75], "properties": {"magmom": -0.0}, "label": "Ge", "xyz": [2.9354478648822075, -3.4885318642507688, 3.8902808410861747]}]}, "task_ids": null, "uncorrected_energy_per_atom": null, "energy_per_atom": -19.80235141875, "formation_energy_per_atom": -0.2660235375, "energy_above_hull": 0.191325222916667, "is_stable": false, "equilibrium_reaction_energy_per_atom": null, "decomposes_to": null, "xas": null, "grain_boundaries": null, "band_gap": 0.0, "cbm": null, "vbm": null, "efermi": 5.56972656, "is_gap_direct": null, "is_metal": null, "es_source_calc_id": null, "bandstructure": null, "dos": null, "dos_energy_up": null, "dos_energy_down": null, "is_magnetic": null, "ordering": null, "total_magnetization": 0.0, "total_magnetization_normalized_vol": null, "total_magnetization_normalized_formula_units": null, "num_magnetic_sites": null, "num_unique_magnetic_sites": null, "types_of_magnetic_species": null, "bulk_modulus": null, "shear_modulus": null, "universal_anisotropy": null, "homogeneous_poisson": null, "e_total": null, "e_ionic": null, "e_electronic": null, "n": null, "e_ij_max": null, "weighted_surface_energy_EV_PER_ANG2": null, "weighted_surface_energy": null, "weighted_work_function": null, "surface_anisotropy": null, "shape_factor": null, "has_reconstructed": null, "possible_species": null, "has_props": null, "theoretical": null, "database_IDs": null, "fields_not_requested": ["builder_meta", "nsites", "elements", "nelements", "composition", "composition_reduced", "chemsys", "symmetry", "property_name", "deprecated", "deprecation_reasons", "last_updated", "origins", "warnings", "task_ids", "uncorrected_energy_per_atom", "equilibrium_reaction_energy_per_atom", "decomposes_to", "xas", "grain_boundaries", "cbm", "vbm", "is_gap_direct", "is_metal", "es_source_calc_id", "bandstructure", "dos", "dos_energy_up", "dos_energy_down", "is_magnetic", "ordering", "total_magnetization_normalized_vol", "total_magnetization_normalized_formula_units", "num_magnetic_sites", "num_unique_magnetic_sites", "types_of_magnetic_species", "bulk_modulus", "shear_modulus", "universal_anisotropy", "homogeneous_poisson", "e_total", "e_ionic", "e_electronic", "n", "e_ij_max", "weighted_surface_energy_EV_PER_ANG2", "weighted_surface_energy", "weighted_work_function", "surface_anisotropy", "shape_factor", "has_reconstructed", "possible_species", "has_props", "theoretical", "database_IDs"]}