{
  "builder_meta": null,
  "nsites": null,
  "elements": null,
  "nelements": null,
  "composition": null,
  "composition_reduced": null,
  "formula_pretty": "YbHg3",
  "formula_anonymous": "AB3",
  "chemsys": null,
  "volume": 181.84382064229547,
  "density": 14.150629585849034,
  "density_atomic": 22.730477580286934,
  "symmetry": null,
  "property_name": null,
  "material_id": "mp-865171",
  "deprecated": null,
  "deprecation_reasons": null,
  "last_updated": null,
  "origins": null,
  "warnings": null,
  "structure": {
    "@module": "pymatgen.core.structure",
    "@class": "Structure",
    "charge": 0.0,
    "lattice": {
      "matrix": [
        [-0.0, -0.0, -4.919675355454192],
        [-3.266523076783727, -5.65778416995499, 0.0],
        [-6.533046153567454, 0.0, 0.0]
      ],
      "pbc": [true, true, true],
      "a": 4.919675355454192,
      "b": 6.5330463587023395,
      "c": 6.533046153567454,
      "alpha": 60.000001038689604,
      "beta": 90.0,
      "gamma": 90.0,
      "volume": 181.84382064229547
    },
    "properties": {},
    "sites": [
      {
        "species": [{ "element": "Yb", "occu": 1 }],
        "abc": [0.25, 0.6666659999999991, 0.666666999999996],
        "properties": { "magmom": 0.0 },
        "label": "Yb",
        "xyz": [-6.533046153567425, -3.7718523414472083, -1.229918838863548]
      },
      {
        "species": [{ "element": "Yb", "occu": 1 }],
        "abc": [0.75, 0.333333999999999, 0.33333300000000304],
        "properties": { "magmom": 0.0 },
        "label": "Yb",
        "xyz": [-3.266523076783744, -1.885931828507771, -3.689756516590644]
      },
      {
        "species": [{ "element": "Hg", "occu": 1 }],
        "abc": [0.75, 0.8324951862252941, 0.8324941862248131],
        "properties": { "magmom": 0.0 },
        "label": "Hg",
        "xyz": [-8.158087678299573, -4.7100780861892, -3.689756516590644]
      },
      {
        "species": [{ "element": "Hg", "occu": 1 }],
        "abc": [0.75, 0.8324951862252941, 0.335010627549891],
        "properties": { "magmom": 0.0 },
        "label": "Hg",
        "xyz": [-4.908004628835324, -4.7100780861892, -3.689756516590644]
      },
      {
        "species": [{ "element": "Hg", "occu": 1 }],
        "abc": [0.75, 0.335011627549405, 0.832494186225297],
        "properties": { "magmom": 0.0 },
        "label": "Hg",
        "xyz": [-6.533046153567451, -1.8954234830998806, -3.689756516590644]
      },
      {
        "species": [{ "element": "Hg", "occu": 1 }],
        "abc": [0.25, 0.16750481377470502, 0.167505813775186],
        "properties": { "magmom": 0.0 },
        "label": "Hg",
        "xyz": [-1.6414815520516, -0.9477060837657847, -1.229918838863548]
      },
      {
        "species": [{ "element": "Hg", "occu": 1 }],
        "abc": [0.25, 0.16750481377470502, 0.664989372450108],
        "properties": { "magmom": 0.0 },
        "label": "Hg",
        "xyz": [-4.891564601515848, -0.9477060837657847, -1.229918838863548]
      },
      {
        "species": [{ "element": "Hg", "occu": 1 }],
        "abc": [0.25, 0.6649883724505941, 0.167505813774703],
        "properties": { "magmom": 0.0 },
        "label": "Hg",
        "xyz": [-3.2665230767837277, -3.762360686855104, -1.229918838863548]
      }
    ]
  },
  "task_ids": null,
  "uncorrected_energy_per_atom": null,
  "energy_per_atom": -46.51268268625,
  "formation_energy_per_atom": -0.354483098125001,
  "energy_above_hull": 0.0,
  "is_stable": true,
  "equilibrium_reaction_energy_per_atom": null,
  "decomposes_to": null,
  "xas": null,
  "grain_boundaries": null,
  "band_gap": 0.0,
  "cbm": null,
  "vbm": null,
  "efermi": 2.74200422,
  "is_gap_direct": null,
  "is_metal": null,
  "es_source_calc_id": null,
  "bandstructure": null,
  "dos": null,
  "dos_energy_up": null,
  "dos_energy_down": null,
  "is_magnetic": null,
  "ordering": null,
  "total_magnetization": 0.0,
  "total_magnetization_normalized_vol": null,
  "total_magnetization_normalized_formula_units": null,
  "num_magnetic_sites": null,
  "num_unique_magnetic_sites": null,
  "types_of_magnetic_species": null,
  "bulk_modulus": null,
  "shear_modulus": null,
  "universal_anisotropy": null,
  "homogeneous_poisson": null,
  "e_total": null,
  "e_ionic": null,
  "e_electronic": null,
  "n": null,
  "e_ij_max": null,
  "weighted_surface_energy_EV_PER_ANG2": null,
  "weighted_surface_energy": null,
  "weighted_work_function": null,
  "surface_anisotropy": null,
  "shape_factor": null,
  "has_reconstructed": null,
  "possible_species": null,
  "has_props": null,
  "theoretical": null,
  "database_IDs": null,
  "fields_not_requested": [
    "builder_meta",
    "nsites",
    "elements",
    "nelements",
    "composition",
    "composition_reduced",
    "chemsys",
    "symmetry",
    "property_name",
    "deprecated",
    "deprecation_reasons",
    "last_updated",
    "origins",
    "warnings",
    "task_ids",
    "uncorrected_energy_per_atom",
    "equilibrium_reaction_energy_per_atom",
    "decomposes_to",
    "xas",
    "grain_boundaries",
    "cbm",
    "vbm",
    "is_gap_direct",
    "is_metal",
    "es_source_calc_id",
    "bandstructure",
    "dos",
    "dos_energy_up",
    "dos_energy_down",
    "is_magnetic",
    "ordering",
    "total_magnetization_normalized_vol",
    "total_magnetization_normalized_formula_units",
    "num_magnetic_sites",
    "num_unique_magnetic_sites",
    "types_of_magnetic_species",
    "bulk_modulus",
    "shear_modulus",
    "universal_anisotropy",
    "homogeneous_poisson",
    "e_total",
    "e_ionic",
    "e_electronic",
    "n",
    "e_ij_max",
    "weighted_surface_energy_EV_PER_ANG2",
    "weighted_surface_energy",
    "weighted_work_function",
    "surface_anisotropy",
    "shape_factor",
    "has_reconstructed",
    "possible_species",
    "has_props",
    "theoretical",
    "database_IDs"
  ]
}
