{"builder_meta": null, "nsites": null, "elements": null, "nelements": null, "composition": null, "composition_reduced": null, "formula_pretty": "YbHo3", "formula_anonymous": "AB3", "chemsys": null, "volume": 122.75405950954082, "density": 9.03399368946157, "density_atomic": 30.688514877385206, "symmetry": null, "property_name": null, "material_id": "mp-1187675", "deprecated": null, "deprecation_reasons": null, "last_updated": null, "origins": null, "warnings": null, "structure": {"@module": "pymatgen.core.structure", "@class": "Structure", "charge": 0.0, "lattice": {"matrix": [[-2.481413891835255, 2.481413891835255, 4.9839933418262525], [2.481413891835255, -2.481413891835255, 4.9839933418262525], [2.481413891835255, 2.481413891835255, -4.9839933418262525]], "pbc": [true, true, true], "a": 6.09549173049676, "b": 6.09549173049676, "c": 6.09549173049676, "alpha": 131.9556691146892, "beta": 131.9556691146892, "gamma": 70.29905171501483, "volume": 122.75405950954075}, "properties": {}, "sites": [{"species": [{"element": "Yb", "occu": 1}], "abc": [0.0, 0.0, 0.0], "properties": {"magmom": -0.0}, "label": "Yb", "xyz": [0.0, 0.0, 0.0]}, {"species": [{"element": "Ho", "occu": 1}], "abc": [0.75, 0.25, 0.5], "properties": {"magmom": 0.0}, "label": "Ho", "xyz": [-2.220446049250313e-16, 2.4814138918352553, 2.4919966709131263]}, {"species": [{"element": "Ho", "occu": 1}], "abc": [0.25, 0.75, 0.5], "properties": {"magmom": 0.0}, "label": "Ho", "xyz": [2.4814138918352553, -2.220446049250313e-16, 2.4919966709131263]}, {"species": [{"element": "Ho", "occu": 1}], "abc": [0.5, 0.5, 0.0], "properties": {"magmom": -0.0}, "label": "Ho", "xyz": [0.0, 0.0, 4.9839933418262525]}]}, "task_ids": null, "uncorrected_energy_per_atom": null, "energy_per_atom": -33.74553248, "formation_energy_per_atom": 0.047820152500001004, "energy_above_hull": 0.051437693750003004, "is_stable": false, "equilibrium_reaction_energy_per_atom": null, "decomposes_to": null, "xas": null, "grain_boundaries": null, "band_gap": 0.0, "cbm": null, "vbm": null, "efermi": 2.8026946500000003, "is_gap_direct": null, "is_metal": null, "es_source_calc_id": null, "bandstructure": null, "dos": null, "dos_energy_up": null, "dos_energy_down": null, "is_magnetic": null, "ordering": null, "total_magnetization": 1.6e-06, "total_magnetization_normalized_vol": null, "total_magnetization_normalized_formula_units": null, "num_magnetic_sites": null, "num_unique_magnetic_sites": null, "types_of_magnetic_species": null, "bulk_modulus": null, "shear_modulus": null, "universal_anisotropy": null, "homogeneous_poisson": null, "e_total": null, "e_ionic": null, "e_electronic": null, "n": null, "e_ij_max": null, "weighted_surface_energy_EV_PER_ANG2": null, "weighted_surface_energy": null, "weighted_work_function": null, "surface_anisotropy": null, "shape_factor": null, "has_reconstructed": null, "possible_species": null, "has_props": null, "theoretical": null, "database_IDs": null, "fields_not_requested": ["builder_meta", "nsites", "elements", "nelements", "composition", "composition_reduced", "chemsys", "symmetry", "property_name", "deprecated", "deprecation_reasons", "last_updated", "origins", "warnings", "task_ids", "uncorrected_energy_per_atom", "equilibrium_reaction_energy_per_atom", "decomposes_to", "xas", "grain_boundaries", "cbm", "vbm", "is_gap_direct", "is_metal", "es_source_calc_id", "bandstructure", "dos", "dos_energy_up", "dos_energy_down", "is_magnetic", "ordering", "total_magnetization_normalized_vol", "total_magnetization_normalized_formula_units", "num_magnetic_sites", "num_unique_magnetic_sites", "types_of_magnetic_species", "bulk_modulus", "shear_modulus", "universal_anisotropy", "homogeneous_poisson", "e_total", "e_ionic", "e_electronic", "n", "e_ij_max", "weighted_surface_energy_EV_PER_ANG2", "weighted_surface_energy", "weighted_work_function", "surface_anisotropy", "shape_factor", "has_reconstructed", "possible_species", "has_props", "theoretical", "database_IDs"]}