{
  "builder_meta": null,
  "nsites": null,
  "elements": null,
  "nelements": null,
  "composition": null,
  "composition_reduced": null,
  "formula_pretty": "YbI2",
  "formula_anonymous": "AB2",
  "chemsys": null,
  "volume": 110.3111549413034,
  "density": 6.425454803586741,
  "density_atomic": 36.770384980434464,
  "symmetry": null,
  "property_name": null,
  "material_id": "mp-570418",
  "deprecated": null,
  "deprecation_reasons": null,
  "last_updated": null,
  "origins": null,
  "warnings": null,
  "structure": {
    "@module": "pymatgen.core.structure",
    "@class": "Structure",
    "charge": 0.0,
    "lattice": {
      "matrix": [
        [-2.041273548984274, -3.535589732632499, -0.0],
        [-2.041273548984277, 3.535589732632499, 1e-16],
        [-4e-16, -1.2e-15, -7.642340155363353]
      ],
      "pbc": [true, true, true],
      "a": 4.082547300311314,
      "b": 4.082547300311315,
      "c": 7.642340155363353,
      "alpha": 90.0,
      "beta": 90.0,
      "gamma": 120.0000032790531,
      "volume": 110.31115494130339
    },
    "properties": {},
    "sites": [
      {
        "species": [{ "element": "Yb", "occu": 1 }],
        "abc": [0.0, 0.0, 0.0],
        "properties": { "magmom": -0.0 },
        "label": "Yb",
        "xyz": [0.0, 0.0, 0.0]
      },
      {
        "species": [{ "element": "I", "occu": 1 }],
        "abc": [0.666666999999996, 0.33333300000000304, 0.24602313423992603],
        "properties": { "magmom": 0.0 },
        "label": "I",
        "xyz": [-2.041273548984273, -1.1785322679372967, -1.8801924779501353]
      },
      {
        "species": [{ "element": "I", "occu": 1 }],
        "abc": [0.33333300000000304, 0.666666999999996, 0.7539768657600731],
        "properties": { "magmom": 0.0 },
        "label": "I",
        "xyz": [-2.041273548984275, 1.1785322679372956, -5.7621476774132105]
      }
    ]
  },
  "task_ids": null,
  "uncorrected_energy_per_atom": null,
  "energy_per_atom": -29.83438990333333,
  "formation_energy_per_atom": -1.285474459999998,
  "energy_above_hull": 0.0,
  "is_stable": true,
  "equilibrium_reaction_energy_per_atom": null,
  "decomposes_to": null,
  "xas": null,
  "grain_boundaries": null,
  "band_gap": 4.007,
  "cbm": null,
  "vbm": null,
  "efermi": 0.23600424,
  "is_gap_direct": null,
  "is_metal": null,
  "es_source_calc_id": null,
  "bandstructure": null,
  "dos": null,
  "dos_energy_up": null,
  "dos_energy_down": null,
  "is_magnetic": null,
  "ordering": null,
  "total_magnetization": 0.0,
  "total_magnetization_normalized_vol": null,
  "total_magnetization_normalized_formula_units": null,
  "num_magnetic_sites": null,
  "num_unique_magnetic_sites": null,
  "types_of_magnetic_species": null,
  "bulk_modulus": null,
  "shear_modulus": null,
  "universal_anisotropy": null,
  "homogeneous_poisson": null,
  "e_total": null,
  "e_ionic": null,
  "e_electronic": null,
  "n": null,
  "e_ij_max": null,
  "weighted_surface_energy_EV_PER_ANG2": null,
  "weighted_surface_energy": null,
  "weighted_work_function": null,
  "surface_anisotropy": null,
  "shape_factor": null,
  "has_reconstructed": null,
  "possible_species": null,
  "has_props": null,
  "theoretical": null,
  "database_IDs": null,
  "fields_not_requested": [
    "builder_meta",
    "nsites",
    "elements",
    "nelements",
    "composition",
    "composition_reduced",
    "chemsys",
    "symmetry",
    "property_name",
    "deprecated",
    "deprecation_reasons",
    "last_updated",
    "origins",
    "warnings",
    "task_ids",
    "uncorrected_energy_per_atom",
    "equilibrium_reaction_energy_per_atom",
    "decomposes_to",
    "xas",
    "grain_boundaries",
    "cbm",
    "vbm",
    "is_gap_direct",
    "is_metal",
    "es_source_calc_id",
    "bandstructure",
    "dos",
    "dos_energy_up",
    "dos_energy_down",
    "is_magnetic",
    "ordering",
    "total_magnetization_normalized_vol",
    "total_magnetization_normalized_formula_units",
    "num_magnetic_sites",
    "num_unique_magnetic_sites",
    "types_of_magnetic_species",
    "bulk_modulus",
    "shear_modulus",
    "universal_anisotropy",
    "homogeneous_poisson",
    "e_total",
    "e_ionic",
    "e_electronic",
    "n",
    "e_ij_max",
    "weighted_surface_energy_EV_PER_ANG2",
    "weighted_surface_energy",
    "weighted_work_function",
    "surface_anisotropy",
    "shape_factor",
    "has_reconstructed",
    "possible_species",
    "has_props",
    "theoretical",
    "database_IDs"
  ]
}
