{
  "builder_meta": null,
  "nsites": null,
  "elements": null,
  "nelements": null,
  "composition": null,
  "composition_reduced": null,
  "formula_pretty": "YbIn2",
  "formula_anonymous": "AB2",
  "chemsys": null,
  "volume": 145.8798830894544,
  "density": 9.1672575412224,
  "density_atomic": 24.3133138482424,
  "symmetry": null,
  "property_name": null,
  "material_id": "mp-3216283",
  "deprecated": null,
  "deprecation_reasons": null,
  "last_updated": null,
  "origins": null,
  "warnings": null,
  "structure": {
    "@module": "pymatgen.core.structure",
    "@class": "Structure",
    "charge": 0.0,
    "lattice": {
      "matrix": [
        [-2.492370426378982, -4.316913995442356, 0.0],
        [-2.492370426378984, 4.316913995442356, 0.0],
        [0.0, 0.0, -6.779215272868107]
      ],
      "pbc": [true, true, true],
      "a": 4.984742399195231,
      "b": 4.984742399195232,
      "c": 6.779215272868107,
      "alpha": 90.0,
      "beta": 90.0,
      "gamma": 120.00002052492435,
      "volume": 145.87988308945435
    },
    "properties": {},
    "sites": [
      {
        "species": [{ "element": "Yb", "occu": 1 }],
        "abc": [0.9999999574985161, 4.25014832e-8, 0.75],
        "properties": { "magmom": 0.0 },
        "label": "Yb",
        "xyz": [-2.4923704263789803, -4.316913628491857, -5.084411454651081]
      },
      {
        "species": [{ "element": "Yb", "occu": 1 }],
        "abc": [4.25014832e-8, 0.9999999574985161, 0.25],
        "properties": { "magmom": 0.0 },
        "label": "Yb",
        "xyz": [-2.492370426378982, 4.316913628491857, -1.6948038182170269]
      },
      {
        "species": [{ "element": "In", "occu": 1 }],
        "abc": [0.33333331425079304, 0.6666666857492061, 0.9944341482075031],
        "properties": { "magmom": -0.0 },
        "label": "In",
        "xyz": [-2.492370426378981, 1.438971496569485, -6.741483165389892]
      },
      {
        "species": [{ "element": "In", "occu": 1 }],
        "abc": [0.33333331425079304, 0.6666666857492061, 0.505565851792496],
        "properties": { "magmom": -0.0 },
        "label": "In",
        "xyz": [-2.492370426378981, 1.438971496569485, -3.4273397439122633]
      },
      {
        "species": [{ "element": "In", "occu": 1 }],
        "abc": [0.6666666857492061, 0.33333331425079304, 0.005565851792496],
        "properties": { "magmom": -0.0 },
        "label": "In",
        "xyz": [-2.4923704263789803, -1.438971496569485, -0.037732107478209216]
      },
      {
        "species": [{ "element": "In", "occu": 1 }],
        "abc": [0.6666666857492061, 0.33333331425079304, 0.49443414820750303],
        "properties": { "magmom": -0.0 },
        "label": "In",
        "xyz": [-2.4923704263789803, -1.438971496569485, -3.351875528955838]
      }
    ]
  },
  "task_ids": null,
  "uncorrected_energy_per_atom": null,
  "energy_per_atom": -27.687128301666664,
  "formation_energy_per_atom": -0.45827512000000004,
  "energy_above_hull": 0.027243080000001002,
  "is_stable": false,
  "equilibrium_reaction_energy_per_atom": null,
  "decomposes_to": null,
  "xas": null,
  "grain_boundaries": null,
  "band_gap": 0.0,
  "cbm": null,
  "vbm": null,
  "efermi": 6.8730731800000004,
  "is_gap_direct": null,
  "is_metal": null,
  "es_source_calc_id": null,
  "bandstructure": null,
  "dos": null,
  "dos_energy_up": null,
  "dos_energy_down": null,
  "is_magnetic": null,
  "ordering": null,
  "total_magnetization": 1e-7,
  "total_magnetization_normalized_vol": null,
  "total_magnetization_normalized_formula_units": null,
  "num_magnetic_sites": null,
  "num_unique_magnetic_sites": null,
  "types_of_magnetic_species": null,
  "bulk_modulus": null,
  "shear_modulus": null,
  "universal_anisotropy": null,
  "homogeneous_poisson": null,
  "e_total": null,
  "e_ionic": null,
  "e_electronic": null,
  "n": null,
  "e_ij_max": null,
  "weighted_surface_energy_EV_PER_ANG2": null,
  "weighted_surface_energy": null,
  "weighted_work_function": null,
  "surface_anisotropy": null,
  "shape_factor": null,
  "has_reconstructed": null,
  "possible_species": null,
  "has_props": null,
  "theoretical": null,
  "database_IDs": null,
  "fields_not_requested": [
    "builder_meta",
    "nsites",
    "elements",
    "nelements",
    "composition",
    "composition_reduced",
    "chemsys",
    "symmetry",
    "property_name",
    "deprecated",
    "deprecation_reasons",
    "last_updated",
    "origins",
    "warnings",
    "task_ids",
    "uncorrected_energy_per_atom",
    "equilibrium_reaction_energy_per_atom",
    "decomposes_to",
    "xas",
    "grain_boundaries",
    "cbm",
    "vbm",
    "is_gap_direct",
    "is_metal",
    "es_source_calc_id",
    "bandstructure",
    "dos",
    "dos_energy_up",
    "dos_energy_down",
    "is_magnetic",
    "ordering",
    "total_magnetization_normalized_vol",
    "total_magnetization_normalized_formula_units",
    "num_magnetic_sites",
    "num_unique_magnetic_sites",
    "types_of_magnetic_species",
    "bulk_modulus",
    "shear_modulus",
    "universal_anisotropy",
    "homogeneous_poisson",
    "e_total",
    "e_ionic",
    "e_electronic",
    "n",
    "e_ij_max",
    "weighted_surface_energy_EV_PER_ANG2",
    "weighted_surface_energy",
    "weighted_work_function",
    "surface_anisotropy",
    "shape_factor",
    "has_reconstructed",
    "possible_species",
    "has_props",
    "theoretical",
    "database_IDs"
  ]
}
