{
  "builder_meta": null,
  "nsites": null,
  "elements": null,
  "nelements": null,
  "composition": null,
  "composition_reduced": null,
  "formula_pretty": "YbMn2",
  "formula_anonymous": "AB2",
  "chemsys": null,
  "volume": 224.47819422703705,
  "density": 8.371293641814903,
  "density_atomic": 18.70651618558642,
  "symmetry": null,
  "property_name": null,
  "material_id": "mp-1102024",
  "deprecated": null,
  "deprecation_reasons": null,
  "last_updated": null,
  "origins": null,
  "warnings": null,
  "structure": {
    "@module": "pymatgen.core.structure",
    "@class": "Structure",
    "charge": 0.0,
    "lattice": {
      "matrix": [
        [2.7158489822894243, -4.703987985337817, -0.0],
        [2.7158489822894243, 4.703987985337817, 0.0],
        [0.0, -0.0, 8.785618558286966]
      ],
      "pbc": [true, true, true],
      "a": 5.431697585544048,
      "b": 5.431697585544048,
      "c": 8.785618558286966,
      "alpha": 90.0,
      "beta": 90.0,
      "gamma": 119.99999538325903,
      "volume": 224.47819422703702
    },
    "properties": {},
    "sites": [
      {
        "species": [{ "element": "Yb", "occu": 1 }],
        "abc": [0.33333300000000304, 0.666666999999996, 0.43324423973790904],
        "properties": { "magmom": 0.463 },
        "label": "Yb",
        "xyz": [2.7158489822894216, 1.567999131104563, 3.8063186329123013]
      },
      {
        "species": [{ "element": "Yb", "occu": 1 }],
        "abc": [0.666666999999996, 0.33333300000000304, 0.5667557602620901],
        "properties": { "magmom": 0.463 },
        "label": "Yb",
        "xyz": [2.7158489822894216, -1.567999131104563, 4.979299925374657]
      },
      {
        "species": [{ "element": "Yb", "occu": 1 }],
        "abc": [0.666666999999996, 0.33333300000000304, 0.933244239737909],
        "properties": { "magmom": 0.463 },
        "label": "Yb",
        "xyz": [2.7158489822894216, -1.567999131104563, 8.199127912055785]
      },
      {
        "species": [{ "element": "Yb", "occu": 1 }],
        "abc": [0.33333300000000304, 0.666666999999996, 0.06675576026209],
        "properties": { "magmom": 0.463 },
        "label": "Yb",
        "xyz": [2.7158489822894216, 1.567999131104563, 0.5864906462311735]
      },
      {
        "species": [{ "element": "Mn", "occu": 1 }],
        "abc": [0.0, 0.0, 0.5],
        "properties": { "magmom": 3.766 },
        "label": "Mn",
        "xyz": [0.0, 0.0, 4.392809279143483]
      },
      {
        "species": [{ "element": "Mn", "occu": 1 }],
        "abc": [0.0, 0.0, 0.0],
        "properties": { "magmom": 3.766 },
        "label": "Mn",
        "xyz": [0.0, 0.0, 0.0]
      },
      {
        "species": [{ "element": "Mn", "occu": 1 }],
        "abc": [0.831858810109238, 0.16814118989076102, 0.25],
        "properties": { "magmom": -3.542 },
        "label": "Mn",
        "xyz": [2.7158489822894216, -3.122119711164724, 2.1964046395717416]
      },
      {
        "species": [{ "element": "Mn", "occu": 1 }],
        "abc": [0.831858810075893, 0.663716620185127, 0.25],
        "properties": { "magmom": -3.542 },
        "label": "Mn",
        "xyz": [4.061757010211459, -0.7909388410745533, 2.1964046395717416]
      },
      {
        "species": [{ "element": "Mn", "occu": 1 }],
        "abc": [0.33628337981487205, 0.168141189924107, 0.25],
        "properties": { "magmom": -3.542 },
        "label": "Mn",
        "xyz": [1.369940954367387, -0.7909388410745485, 2.1964046395717416]
      },
      {
        "species": [{ "element": "Mn", "occu": 1 }],
        "abc": [0.16814118989076102, 0.831858810109238, 0.75],
        "properties": { "magmom": -3.542 },
        "label": "Mn",
        "xyz": [2.7158489822894216, 3.122119711164724, 6.589213918715225]
      },
      {
        "species": [{ "element": "Mn", "occu": 1 }],
        "abc": [0.168141189924107, 0.33628337981487205, 0.75],
        "properties": { "magmom": -3.542 },
        "label": "Mn",
        "xyz": [1.369940954367387, 0.7909388410745485, 6.589213918715225]
      },
      {
        "species": [{ "element": "Mn", "occu": 1 }],
        "abc": [0.663716620185127, 0.831858810075893, 0.75],
        "properties": { "magmom": -3.542 },
        "label": "Mn",
        "xyz": [4.061757010211459, 0.7909388410745533, 6.589213918715225]
      }
    ]
  },
  "task_ids": null,
  "uncorrected_energy_per_atom": null,
  "energy_per_atom": -22.1240000175,
  "formation_energy_per_atom": -0.15865063882183902,
  "energy_above_hull": 0.0,
  "is_stable": true,
  "equilibrium_reaction_energy_per_atom": null,
  "decomposes_to": null,
  "xas": null,
  "grain_boundaries": null,
  "band_gap": 0.0,
  "cbm": null,
  "vbm": null,
  "efermi": 3.05695731,
  "is_gap_direct": null,
  "is_metal": null,
  "es_source_calc_id": null,
  "bandstructure": null,
  "dos": null,
  "dos_energy_up": null,
  "dos_energy_down": null,
  "is_magnetic": null,
  "ordering": null,
  "total_magnetization": 12.269664,
  "total_magnetization_normalized_vol": null,
  "total_magnetization_normalized_formula_units": null,
  "num_magnetic_sites": null,
  "num_unique_magnetic_sites": null,
  "types_of_magnetic_species": null,
  "bulk_modulus": null,
  "shear_modulus": null,
  "universal_anisotropy": null,
  "homogeneous_poisson": null,
  "e_total": null,
  "e_ionic": null,
  "e_electronic": null,
  "n": null,
  "e_ij_max": null,
  "weighted_surface_energy_EV_PER_ANG2": null,
  "weighted_surface_energy": null,
  "weighted_work_function": null,
  "surface_anisotropy": null,
  "shape_factor": null,
  "has_reconstructed": null,
  "possible_species": null,
  "has_props": null,
  "theoretical": null,
  "database_IDs": null,
  "fields_not_requested": [
    "builder_meta",
    "nsites",
    "elements",
    "nelements",
    "composition",
    "composition_reduced",
    "chemsys",
    "symmetry",
    "property_name",
    "deprecated",
    "deprecation_reasons",
    "last_updated",
    "origins",
    "warnings",
    "task_ids",
    "uncorrected_energy_per_atom",
    "equilibrium_reaction_energy_per_atom",
    "decomposes_to",
    "xas",
    "grain_boundaries",
    "cbm",
    "vbm",
    "is_gap_direct",
    "is_metal",
    "es_source_calc_id",
    "bandstructure",
    "dos",
    "dos_energy_up",
    "dos_energy_down",
    "is_magnetic",
    "ordering",
    "total_magnetization_normalized_vol",
    "total_magnetization_normalized_formula_units",
    "num_magnetic_sites",
    "num_unique_magnetic_sites",
    "types_of_magnetic_species",
    "bulk_modulus",
    "shear_modulus",
    "universal_anisotropy",
    "homogeneous_poisson",
    "e_total",
    "e_ionic",
    "e_electronic",
    "n",
    "e_ij_max",
    "weighted_surface_energy_EV_PER_ANG2",
    "weighted_surface_energy",
    "weighted_work_function",
    "surface_anisotropy",
    "shape_factor",
    "has_reconstructed",
    "possible_species",
    "has_props",
    "theoretical",
    "database_IDs"
  ]
}
