{"builder_meta": null, "nsites": null, "elements": null, "nelements": null, "composition": null, "composition_reduced": null, "formula_pretty": "YbNi5", "formula_anonymous": "AB5", "chemsys": null, "volume": 77.3625966758801, "density": 10.013276849895155, "density_atomic": 12.893766112646682, "symmetry": null, "property_name": null, "material_id": "mp-2645", "deprecated": null, "deprecation_reasons": null, "last_updated": null, "origins": null, "warnings": null, "structure": {"@module": "pymatgen.core.structure", "@class": "Structure", "charge": 0.0, "lattice": {"matrix": [[2.38925213599557, -4.138306927849473, 0.0], [2.38925213599557, 4.138306927849473, -0.0], [0.0, -0.0, 3.912157779019854]], "pbc": [true, true, true], "a": 4.7785049961725825, "b": 4.7785049961725825, "c": 3.912157779019854, "alpha": 90.0, "beta": 90.0, "gamma": 120.00001002645337, "volume": 77.36259667588007}, "properties": {}, "sites": [{"species": [{"element": "Yb", "occu": 1}], "abc": [0.0, 0.0, 0.0], "properties": {"magmom": -0.197}, "label": "Yb", "xyz": [0.0, 0.0, 0.0]}, {"species": [{"element": "Ni", "occu": 1}], "abc": [0.33333300000000304, 0.666666999999996, 0.0], "properties": {"magmom": 0.383}, "label": "Ni", "xyz": [2.3892521359955676, 1.379438401487747, 0.0]}, {"species": [{"element": "Ni", "occu": 1}], "abc": [0.666666999999996, 0.33333300000000304, 0.0], "properties": {"magmom": 0.383}, "label": "Ni", "xyz": [2.3892521359955676, -1.379438401487747, 0.0]}, {"species": [{"element": "Ni", "occu": 1}], "abc": [0.5, 0.0, 0.5], "properties": {"magmom": 0.496}, "label": "Ni", "xyz": [1.194626067997785, -2.0691534639247364, 1.956078889509927]}, {"species": [{"element": "Ni", "occu": 1}], "abc": [0.5, 0.5, 0.5], "properties": {"magmom": 0.496}, "label": "Ni", "xyz": [2.38925213599557, 0.0, 1.956078889509927]}, {"species": [{"element": "Ni", "occu": 1}], "abc": [0.0, 0.5, 0.5], "properties": {"magmom": 0.496}, "label": "Ni", "xyz": [1.194626067997785, 2.0691534639247364, 1.956078889509927]}]}, "task_ids": null, "uncorrected_energy_per_atom": null, "energy_per_atom": -16.40025607, "formation_energy_per_atom": -0.327261972499999, "energy_above_hull": 0.0, "is_stable": true, "equilibrium_reaction_energy_per_atom": null, "decomposes_to": null, "xas": null, "grain_boundaries": null, "band_gap": 0.0, "cbm": null, "vbm": null, "efermi": 5.8184871, "is_gap_direct": null, "is_metal": null, "es_source_calc_id": null, "bandstructure": null, "dos": null, "dos_energy_up": null, "dos_energy_down": null, "is_magnetic": null, "ordering": null, "total_magnetization": 1.898295699999999, "total_magnetization_normalized_vol": null, "total_magnetization_normalized_formula_units": null, "num_magnetic_sites": null, "num_unique_magnetic_sites": null, "types_of_magnetic_species": null, "bulk_modulus": null, "shear_modulus": null, "universal_anisotropy": null, "homogeneous_poisson": null, "e_total": null, "e_ionic": null, "e_electronic": null, "n": null, "e_ij_max": null, "weighted_surface_energy_EV_PER_ANG2": null, "weighted_surface_energy": null, "weighted_work_function": null, "surface_anisotropy": null, "shape_factor": null, "has_reconstructed": null, "possible_species": null, "has_props": null, "theoretical": null, "database_IDs": null, "fields_not_requested": ["builder_meta", "nsites", "elements", "nelements", "composition", "composition_reduced", "chemsys", "symmetry", "property_name", "deprecated", "deprecation_reasons", "last_updated", "origins", "warnings", "task_ids", "uncorrected_energy_per_atom", "equilibrium_reaction_energy_per_atom", "decomposes_to", "xas", "grain_boundaries", "cbm", "vbm", "is_gap_direct", "is_metal", "es_source_calc_id", "bandstructure", "dos", "dos_energy_up", "dos_energy_down", "is_magnetic", "ordering", "total_magnetization_normalized_vol", "total_magnetization_normalized_formula_units", "num_magnetic_sites", "num_unique_magnetic_sites", "types_of_magnetic_species", "bulk_modulus", "shear_modulus", "universal_anisotropy", "homogeneous_poisson", "e_total", "e_ionic", "e_electronic", "n", "e_ij_max", "weighted_surface_energy_EV_PER_ANG2", "weighted_surface_energy", "weighted_work_function", "surface_anisotropy", "shape_factor", "has_reconstructed", "possible_species", "has_props", "theoretical", "database_IDs"]}