{
  "builder_meta": null,
  "nsites": null,
  "elements": null,
  "nelements": null,
  "composition": null,
  "composition_reduced": null,
  "formula_pretty": "YbNi",
  "formula_anonymous": "AB",
  "chemsys": null,
  "volume": 148.4490582396913,
  "density": 10.368603702819813,
  "density_atomic": 18.556132279961414,
  "symmetry": null,
  "property_name": null,
  "material_id": "mp-1080433",
  "deprecated": null,
  "deprecation_reasons": null,
  "last_updated": null,
  "origins": null,
  "warnings": null,
  "structure": {
    "@module": "pymatgen.core.structure",
    "@class": "Structure",
    "charge": 0.0,
    "lattice": {
      "matrix": [
        [4.030763417573646, -0.0, 0.0],
        [0.0, 5.317377169641238, 0.0],
        [0.0, 0.0, 6.926162423783238]
      ],
      "pbc": [true, true, true],
      "a": 4.030763417573646,
      "b": 5.317377169641238,
      "c": 6.926162423783238,
      "alpha": 90.0,
      "beta": 90.0,
      "gamma": 90.0,
      "volume": 148.4490582396913
    },
    "properties": {},
    "sites": [
      {
        "species": [{ "element": "Yb", "occu": 1 }],
        "abc": [0.25, 0.36739198677942403, 0.679844661293003],
        "properties": { "magmom": 0.0 },
        "label": "Yb",
        "xyz": [1.0076908543934116, 1.953561762810045, 4.708714547057241]
      },
      {
        "species": [{ "element": "Yb", "occu": 1 }],
        "abc": [0.25, 0.132608013220576, 0.17984466129300303],
        "properties": { "magmom": 0.0 },
        "label": "Yb",
        "xyz": [1.0076908543934116, 0.7051268220105743, 1.2456333351656215]
      },
      {
        "species": [{ "element": "Yb", "occu": 1 }],
        "abc": [0.75, 0.632608013220576, 0.32015533870699603],
        "properties": { "magmom": 0.0 },
        "label": "Yb",
        "xyz": [3.023072563180235, 3.363815406831194, 2.2174478767259913]
      },
      {
        "species": [{ "element": "Yb", "occu": 1 }],
        "abc": [0.75, 0.8673919867794241, 0.8201553387069961],
        "properties": { "magmom": 0.0 },
        "label": "Yb",
        "xyz": [3.023072563180235, 4.612250347630664, 5.680529088617611]
      },
      {
        "species": [{ "element": "Ni", "occu": 1 }],
        "abc": [0.25, 0.8745906241300361, 0.534813174396312],
        "properties": { "magmom": -0.0 },
        "label": "Ni",
        "xyz": [1.0076908543934116, 4.650528217531336, 3.7042029122479683]
      },
      {
        "species": [{ "element": "Ni", "occu": 1 }],
        "abc": [0.25, 0.625409375869963, 0.034813174396312],
        "properties": { "magmom": -0.0 },
        "label": "Ni",
        "xyz": [1.0076908543934116, 3.3255375369305176, 0.2411217003563489]
      },
      {
        "species": [{ "element": "Ni", "occu": 1 }],
        "abc": [0.75, 0.125409375869963, 0.465186825603687],
        "properties": { "magmom": -0.0 },
        "label": "Ni",
        "xyz": [3.023072563180235, 0.6668489521098981, 3.2219595115352635]
      },
      {
        "species": [{ "element": "Ni", "occu": 1 }],
        "abc": [0.75, 0.374590624130036, 0.9651868256036871],
        "properties": { "magmom": -0.0 },
        "label": "Ni",
        "xyz": [3.023072563180235, 1.991839632710716, 6.685040723426883]
      }
    ]
  },
  "task_ids": null,
  "uncorrected_energy_per_atom": null,
  "energy_per_atom": -24.75164494875,
  "formation_energy_per_atom": -0.49609697624999705,
  "energy_above_hull": 0.0,
  "is_stable": true,
  "equilibrium_reaction_energy_per_atom": null,
  "decomposes_to": null,
  "xas": null,
  "grain_boundaries": null,
  "band_gap": 0.0,
  "cbm": null,
  "vbm": null,
  "efermi": 3.34624108,
  "is_gap_direct": null,
  "is_metal": null,
  "es_source_calc_id": null,
  "bandstructure": null,
  "dos": null,
  "dos_energy_up": null,
  "dos_energy_down": null,
  "is_magnetic": null,
  "ordering": null,
  "total_magnetization": 0.0,
  "total_magnetization_normalized_vol": null,
  "total_magnetization_normalized_formula_units": null,
  "num_magnetic_sites": null,
  "num_unique_magnetic_sites": null,
  "types_of_magnetic_species": null,
  "bulk_modulus": null,
  "shear_modulus": null,
  "universal_anisotropy": null,
  "homogeneous_poisson": null,
  "e_total": null,
  "e_ionic": null,
  "e_electronic": null,
  "n": null,
  "e_ij_max": null,
  "weighted_surface_energy_EV_PER_ANG2": null,
  "weighted_surface_energy": null,
  "weighted_work_function": null,
  "surface_anisotropy": null,
  "shape_factor": null,
  "has_reconstructed": null,
  "possible_species": null,
  "has_props": null,
  "theoretical": null,
  "database_IDs": null,
  "fields_not_requested": [
    "builder_meta",
    "nsites",
    "elements",
    "nelements",
    "composition",
    "composition_reduced",
    "chemsys",
    "symmetry",
    "property_name",
    "deprecated",
    "deprecation_reasons",
    "last_updated",
    "origins",
    "warnings",
    "task_ids",
    "uncorrected_energy_per_atom",
    "equilibrium_reaction_energy_per_atom",
    "decomposes_to",
    "xas",
    "grain_boundaries",
    "cbm",
    "vbm",
    "is_gap_direct",
    "is_metal",
    "es_source_calc_id",
    "bandstructure",
    "dos",
    "dos_energy_up",
    "dos_energy_down",
    "is_magnetic",
    "ordering",
    "total_magnetization_normalized_vol",
    "total_magnetization_normalized_formula_units",
    "num_magnetic_sites",
    "num_unique_magnetic_sites",
    "types_of_magnetic_species",
    "bulk_modulus",
    "shear_modulus",
    "universal_anisotropy",
    "homogeneous_poisson",
    "e_total",
    "e_ionic",
    "e_electronic",
    "n",
    "e_ij_max",
    "weighted_surface_energy_EV_PER_ANG2",
    "weighted_surface_energy",
    "weighted_work_function",
    "surface_anisotropy",
    "shape_factor",
    "has_reconstructed",
    "possible_species",
    "has_props",
    "theoretical",
    "database_IDs"
  ]
}
