{"builder_meta": null, "nsites": null, "elements": null, "nelements": null, "composition": null, "composition_reduced": null, "formula_pretty": "YbO2", "formula_anonymous": "AB2", "chemsys": null, "volume": 88.814134219548, "density": 7.667134078617082, "density_atomic": 14.802355703258, "symmetry": null, "property_name": null, "material_id": "mp-3216741", "deprecated": null, "deprecation_reasons": null, "last_updated": null, "origins": null, "warnings": null, "structure": {"@module": "pymatgen.core.structure", "@class": "Structure", "charge": 0.0, "lattice": {"matrix": [[5.094008862893102, -0.0, 0.0], [-6e-16, 5.094008862893102, 0.0], [0.0, 0.0, 3.422651604504428]], "pbc": [true, true, true], "a": 5.094008862893102, "b": 5.094008862893102, "c": 3.422651604504428, "alpha": 90.0, "beta": 90.0, "gamma": 90.0, "volume": 88.814134219548}, "properties": {}, "sites": [{"species": [{"element": "Yb", "occu": 1}], "abc": [0.0, 0.0, 0.0], "properties": {"magmom": 0.10400000000000001}, "label": "Yb", "xyz": [0.0, 0.0, 0.0]}, {"species": [{"element": "Yb", "occu": 1}], "abc": [0.5, 0.5, 0.5], "properties": {"magmom": 0.10400000000000001}, "label": "Yb", "xyz": [2.5470044314465508, 2.547004431446551, 1.711325802252214]}, {"species": [{"element": "O", "occu": 1}], "abc": [0.303082359238992, 0.303082359238992, 0.0], "properties": {"magmom": -0.435}, "label": "O", "xyz": [1.5439042241499763, 1.5439042241499765, 0.0]}, {"species": [{"element": "O", "occu": 1}], "abc": [0.696917640761007, 0.696917640761007, 0.0], "properties": {"magmom": -0.435}, "label": "O", "xyz": [3.5501046387431208, 3.550104638743121, 0.0]}, {"species": [{"element": "O", "occu": 1}], "abc": [0.8030823592389921, 0.196917640761007, 0.5], "properties": {"magmom": -0.435}, "label": "O", "xyz": [4.090908655596528, 1.0031002072965698, 1.711325802252214]}, {"species": [{"element": "O", "occu": 1}], "abc": [0.196917640761007, 0.8030823592389921, 0.5], "properties": {"magmom": -0.435}, "label": "O", "xyz": [1.0031002072965693, 4.090908655596528, 1.711325802252214]}]}, "task_ids": null, "uncorrected_energy_per_atom": null, "energy_per_atom": -19.088487976666666, "formation_energy_per_atom": -2.9326814683333353, "energy_above_hull": 0.44628785541667004, "is_stable": false, "equilibrium_reaction_energy_per_atom": null, "decomposes_to": null, "xas": null, "grain_boundaries": null, "band_gap": 0.0, "cbm": null, "vbm": null, "efermi": -0.3761372, "is_gap_direct": null, "is_metal": null, "es_source_calc_id": null, "bandstructure": null, "dos": null, "dos_energy_up": null, "dos_energy_down": null, "is_magnetic": null, "ordering": null, "total_magnetization": 1.9999999, "total_magnetization_normalized_vol": null, "total_magnetization_normalized_formula_units": null, "num_magnetic_sites": null, "num_unique_magnetic_sites": null, "types_of_magnetic_species": null, "bulk_modulus": null, "shear_modulus": null, "universal_anisotropy": null, "homogeneous_poisson": null, "e_total": null, "e_ionic": null, "e_electronic": null, "n": null, "e_ij_max": null, "weighted_surface_energy_EV_PER_ANG2": null, "weighted_surface_energy": null, "weighted_work_function": null, "surface_anisotropy": null, "shape_factor": null, "has_reconstructed": null, "possible_species": null, "has_props": null, "theoretical": null, "database_IDs": null, "fields_not_requested": ["builder_meta", "nsites", "elements", "nelements", "composition", "composition_reduced", "chemsys", "symmetry", "property_name", "deprecated", "deprecation_reasons", "last_updated", "origins", "warnings", "task_ids", "uncorrected_energy_per_atom", "equilibrium_reaction_energy_per_atom", "decomposes_to", "xas", "grain_boundaries", "cbm", "vbm", "is_gap_direct", "is_metal", "es_source_calc_id", "bandstructure", "dos", "dos_energy_up", "dos_energy_down", "is_magnetic", "ordering", "total_magnetization_normalized_vol", "total_magnetization_normalized_formula_units", "num_magnetic_sites", "num_unique_magnetic_sites", "types_of_magnetic_species", "bulk_modulus", "shear_modulus", "universal_anisotropy", "homogeneous_poisson", "e_total", "e_ionic", "e_electronic", "n", "e_ij_max", "weighted_surface_energy_EV_PER_ANG2", "weighted_surface_energy", "weighted_work_function", "surface_anisotropy", "shape_factor", "has_reconstructed", "possible_species", "has_props", "theoretical", "database_IDs"]}