{
  "builder_meta": null,
  "nsites": null,
  "elements": null,
  "nelements": null,
  "composition": null,
  "composition_reduced": null,
  "formula_pretty": "YbO3",
  "formula_anonymous": "AB3",
  "chemsys": null,
  "volume": 87.5434694863459,
  "density": 8.385378565974962,
  "density_atomic": 10.942933685793237,
  "symmetry": null,
  "property_name": null,
  "material_id": "mp-3216821",
  "deprecated": null,
  "deprecation_reasons": null,
  "last_updated": null,
  "origins": null,
  "warnings": null,
  "structure": {
    "@module": "pymatgen.core.structure",
    "@class": "Structure",
    "charge": 0.0,
    "lattice": {
      "matrix": [
        [3.660093018919914, 0.0, 0.0],
        [0.0, 3.88414256472364, -0.075807394488541],
        [0.0, 1.403739687966882, 6.130557414750176]
      ],
      "pbc": [true, true, true],
      "a": 3.660093018919914,
      "b": 3.8848822664473475,
      "c": 6.289214523859218,
      "alpha": 78.22117559449033,
      "beta": 90.0,
      "gamma": 90.0,
      "volume": 87.54346948634587
    },
    "properties": {},
    "sites": [
      {
        "species": [{ "element": "Yb", "occu": 1 }],
        "abc": [0.75, 0.698918992397445, 0.677788473989394],
        "properties": { "magmom": 0.022 },
        "label": "Yb",
        "xyz": [2.7450697641899353, 3.6661395886500956, 4.10223792707568]
      },
      {
        "species": [{ "element": "Yb", "occu": 1 }],
        "abc": [0.25, 0.301081007602555, 0.32221152601060504],
        "properties": { "magmom": 0.022 },
        "label": "Yb",
        "xyz": [0.9150232547299785, 1.6217426640404253, 1.9525120931859496]
      },
      {
        "species": [{ "element": "O", "occu": 1 }],
        "abc": [0.75, 0.7194960655345141, 0.101414098847961],
        "properties": { "magmom": 0.418 },
        "label": "O",
        "xyz": [2.7450697641899353, 2.9369842887660753, 0.5671818335796466]
      },
      {
        "species": [{ "element": "O", "occu": 1 }],
        "abc": [0.75, 0.036405035963284, 0.15145166860224102],
        "properties": { "magmom": 0.435 },
        "label": "O",
        "xyz": [2.7450697641899353, 0.3540010677810597, 0.9257233790031169]
      },
      {
        "species": [{ "element": "O", "occu": 1 }],
        "abc": [0.75, 0.248446998774312, 0.521736667496014],
        "properties": { "magmom": 0.032 },
        "label": "O",
        "xyz": [2.7450697641899353, 1.6973860298488828, 3.179702475819157]
      },
      {
        "species": [{ "element": "O", "occu": 1 }],
        "abc": [0.25, 0.28050393446549204, 0.8985859011520391],
        "properties": { "magmom": 0.418 },
        "label": "O",
        "xyz": [0.9150232547299785, 2.3508979639244707, 5.4875681866819885]
      },
      {
        "species": [{ "element": "O", "occu": 1 }],
        "abc": [0.25, 0.9635949640367151, 0.8485483313977581],
        "properties": { "magmom": 0.435 },
        "label": "O",
        "xyz": [0.9150232547299785, 4.933881184909458, 5.129026641258513]
      },
      {
        "species": [{ "element": "O", "occu": 1 }],
        "abc": [0.25, 0.751553001225687, 0.47826333250398506],
        "properties": { "magmom": 0.032 },
        "label": "O",
        "xyz": [0.9150232547299785, 3.590496222841634, 2.875047544442472]
      }
    ]
  },
  "task_ids": null,
  "uncorrected_energy_per_atom": null,
  "energy_per_atom": -15.97506755625,
  "formation_energy_per_atom": -2.3659575825,
  "energy_above_hull": 0.1682694103125,
  "is_stable": false,
  "equilibrium_reaction_energy_per_atom": null,
  "decomposes_to": null,
  "xas": null,
  "grain_boundaries": null,
  "band_gap": 0.34739999999999904,
  "cbm": null,
  "vbm": null,
  "efermi": 2.40180608,
  "is_gap_direct": null,
  "is_metal": null,
  "es_source_calc_id": null,
  "bandstructure": null,
  "dos": null,
  "dos_energy_up": null,
  "dos_energy_down": null,
  "is_magnetic": null,
  "ordering": null,
  "total_magnetization": 1.9999999,
  "total_magnetization_normalized_vol": null,
  "total_magnetization_normalized_formula_units": null,
  "num_magnetic_sites": null,
  "num_unique_magnetic_sites": null,
  "types_of_magnetic_species": null,
  "bulk_modulus": null,
  "shear_modulus": null,
  "universal_anisotropy": null,
  "homogeneous_poisson": null,
  "e_total": null,
  "e_ionic": null,
  "e_electronic": null,
  "n": null,
  "e_ij_max": null,
  "weighted_surface_energy_EV_PER_ANG2": null,
  "weighted_surface_energy": null,
  "weighted_work_function": null,
  "surface_anisotropy": null,
  "shape_factor": null,
  "has_reconstructed": null,
  "possible_species": null,
  "has_props": null,
  "theoretical": null,
  "database_IDs": null,
  "fields_not_requested": [
    "builder_meta",
    "nsites",
    "elements",
    "nelements",
    "composition",
    "composition_reduced",
    "chemsys",
    "symmetry",
    "property_name",
    "deprecated",
    "deprecation_reasons",
    "last_updated",
    "origins",
    "warnings",
    "task_ids",
    "uncorrected_energy_per_atom",
    "equilibrium_reaction_energy_per_atom",
    "decomposes_to",
    "xas",
    "grain_boundaries",
    "cbm",
    "vbm",
    "is_gap_direct",
    "is_metal",
    "es_source_calc_id",
    "bandstructure",
    "dos",
    "dos_energy_up",
    "dos_energy_down",
    "is_magnetic",
    "ordering",
    "total_magnetization_normalized_vol",
    "total_magnetization_normalized_formula_units",
    "num_magnetic_sites",
    "num_unique_magnetic_sites",
    "types_of_magnetic_species",
    "bulk_modulus",
    "shear_modulus",
    "universal_anisotropy",
    "homogeneous_poisson",
    "e_total",
    "e_ionic",
    "e_electronic",
    "n",
    "e_ij_max",
    "weighted_surface_energy_EV_PER_ANG2",
    "weighted_surface_energy",
    "weighted_work_function",
    "surface_anisotropy",
    "shape_factor",
    "has_reconstructed",
    "possible_species",
    "has_props",
    "theoretical",
    "database_IDs"
  ]
}
