{
  "builder_meta": null,
  "nsites": null,
  "elements": null,
  "nelements": null,
  "composition": null,
  "composition_reduced": null,
  "formula_pretty": "YbOs2",
  "formula_anonymous": "AB2",
  "chemsys": null,
  "volume": 209.11952334381957,
  "density": 17.580536884678466,
  "density_atomic": 17.426626945318297,
  "symmetry": null,
  "property_name": null,
  "material_id": "mp-1095482",
  "deprecated": null,
  "deprecation_reasons": null,
  "last_updated": null,
  "origins": null,
  "warnings": null,
  "structure": {
    "@module": "pymatgen.core.structure",
    "@class": "Structure",
    "charge": 0.0,
    "lattice": {
      "matrix": [
        [-2.62185619481369, -4.541187601611732, -0.0],
        [-2.62185619481369, 4.541187601611732, 0.0],
        [0.0, 0.0, -8.78185523430304]
      ],
      "pbc": [true, true, true],
      "a": 5.243711923753539,
      "b": 5.243711923753539,
      "c": 8.78185523430304,
      "alpha": 90.0,
      "beta": 90.0,
      "gamma": 119.99999412210927,
      "volume": 209.11952334381957
    },
    "properties": {},
    "sites": [
      {
        "species": [{ "element": "Yb", "occu": 1 }],
        "abc": [0.33333300000000304, 0.666666999999996, 0.5660203505979801],
        "properties": { "magmom": -0.0 },
        "label": "Yb",
        "xyz": [-2.621856194813687, 1.5137322279956134, -4.970708778620913]
      },
      {
        "species": [{ "element": "Yb", "occu": 1 }],
        "abc": [0.666666999999996, 0.33333300000000304, 0.43397964940201905],
        "properties": { "magmom": -0.0 },
        "label": "Yb",
        "xyz": [-2.621856194813687, -1.5137322279956134, -3.811146455682119]
      },
      {
        "species": [{ "element": "Yb", "occu": 1 }],
        "abc": [0.666666999999996, 0.33333300000000304, 0.06602035059798],
        "properties": { "magmom": -0.0 },
        "label": "Yb",
        "xyz": [-2.621856194813687, -1.5137322279956134, -0.5797811614693925]
      },
      {
        "species": [{ "element": "Yb", "occu": 1 }],
        "abc": [0.33333300000000304, 0.666666999999996, 0.933979649402019],
        "properties": { "magmom": -0.0 },
        "label": "Yb",
        "xyz": [-2.621856194813687, 1.5137322279956134, -8.20207407283364]
      },
      {
        "species": [{ "element": "Os", "occu": 1 }],
        "abc": [0.0, 0.0, 0.5],
        "properties": { "magmom": 0.0 },
        "label": "Os",
        "xyz": [0.0, 0.0, -4.39092761715152]
      },
      {
        "species": [{ "element": "Os", "occu": 1 }],
        "abc": [0.0, 0.0, 0.0],
        "properties": { "magmom": 0.0 },
        "label": "Os",
        "xyz": [0.0, 0.0, 0.0]
      },
      {
        "species": [{ "element": "Os", "occu": 1 }],
        "abc": [0.827837812042098, 0.172162187957901, 0.75],
        "properties": { "magmom": -0.0 },
        "label": "Os",
        "xyz": [-2.6218561948136876, -2.9775460147701907, -6.58639142572728]
      },
      {
        "species": [{ "element": "Os", "occu": 1 }],
        "abc": [0.344324375930362, 0.17216218797246002, 0.75],
        "properties": { "magmom": -0.0 },
        "label": "Os",
        "xyz": [-1.3541534971066507, -0.781820793420773, -6.58639142572728]
      },
      {
        "species": [{ "element": "Os", "occu": 1 }],
        "abc": [0.827837812027539, 0.6556756240696371, 0.75],
        "properties": { "magmom": -0.0 },
        "label": "Os",
        "xyz": [-3.889558892520724, -0.7818207934207728, -6.58639142572728]
      },
      {
        "species": [{ "element": "Os", "occu": 1 }],
        "abc": [0.172162187957901, 0.827837812042098, 0.25],
        "properties": { "magmom": -0.0 },
        "label": "Os",
        "xyz": [-2.6218561948136876, 2.9775460147701907, -2.19546380857576]
      },
      {
        "species": [{ "element": "Os", "occu": 1 }],
        "abc": [0.6556756240696371, 0.827837812027539, 0.25],
        "properties": { "magmom": -0.0 },
        "label": "Os",
        "xyz": [-3.889558892520724, 0.7818207934207728, -2.19546380857576]
      },
      {
        "species": [{ "element": "Os", "occu": 1 }],
        "abc": [0.17216218797246002, 0.344324375930362, 0.25],
        "properties": { "magmom": -0.0 },
        "label": "Os",
        "xyz": [-1.3541534971066507, 0.781820793420773, -2.19546380857576]
      }
    ]
  },
  "task_ids": null,
  "uncorrected_energy_per_atom": null,
  "energy_per_atom": -47.969544874166665,
  "formation_energy_per_atom": -0.46959937916666106,
  "energy_above_hull": 0.0,
  "is_stable": true,
  "equilibrium_reaction_energy_per_atom": null,
  "decomposes_to": null,
  "xas": null,
  "grain_boundaries": null,
  "band_gap": 0.0,
  "cbm": null,
  "vbm": null,
  "efermi": 5.36480151,
  "is_gap_direct": null,
  "is_metal": null,
  "es_source_calc_id": null,
  "bandstructure": null,
  "dos": null,
  "dos_energy_up": null,
  "dos_energy_down": null,
  "is_magnetic": null,
  "ordering": null,
  "total_magnetization": 3e-7,
  "total_magnetization_normalized_vol": null,
  "total_magnetization_normalized_formula_units": null,
  "num_magnetic_sites": null,
  "num_unique_magnetic_sites": null,
  "types_of_magnetic_species": null,
  "bulk_modulus": null,
  "shear_modulus": null,
  "universal_anisotropy": null,
  "homogeneous_poisson": null,
  "e_total": null,
  "e_ionic": null,
  "e_electronic": null,
  "n": null,
  "e_ij_max": null,
  "weighted_surface_energy_EV_PER_ANG2": null,
  "weighted_surface_energy": null,
  "weighted_work_function": null,
  "surface_anisotropy": null,
  "shape_factor": null,
  "has_reconstructed": null,
  "possible_species": null,
  "has_props": null,
  "theoretical": null,
  "database_IDs": null,
  "fields_not_requested": [
    "builder_meta",
    "nsites",
    "elements",
    "nelements",
    "composition",
    "composition_reduced",
    "chemsys",
    "symmetry",
    "property_name",
    "deprecated",
    "deprecation_reasons",
    "last_updated",
    "origins",
    "warnings",
    "task_ids",
    "uncorrected_energy_per_atom",
    "equilibrium_reaction_energy_per_atom",
    "decomposes_to",
    "xas",
    "grain_boundaries",
    "cbm",
    "vbm",
    "is_gap_direct",
    "is_metal",
    "es_source_calc_id",
    "bandstructure",
    "dos",
    "dos_energy_up",
    "dos_energy_down",
    "is_magnetic",
    "ordering",
    "total_magnetization_normalized_vol",
    "total_magnetization_normalized_formula_units",
    "num_magnetic_sites",
    "num_unique_magnetic_sites",
    "types_of_magnetic_species",
    "bulk_modulus",
    "shear_modulus",
    "universal_anisotropy",
    "homogeneous_poisson",
    "e_total",
    "e_ionic",
    "e_electronic",
    "n",
    "e_ij_max",
    "weighted_surface_energy_EV_PER_ANG2",
    "weighted_surface_energy",
    "weighted_work_function",
    "surface_anisotropy",
    "shape_factor",
    "has_reconstructed",
    "possible_species",
    "has_props",
    "theoretical",
    "database_IDs"
  ]
}
