{
  "builder_meta": null,
  "nsites": null,
  "elements": null,
  "nelements": null,
  "composition": null,
  "composition_reduced": null,
  "formula_pretty": "YbPd",
  "formula_anonymous": "AB",
  "chemsys": null,
  "volume": 166.68673979791762,
  "density": 11.13596073963967,
  "density_atomic": 20.835842474739703,
  "symmetry": null,
  "property_name": null,
  "material_id": "mp-1079587",
  "deprecated": null,
  "deprecation_reasons": null,
  "last_updated": null,
  "origins": null,
  "warnings": null,
  "structure": {
    "@module": "pymatgen.core.structure",
    "@class": "Structure",
    "charge": 0.0,
    "lattice": {
      "matrix": [
        [4.570047909395964, -1e-16, 0.0],
        [-0.0, 5.409428085499311, 0.0],
        [0.0, 0.0, 6.742624090147444]
      ],
      "pbc": [true, true, true],
      "a": 4.570047909395964,
      "b": 5.409428085499311,
      "c": 6.742624090147444,
      "alpha": 90.0,
      "beta": 90.0,
      "gamma": 90.0,
      "volume": 166.6867397979176
    },
    "properties": {},
    "sites": [
      {
        "species": [{ "element": "Yb", "occu": 1 }],
        "abc": [0.25, 0.355766093697923, 0.684185164172603],
        "properties": { "magmom": 0.0 },
        "label": "Yb",
        "xyz": [1.142511977348991, 1.924491099117924, 4.613203370071677]
      },
      {
        "species": [{ "element": "Yb", "occu": 1 }],
        "abc": [0.25, 0.144233906302076, 0.18418516417260303],
        "properties": { "magmom": 0.0 },
        "label": "Yb",
        "xyz": [1.142511977348991, 0.780222943631726, 1.241891324997955]
      },
      {
        "species": [{ "element": "Yb", "occu": 1 }],
        "abc": [0.75, 0.644233906302076, 0.315814835827396],
        "properties": { "magmom": 0.0 },
        "label": "Yb",
        "xyz": [3.4275359320469727, 3.4849369863813813, 2.1294207200757604]
      },
      {
        "species": [{ "element": "Yb", "occu": 1 }],
        "abc": [0.75, 0.8557660936979231, 0.8158148358273961],
        "properties": { "magmom": 0.0 },
        "label": "Yb",
        "xyz": [3.4275359320469727, 4.62920514186758, 5.5007327651494835]
      },
      {
        "species": [{ "element": "Pd", "occu": 1 }],
        "abc": [0.25, 0.844386933183059, 0.540371784684708],
        "properties": { "magmom": -0.0 },
        "label": "Pd",
        "xyz": [1.142511977348991, 4.567650391389069, 3.6435238130510803]
      },
      {
        "species": [{ "element": "Pd", "occu": 1 }],
        "abc": [0.25, 0.6556130668169401, 0.040371784684708006],
        "properties": { "magmom": -0.0 },
        "label": "Pd",
        "xyz": [1.142511977348991, 3.546491736859892, 0.27221176797735785]
      },
      {
        "species": [{ "element": "Pd", "occu": 1 }],
        "abc": [0.75, 0.15561306681694, 0.459628215315291],
        "properties": { "magmom": -0.0 },
        "label": "Pd",
        "xyz": [3.4275359320469727, 0.8417776941102361, 3.099100277096358]
      },
      {
        "species": [{ "element": "Pd", "occu": 1 }],
        "abc": [0.75, 0.344386933183059, 0.9596282153152911],
        "properties": { "magmom": -0.0 },
        "label": "Pd",
        "xyz": [3.4275359320469727, 1.862936348639414, 6.47041232217008]
      }
    ]
  },
  "task_ids": null,
  "uncorrected_energy_per_atom": null,
  "energy_per_atom": -30.757903165000002,
  "formation_energy_per_atom": -1.012986967499998,
  "energy_above_hull": 0.0,
  "is_stable": true,
  "equilibrium_reaction_energy_per_atom": null,
  "decomposes_to": null,
  "xas": null,
  "grain_boundaries": null,
  "band_gap": 0.11759999999999901,
  "cbm": null,
  "vbm": null,
  "efermi": 2.86841233,
  "is_gap_direct": null,
  "is_metal": null,
  "es_source_calc_id": null,
  "bandstructure": null,
  "dos": null,
  "dos_energy_up": null,
  "dos_energy_down": null,
  "is_magnetic": null,
  "ordering": null,
  "total_magnetization": 0.0,
  "total_magnetization_normalized_vol": null,
  "total_magnetization_normalized_formula_units": null,
  "num_magnetic_sites": null,
  "num_unique_magnetic_sites": null,
  "types_of_magnetic_species": null,
  "bulk_modulus": null,
  "shear_modulus": null,
  "universal_anisotropy": null,
  "homogeneous_poisson": null,
  "e_total": null,
  "e_ionic": null,
  "e_electronic": null,
  "n": null,
  "e_ij_max": null,
  "weighted_surface_energy_EV_PER_ANG2": null,
  "weighted_surface_energy": null,
  "weighted_work_function": null,
  "surface_anisotropy": null,
  "shape_factor": null,
  "has_reconstructed": null,
  "possible_species": null,
  "has_props": null,
  "theoretical": null,
  "database_IDs": null,
  "fields_not_requested": [
    "builder_meta",
    "nsites",
    "elements",
    "nelements",
    "composition",
    "composition_reduced",
    "chemsys",
    "symmetry",
    "property_name",
    "deprecated",
    "deprecation_reasons",
    "last_updated",
    "origins",
    "warnings",
    "task_ids",
    "uncorrected_energy_per_atom",
    "equilibrium_reaction_energy_per_atom",
    "decomposes_to",
    "xas",
    "grain_boundaries",
    "cbm",
    "vbm",
    "is_gap_direct",
    "is_metal",
    "es_source_calc_id",
    "bandstructure",
    "dos",
    "dos_energy_up",
    "dos_energy_down",
    "is_magnetic",
    "ordering",
    "total_magnetization_normalized_vol",
    "total_magnetization_normalized_formula_units",
    "num_magnetic_sites",
    "num_unique_magnetic_sites",
    "types_of_magnetic_species",
    "bulk_modulus",
    "shear_modulus",
    "universal_anisotropy",
    "homogeneous_poisson",
    "e_total",
    "e_ionic",
    "e_electronic",
    "n",
    "e_ij_max",
    "weighted_surface_energy_EV_PER_ANG2",
    "weighted_surface_energy",
    "weighted_work_function",
    "surface_anisotropy",
    "shape_factor",
    "has_reconstructed",
    "possible_species",
    "has_props",
    "theoretical",
    "database_IDs"
  ]
}
