{
  "builder_meta": null,
  "nsites": null,
  "elements": null,
  "nelements": null,
  "composition": null,
  "composition_reduced": null,
  "formula_pretty": "YbPm3",
  "formula_anonymous": "AB3",
  "chemsys": null,
  "volume": 270.1230100193054,
  "density": 7.475662099154777,
  "density_atomic": 33.765376252413176,
  "symmetry": null,
  "property_name": null,
  "material_id": "mp-981563",
  "deprecated": null,
  "deprecation_reasons": null,
  "last_updated": null,
  "origins": null,
  "warnings": null,
  "structure": {
    "@module": "pymatgen.core.structure",
    "@class": "Structure",
    "charge": 0.0,
    "lattice": {
      "matrix": [
        [3.6853935090638963, -6.383288821783052, 0.0],
        [3.6853935090638963, 6.383288821783052, -0.0],
        [0.0, 0.0, 5.741207228927442]
      ],
      "pbc": [true, true, true],
      "a": 7.370787033889309,
      "b": 7.370787033889309,
      "c": 5.741207228927442,
      "alpha": 90.0,
      "beta": 90.0,
      "gamma": 120.00000014147383,
      "volume": 270.1230100193053
    },
    "properties": {},
    "sites": [
      {
        "species": [{ "element": "Yb", "occu": 1 }],
        "abc": [0.33333300000000304, 0.666666999999996, 0.75],
        "properties": { "magmom": -0.0 },
        "label": "Yb",
        "xyz": [3.6853935090638927, 2.1277671961201867, 4.305905421695581]
      },
      {
        "species": [{ "element": "Yb", "occu": 1 }],
        "abc": [0.666666999999996, 0.33333300000000304, 0.25],
        "properties": { "magmom": -0.0 },
        "label": "Yb",
        "xyz": [3.6853935090638927, -2.1277671961201867, 1.4353018072318604]
      },
      {
        "species": [{ "element": "Pm", "occu": 1 }],
        "abc": [0.168567211979635, 0.33713542395927404, 0.25],
        "properties": { "magmom": -0.0 },
        "label": "Pm",
        "xyz": [1.863713212005758, 1.0760195832375856, 1.4353018072318604]
      },
      {
        "species": [{ "element": "Pm", "occu": 1 }],
        "abc": [0.662864576040732, 0.831432788020364, 0.25],
        "properties": { "magmom": -0.0 },
        "label": "Pm",
        "xyz": [5.507073806122053, 1.0760195832375414, 1.4353018072318604]
      },
      {
        "species": [{ "element": "Pm", "occu": 1 }],
        "abc": [0.168567211979635, 0.831432788020364, 0.25],
        "properties": { "magmom": -0.0 },
        "label": "Pm",
        "xyz": [3.6853935090638927, 4.231262421885569, 1.4353018072318604]
      },
      {
        "species": [{ "element": "Pm", "occu": 1 }],
        "abc": [0.831432788020364, 0.662864576040732, 0.75],
        "properties": { "magmom": -0.0 },
        "label": "Pm",
        "xyz": [5.507073806122053, -1.0760195832375414, 4.305905421695581]
      },
      {
        "species": [{ "element": "Pm", "occu": 1 }],
        "abc": [0.33713542395927404, 0.168567211979635, 0.75],
        "properties": { "magmom": -0.0 },
        "label": "Pm",
        "xyz": [1.863713212005758, -1.0760195832375856, 4.305905421695581]
      },
      {
        "species": [{ "element": "Pm", "occu": 1 }],
        "abc": [0.831432788020364, 0.168567211979635, 0.75],
        "properties": { "magmom": -0.0 },
        "label": "Pm",
        "xyz": [3.6853935090638927, -4.231262421885569, 4.305905421695581]
      }
    ]
  },
  "task_ids": null,
  "uncorrected_energy_per_atom": null,
  "energy_per_atom": -31.273558465,
  "formation_energy_per_atom": 0.014245578124999,
  "energy_above_hull": 0.014245578124999,
  "is_stable": false,
  "equilibrium_reaction_energy_per_atom": null,
  "decomposes_to": null,
  "xas": null,
  "grain_boundaries": null,
  "band_gap": 0.0,
  "cbm": null,
  "vbm": null,
  "efermi": 2.78575012,
  "is_gap_direct": null,
  "is_metal": null,
  "es_source_calc_id": null,
  "bandstructure": null,
  "dos": null,
  "dos_energy_up": null,
  "dos_energy_down": null,
  "is_magnetic": null,
  "ordering": null,
  "total_magnetization": 0.0006466,
  "total_magnetization_normalized_vol": null,
  "total_magnetization_normalized_formula_units": null,
  "num_magnetic_sites": null,
  "num_unique_magnetic_sites": null,
  "types_of_magnetic_species": null,
  "bulk_modulus": null,
  "shear_modulus": null,
  "universal_anisotropy": null,
  "homogeneous_poisson": null,
  "e_total": null,
  "e_ionic": null,
  "e_electronic": null,
  "n": null,
  "e_ij_max": null,
  "weighted_surface_energy_EV_PER_ANG2": null,
  "weighted_surface_energy": null,
  "weighted_work_function": null,
  "surface_anisotropy": null,
  "shape_factor": null,
  "has_reconstructed": null,
  "possible_species": null,
  "has_props": null,
  "theoretical": null,
  "database_IDs": null,
  "fields_not_requested": [
    "builder_meta",
    "nsites",
    "elements",
    "nelements",
    "composition",
    "composition_reduced",
    "chemsys",
    "symmetry",
    "property_name",
    "deprecated",
    "deprecation_reasons",
    "last_updated",
    "origins",
    "warnings",
    "task_ids",
    "uncorrected_energy_per_atom",
    "equilibrium_reaction_energy_per_atom",
    "decomposes_to",
    "xas",
    "grain_boundaries",
    "cbm",
    "vbm",
    "is_gap_direct",
    "is_metal",
    "es_source_calc_id",
    "bandstructure",
    "dos",
    "dos_energy_up",
    "dos_energy_down",
    "is_magnetic",
    "ordering",
    "total_magnetization_normalized_vol",
    "total_magnetization_normalized_formula_units",
    "num_magnetic_sites",
    "num_unique_magnetic_sites",
    "types_of_magnetic_species",
    "bulk_modulus",
    "shear_modulus",
    "universal_anisotropy",
    "homogeneous_poisson",
    "e_total",
    "e_ionic",
    "e_electronic",
    "n",
    "e_ij_max",
    "weighted_surface_energy_EV_PER_ANG2",
    "weighted_surface_energy",
    "weighted_work_function",
    "surface_anisotropy",
    "shape_factor",
    "has_reconstructed",
    "possible_species",
    "has_props",
    "theoretical",
    "database_IDs"
  ]
}
