{
  "builder_meta": null,
  "nsites": null,
  "elements": null,
  "nelements": null,
  "composition": null,
  "composition_reduced": null,
  "formula_pretty": "YBr2",
  "formula_anonymous": "AB2",
  "chemsys": null,
  "volume": 196.30654995632221,
  "density": 4.207695203459933,
  "density_atomic": 32.717758326053705,
  "symmetry": null,
  "property_name": null,
  "material_id": "mp-865534",
  "deprecated": null,
  "deprecation_reasons": null,
  "last_updated": null,
  "origins": null,
  "warnings": null,
  "structure": {
    "@module": "pymatgen.core.structure",
    "@class": "Structure",
    "charge": 0,
    "lattice": {
      "matrix": [
        [7.295379, 0.0, 0.0],
        [0.0, 7.295379, 0.0],
        [0.0, 0.0, 3.688409]
      ],
      "pbc": [true, true, true],
      "a": 7.295379,
      "b": 7.295379,
      "c": 3.688409,
      "alpha": 90.0,
      "beta": 90.0,
      "gamma": 90.0,
      "volume": 196.30654995632221
    },
    "properties": {},
    "sites": [
      {
        "species": [{ "element": "Y", "occu": 1 }],
        "abc": [0.0, 0.0, 0.0],
        "properties": { "magmom": 0.129 },
        "label": "Y",
        "xyz": [0.0, 0.0, 0.0]
      },
      {
        "species": [{ "element": "Y", "occu": 1 }],
        "abc": [0.5, 0.5, 0.5],
        "properties": { "magmom": 0.129 },
        "label": "Y",
        "xyz": [3.6476895, 3.6476895, 1.8442045]
      },
      {
        "species": [{ "element": "Br", "occu": 1 }],
        "abc": [0.282787, 0.282787, 0.0],
        "properties": { "magmom": 0.001 },
        "label": "Br",
        "xyz": [2.063038341273, 2.063038341273, 0.0]
      },
      {
        "species": [{ "element": "Br", "occu": 1 }],
        "abc": [0.717213, 0.717213, 0.0],
        "properties": { "magmom": 0.001 },
        "label": "Br",
        "xyz": [5.232340658727, 5.232340658727, 0.0]
      },
      {
        "species": [{ "element": "Br", "occu": 1 }],
        "abc": [0.217213, 0.782787, 0.5],
        "properties": { "magmom": 0.001 },
        "label": "Br",
        "xyz": [1.5846511587269998, 5.710727841273, 1.8442045]
      },
      {
        "species": [{ "element": "Br", "occu": 1 }],
        "abc": [0.782787, 0.217213, 0.5],
        "properties": { "magmom": 0.001 },
        "label": "Br",
        "xyz": [5.710727841273, 1.5846511587269998, 1.8442045]
      }
    ]
  },
  "task_ids": null,
  "uncorrected_energy_per_atom": null,
  "energy_per_atom": -5.151306208333334,
  "formation_energy_per_atom": -1.890311351666666,
  "energy_above_hull": 0.158908924999999,
  "is_stable": false,
  "equilibrium_reaction_energy_per_atom": null,
  "decomposes_to": null,
  "xas": null,
  "grain_boundaries": null,
  "band_gap": 0.0,
  "cbm": null,
  "vbm": null,
  "efermi": 3.43764959,
  "is_gap_direct": null,
  "is_metal": null,
  "es_source_calc_id": null,
  "bandstructure": null,
  "dos": null,
  "dos_energy_up": null,
  "dos_energy_down": null,
  "is_magnetic": null,
  "ordering": null,
  "total_magnetization": 0.487101699999999,
  "total_magnetization_normalized_vol": null,
  "total_magnetization_normalized_formula_units": null,
  "num_magnetic_sites": null,
  "num_unique_magnetic_sites": null,
  "types_of_magnetic_species": null,
  "bulk_modulus": null,
  "shear_modulus": null,
  "universal_anisotropy": null,
  "homogeneous_poisson": null,
  "e_total": null,
  "e_ionic": null,
  "e_electronic": null,
  "n": null,
  "e_ij_max": null,
  "weighted_surface_energy_EV_PER_ANG2": null,
  "weighted_surface_energy": null,
  "weighted_work_function": null,
  "surface_anisotropy": null,
  "shape_factor": null,
  "has_reconstructed": null,
  "possible_species": null,
  "has_props": null,
  "theoretical": null,
  "database_IDs": null,
  "fields_not_requested": [
    "builder_meta",
    "nsites",
    "elements",
    "nelements",
    "composition",
    "composition_reduced",
    "chemsys",
    "symmetry",
    "property_name",
    "deprecated",
    "deprecation_reasons",
    "last_updated",
    "origins",
    "warnings",
    "task_ids",
    "uncorrected_energy_per_atom",
    "equilibrium_reaction_energy_per_atom",
    "decomposes_to",
    "xas",
    "grain_boundaries",
    "cbm",
    "vbm",
    "is_gap_direct",
    "is_metal",
    "es_source_calc_id",
    "bandstructure",
    "dos",
    "dos_energy_up",
    "dos_energy_down",
    "is_magnetic",
    "ordering",
    "total_magnetization_normalized_vol",
    "total_magnetization_normalized_formula_units",
    "num_magnetic_sites",
    "num_unique_magnetic_sites",
    "types_of_magnetic_species",
    "bulk_modulus",
    "shear_modulus",
    "universal_anisotropy",
    "homogeneous_poisson",
    "e_total",
    "e_ionic",
    "e_electronic",
    "n",
    "e_ij_max",
    "weighted_surface_energy_EV_PER_ANG2",
    "weighted_surface_energy",
    "weighted_work_function",
    "surface_anisotropy",
    "shape_factor",
    "has_reconstructed",
    "possible_species",
    "has_props",
    "theoretical",
    "database_IDs"
  ]
}
