{"builder_meta": null, "nsites": null, "elements": null, "nelements": null, "composition": null, "composition_reduced": null, "formula_pretty": "YBr3", "formula_anonymous": "AB3", "chemsys": null, "volume": 292.4847002362033, "density": 3.731359469171679, "density_atomic": 36.560587529525414, "symmetry": null, "property_name": null, "material_id": "mp-754815", "deprecated": null, "deprecation_reasons": null, "last_updated": null, "origins": null, "warnings": null, "structure": {"@module": "pymatgen.core.structure", "@class": "Structure", "charge": 0, "lattice": {"matrix": [[3.59046837, 6.19400696, 0.00755927], [-3.59046837, 6.19400696, -0.00755927], [-2.37700668, -0.0, 6.57082228]], "pbc": [true, true, true], "a": 7.1594163504479775, "b": 7.1594163504479775, "c": 6.987550800681811, "alpha": 80.23502572357049, "beta": 99.76497427642951, "gamma": 60.19911486492429, "volume": 292.4847002362033}, "properties": {}, "sites": [{"species": [{"element": "Y", "occu": 1}], "abc": [0.16683699, 0.16683699, -0.0], "properties": {"magmom": -0.0}, "label": "Y", "xyz": [0.0, 2.0667789544909008, 0.0]}, {"species": [{"element": "Y", "occu": 1}], "abc": [0.83316301, 0.83316301, -0.0], "properties": {"magmom": -0.0}, "label": "Y", "xyz": [0.0, 10.3212349655091, 0.0]}, {"species": [{"element": "Br", "occu": 1}], "abc": [0.06367012, 0.57991043, 0.75839685], "properties": {"magmom": 0.0}, "label": "Br", "xyz": [-3.656258882914953, 3.9863424060206283, 4.979388519173645]}, {"species": [{"element": "Br", "occu": 1}], "abc": [0.42008957, 0.9363298800000001, 0.75839685], "properties": {"magmom": 0.0}, "label": "Br", "xyz": [-3.656258882914953, 8.401671513979373, 4.979388519173645]}, {"species": [{"element": "Br", "occu": 1}], "abc": [0.22210323, 0.77789677, 0.24330091], "properties": {"magmom": 0.0}, "label": "Br", "xyz": [-2.573887013940409, 6.194006960000001, 1.594485646739159]}, {"species": [{"element": "Br", "occu": 1}], "abc": [0.77789677, 0.22210323, 0.75669909], "properties": {"magmom": 0.0}, "label": "Br", "xyz": [0.19688033394040882, 6.194006960000001, 4.976336633260841]}, {"species": [{"element": "Br", "occu": 1}], "abc": [0.57991043, 0.06367012, 0.24160315000000002], "properties": {"magmom": 0.0}, "label": "Br", "xyz": [1.2792522029149525, 3.9863424060206283, 1.5914337608263558]}, {"species": [{"element": "Br", "occu": 1}], "abc": [0.9363298800000001, 0.42008957, 0.24160315000000002], "properties": {"magmom": 0.0}, "label": "Br", "xyz": [1.279252202914953, 8.401671513979373, 1.5914337608263558]}]}, "task_ids": null, "uncorrected_energy_per_atom": null, "energy_per_atom": -5.1603555875, "formation_energy_per_atom": -2.30537281125, "energy_above_hull": 0.0, "is_stable": true, "equilibrium_reaction_energy_per_atom": null, "decomposes_to": null, "xas": null, "grain_boundaries": null, "band_gap": 3.976499999999999, "cbm": null, "vbm": null, "efermi": -1.50805539, "is_gap_direct": null, "is_metal": null, "es_source_calc_id": null, "bandstructure": null, "dos": null, "dos_energy_up": null, "dos_energy_down": null, "is_magnetic": null, "ordering": null, "total_magnetization": 0.0, "total_magnetization_normalized_vol": null, "total_magnetization_normalized_formula_units": null, "num_magnetic_sites": null, "num_unique_magnetic_sites": null, "types_of_magnetic_species": null, "bulk_modulus": null, "shear_modulus": null, "universal_anisotropy": null, "homogeneous_poisson": null, "e_total": null, "e_ionic": null, "e_electronic": null, "n": null, "e_ij_max": null, "weighted_surface_energy_EV_PER_ANG2": null, "weighted_surface_energy": null, "weighted_work_function": null, "surface_anisotropy": null, "shape_factor": null, "has_reconstructed": null, "possible_species": null, "has_props": null, "theoretical": null, "database_IDs": null, "fields_not_requested": ["builder_meta", "nsites", "elements", "nelements", "composition", "composition_reduced", "chemsys", "symmetry", "property_name", "deprecated", "deprecation_reasons", "last_updated", "origins", "warnings", "task_ids", "uncorrected_energy_per_atom", "equilibrium_reaction_energy_per_atom", "decomposes_to", "xas", "grain_boundaries", "cbm", "vbm", "is_gap_direct", "is_metal", "es_source_calc_id", "bandstructure", "dos", "dos_energy_up", "dos_energy_down", "is_magnetic", "ordering", "total_magnetization_normalized_vol", "total_magnetization_normalized_formula_units", "num_magnetic_sites", "num_unique_magnetic_sites", "types_of_magnetic_species", "bulk_modulus", "shear_modulus", "universal_anisotropy", "homogeneous_poisson", "e_total", "e_ionic", "e_electronic", "n", "e_ij_max", "weighted_surface_energy_EV_PER_ANG2", "weighted_surface_energy", "weighted_work_function", "surface_anisotropy", "shape_factor", "has_reconstructed", "possible_species", "has_props", "theoretical", "database_IDs"]}