{"builder_meta": null, "nsites": null, "elements": null, "nelements": null, "composition": null, "composition_reduced": null, "formula_pretty": "YbSb2", "formula_anonymous": "AB2", "chemsys": null, "volume": 158.8211491998477, "density": 8.710605068251947, "density_atomic": 26.47019153330795, "symmetry": null, "property_name": null, "material_id": "mp-7138", "deprecated": null, "deprecation_reasons": null, "last_updated": null, "origins": null, "warnings": null, "structure": {"@module": "pymatgen.core.structure", "@class": "Structure", "charge": 0.0, "lattice": {"matrix": [[-0.0, -0.0, 4.314800977511917], [4.294499612352186, 0.0, 0.0], [2.147249806176093, 8.571069128495958, 0.0]], "pbc": [true, true, true], "a": 4.314800977511917, "b": 4.294499612352186, "c": 8.835944077209845, "alpha": 75.93555791236619, "beta": 90.0, "gamma": 90.0, "volume": 158.8211491998477}, "properties": {}, "sites": [{"species": [{"element": "Yb", "occu": 1}], "abc": [0.75, 0.8902836746457791, 0.21943265070844803], "properties": {"magmom": 0.0}, "label": "Yb", "xyz": [4.294499612352199, 1.8807724182712158, 3.2361007331339375]}, {"species": [{"element": "Yb", "occu": 1}], "abc": [0.25, 0.10971632535422, 0.780567349291551], "properties": {"magmom": 0.0}, "label": "Yb", "xyz": [2.147249806176074, 6.690296710224734, 1.0787002443779792]}, {"species": [{"element": "Sb", "occu": 1}], "abc": [0.75, 0.568697431301167, 0.8626051373976581], "properties": {"magmom": 0.0}, "label": "Sb", "xyz": [4.294499612352169, 7.393448263231082, 3.2361007331339375]}, {"species": [{"element": "Sb", "occu": 1}], "abc": [0.25, 0.43130256869883205, 0.13739486260234202], "properties": {"magmom": 0.0}, "label": "Sb", "xyz": [2.147249806176106, 1.1776208652648776, 1.0787002443779792]}, {"species": [{"element": "Sb", "occu": 1}], "abc": [0.75, 0.24936950710782202, 0.50126098578437], "properties": {"magmom": 0.0}, "label": "Sb", "xyz": [2.1472498061761227, 4.296342560575865, 3.2361007331339375]}, {"species": [{"element": "Sb", "occu": 1}], "abc": [0.25, 0.7506304928921771, 0.49873901421563], "properties": {"magmom": 0.0}, "label": "Sb", "xyz": [4.294499612352152, 4.274726567920093, 1.0787002443779792]}]}, "task_ids": null, "uncorrected_energy_per_atom": null, "energy_per_atom": -29.9770951, "formation_energy_per_atom": -0.663091684999997, "energy_above_hull": 0.18488938666666802, "is_stable": false, "equilibrium_reaction_energy_per_atom": null, "decomposes_to": null, "xas": null, "grain_boundaries": null, "band_gap": 0.0, "cbm": null, "vbm": null, "efermi": 6.14693668, "is_gap_direct": null, "is_metal": null, "es_source_calc_id": null, "bandstructure": null, "dos": null, "dos_energy_up": null, "dos_energy_down": null, "is_magnetic": null, "ordering": null, "total_magnetization": 0.0, "total_magnetization_normalized_vol": null, "total_magnetization_normalized_formula_units": null, "num_magnetic_sites": null, "num_unique_magnetic_sites": null, "types_of_magnetic_species": null, "bulk_modulus": null, "shear_modulus": null, "universal_anisotropy": null, "homogeneous_poisson": null, "e_total": null, "e_ionic": null, "e_electronic": null, "n": null, "e_ij_max": null, "weighted_surface_energy_EV_PER_ANG2": null, "weighted_surface_energy": null, "weighted_work_function": null, "surface_anisotropy": null, "shape_factor": null, "has_reconstructed": null, "possible_species": null, "has_props": null, "theoretical": null, "database_IDs": null, "fields_not_requested": ["builder_meta", "nsites", "elements", "nelements", "composition", "composition_reduced", "chemsys", "symmetry", "property_name", "deprecated", "deprecation_reasons", "last_updated", "origins", "warnings", "task_ids", "uncorrected_energy_per_atom", "equilibrium_reaction_energy_per_atom", "decomposes_to", "xas", "grain_boundaries", "cbm", "vbm", "is_gap_direct", "is_metal", "es_source_calc_id", "bandstructure", "dos", "dos_energy_up", "dos_energy_down", "is_magnetic", "ordering", "total_magnetization_normalized_vol", "total_magnetization_normalized_formula_units", "num_magnetic_sites", "num_unique_magnetic_sites", "types_of_magnetic_species", "bulk_modulus", "shear_modulus", "universal_anisotropy", "homogeneous_poisson", "e_total", "e_ionic", "e_electronic", "n", "e_ij_max", "weighted_surface_energy_EV_PER_ANG2", "weighted_surface_energy", "weighted_work_function", "surface_anisotropy", "shape_factor", "has_reconstructed", "possible_species", "has_props", "theoretical", "database_IDs"]}