{"builder_meta": null, "nsites": null, "elements": null, "nelements": null, "composition": null, "composition_reduced": null, "formula_pretty": "YbSe2", "formula_anonymous": "AB2", "chemsys": null, "volume": 131.5217840460257, "density": 8.357125224055881, "density_atomic": 21.920297341004282, "symmetry": null, "property_name": null, "material_id": "mp-1077033", "deprecated": null, "deprecation_reasons": null, "last_updated": null, "origins": null, "warnings": null, "structure": {"@module": "pymatgen.core.structure", "@class": "Structure", "charge": 0.0, "lattice": {"matrix": [[4.015798310288711, 0.0, -0.0], [0.0, 4.015798310288711, 0.0], [0.0, 0.0, 8.155562231575349]], "pbc": [true, true, true], "a": 4.015798310288711, "b": 4.015798310288711, "c": 8.155562231575349, "alpha": 90.0, "beta": 90.0, "gamma": 90.0, "volume": 131.5217840460257}, "properties": {}, "sites": [{"species": [{"element": "Yb", "occu": 1}], "abc": [0.0, 0.5, 0.726908072508408], "properties": {"magmom": -0.0}, "label": "Yb", "xyz": [0.0, 2.0078991551443557, 5.928344021976808]}, {"species": [{"element": "Yb", "occu": 1}], "abc": [0.5, 0.0, 0.273091927491591], "properties": {"magmom": -0.0}, "label": "Yb", "xyz": [2.0078991551443557, 0.0, 2.2272182095985333]}, {"species": [{"element": "Se", "occu": 1}], "abc": [0.0, 0.0, 0.0], "properties": {"magmom": 0.0}, "label": "Se", "xyz": [0.0, 0.0, 0.0]}, {"species": [{"element": "Se", "occu": 1}], "abc": [0.5, 0.5, 0.0], "properties": {"magmom": 0.0}, "label": "Se", "xyz": [2.0078991551443557, 2.0078991551443557, 0.0]}, {"species": [{"element": "Se", "occu": 1}], "abc": [0.0, 0.5, 0.37032086186921004], "properties": {"magmom": 0.0}, "label": "Se", "xyz": [0.0, 2.0078991551443557, 3.020174834624961]}, {"species": [{"element": "Se", "occu": 1}], "abc": [0.5, 0.0, 0.629679138130789], "properties": {"magmom": 0.0}, "label": "Se", "xyz": [2.0078991551443557, 0.0, 5.13538739695038]}]}, "task_ids": null, "uncorrected_energy_per_atom": null, "energy_per_atom": -23.422280923333332, "formation_energy_per_atom": -1.704781174374999, "energy_above_hull": 0.102517906822917, "is_stable": false, "equilibrium_reaction_energy_per_atom": null, "decomposes_to": null, "xas": null, "grain_boundaries": null, "band_gap": 0.0, "cbm": null, "vbm": null, "efermi": 2.89956364, "is_gap_direct": null, "is_metal": null, "es_source_calc_id": null, "bandstructure": null, "dos": null, "dos_energy_up": null, "dos_energy_down": null, "is_magnetic": null, "ordering": null, "total_magnetization": 0.0, "total_magnetization_normalized_vol": null, "total_magnetization_normalized_formula_units": null, "num_magnetic_sites": null, "num_unique_magnetic_sites": null, "types_of_magnetic_species": null, "bulk_modulus": null, "shear_modulus": null, "universal_anisotropy": null, "homogeneous_poisson": null, "e_total": null, "e_ionic": null, "e_electronic": null, "n": null, "e_ij_max": null, "weighted_surface_energy_EV_PER_ANG2": null, "weighted_surface_energy": null, "weighted_work_function": null, "surface_anisotropy": null, "shape_factor": null, "has_reconstructed": null, "possible_species": null, "has_props": null, "theoretical": null, "database_IDs": null, "fields_not_requested": ["builder_meta", "nsites", "elements", "nelements", "composition", "composition_reduced", "chemsys", "symmetry", "property_name", "deprecated", "deprecation_reasons", "last_updated", "origins", "warnings", "task_ids", "uncorrected_energy_per_atom", "equilibrium_reaction_energy_per_atom", "decomposes_to", "xas", "grain_boundaries", "cbm", "vbm", "is_gap_direct", "is_metal", "es_source_calc_id", "bandstructure", "dos", "dos_energy_up", "dos_energy_down", "is_magnetic", "ordering", "total_magnetization_normalized_vol", "total_magnetization_normalized_formula_units", "num_magnetic_sites", "num_unique_magnetic_sites", "types_of_magnetic_species", "bulk_modulus", "shear_modulus", "universal_anisotropy", "homogeneous_poisson", "e_total", "e_ionic", "e_electronic", "n", "e_ij_max", "weighted_surface_energy_EV_PER_ANG2", "weighted_surface_energy", "weighted_work_function", "surface_anisotropy", "shape_factor", "has_reconstructed", "possible_species", "has_props", "theoretical", "database_IDs"]}