{"builder_meta": null, "nsites": null, "elements": null, "nelements": null, "composition": null, "composition_reduced": null, "formula_pretty": "YbSi3", "formula_anonymous": "AB3", "chemsys": null, "volume": 269.57037692054774, "density": 6.33973057173672, "density_atomic": 16.848148557534234, "symmetry": null, "property_name": null, "material_id": "mp-1189414", "deprecated": null, "deprecation_reasons": null, "last_updated": null, "origins": null, "warnings": null, "structure": {"@module": "pymatgen.core.structure", "@class": "Structure", "charge": 0.0, "lattice": {"matrix": [[-3.5741016150195533, 3.5741016150195533, 5.275679244776762], [3.5741016150195533, -3.5741016150195533, 5.275679244776762], [3.5741016150195533, 3.5741016150195533, -5.275679244776762]], "pbc": [true, true, true], "a": 7.306243645180405, "b": 7.306243645180405, "c": 7.306243645180405, "alpha": 121.42600111746454, "beta": 121.42600111746454, "gamma": 87.54734414716714, "volume": 269.5703769205478}, "properties": {}, "sites": [{"species": [{"element": "Yb", "occu": 1}], "abc": [0.8311056300103411, 0.8311056300103411, 0.0], "properties": {"magmom": -0.0}, "label": "Yb", "xyz": [0.0, 0.0, 8.769293444925342]}, {"species": [{"element": "Yb", "occu": 1}], "abc": [0.168894369989658, 0.168894369989658, 0.0], "properties": {"magmom": -0.0}, "label": "Yb", "xyz": [0.0, 0.0, 1.7820650446281718]}, {"species": [{"element": "Yb", "occu": 1}], "abc": [0.75, 0.25, 0.5], "properties": {"magmom": 0.0}, "label": "Yb", "xyz": [2.220446049250313e-16, 3.5741016150195533, 2.637839622388381]}, {"species": [{"element": "Yb", "occu": 1}], "abc": [0.25, 0.75, 0.5], "properties": {"magmom": 0.0}, "label": "Yb", "xyz": [3.5741016150195533, 2.220446049250313e-16, 2.637839622388381]}, {"species": [{"element": "Si", "occu": 1}], "abc": [0.19783030561293902, 0.19783030561293902, 0.6253652881778891], "properties": {"magmom": -0.0}, "label": "Si", "xyz": [2.2351190864537616, 2.2351190864537616, -1.2118481966238752]}, {"species": [{"element": "Si", "occu": 1}], "abc": [0.572464017435038, 0.572464017435038, 0.37463471182211006], "properties": {"magmom": -0.0}, "label": "Si", "xyz": [1.3389825285657884, 1.3389825285657884, 4.063820496794276]}, {"species": [{"element": "Si", "occu": 1}], "abc": [0.19783030561293902, 0.572464017435038, 0.0], "properties": {"magmom": -0.0}, "label": "Si", "xyz": [1.338978954464134, -1.338978954464134, 4.063825772473579]}, {"species": [{"element": "Si", "occu": 1}], "abc": [0.572464017435038, 0.19783030561293902, 0.0], "properties": {"magmom": -0.0}, "label": "Si", "xyz": [-1.338978954464134, 1.338978954464134, 4.063825772473579]}, {"species": [{"element": "Si", "occu": 1}], "abc": [0.8021696943870601, 0.8021696943870601, 0.37463471182211006], "properties": {"magmom": -0.0}, "label": "Si", "xyz": [1.3389825285657884, 1.3389825285657884, 6.4875274414006325]}, {"species": [{"element": "Si", "occu": 1}], "abc": [0.42753598256496106, 0.42753598256496106, 0.6253652881778891], "properties": {"magmom": -0.0}, "label": "Si", "xyz": [2.2351190864537616, 2.2351190864537616, 1.2118587479824812]}, {"species": [{"element": "Si", "occu": 1}], "abc": [0.8021696943870601, 0.42753598256496106, 0.0], "properties": {"magmom": -0.0}, "label": "Si", "xyz": [-1.338978954464134, 1.338978954464134, 6.487532717079935]}, {"species": [{"element": "Si", "occu": 1}], "abc": [0.42753598256496106, 0.8021696943870601, 0.0], "properties": {"magmom": -0.0}, "label": "Si", "xyz": [1.338978954464134, -1.338978954464134, 6.487532717079935]}, {"species": [{"element": "Si", "occu": 1}], "abc": [0.32651187505101803, 0.0, 0.32651187505101803], "properties": {"magmom": 0.0}, "label": "Si", "xyz": [0.0, 2.3339732398858124, 0.0]}, {"species": [{"element": "Si", "occu": 1}], "abc": [0.673488124948981, 0.0, 0.673488124948981], "properties": {"magmom": 0.0}, "label": "Si", "xyz": [0.0, 4.8142299901532875, 0.0]}, {"species": [{"element": "Si", "occu": 1}], "abc": [0.0, 0.673488124948981, 0.673488124948981], "properties": {"magmom": 0.0}, "label": "Si", "xyz": [4.8142299901532875, 0.0, 0.0]}, {"species": [{"element": "Si", "occu": 1}], "abc": [0.0, 0.32651187505101803, 0.32651187505101803], "properties": {"magmom": 0.0}, "label": "Si", "xyz": [2.3339732398858124, 0.0, 0.0]}]}, "task_ids": null, "uncorrected_energy_per_atom": null, "energy_per_atom": -16.006811955, "formation_energy_per_atom": -0.29414381249999905, "energy_above_hull": 0.15085162333333102, "is_stable": false, "equilibrium_reaction_energy_per_atom": null, "decomposes_to": null, "xas": null, "grain_boundaries": null, "band_gap": 0.0, "cbm": null, "vbm": null, "efermi": 6.5842457, "is_gap_direct": null, "is_metal": null, "es_source_calc_id": null, "bandstructure": null, "dos": null, "dos_energy_up": null, "dos_energy_down": null, "is_magnetic": null, "ordering": null, "total_magnetization": 0.0, "total_magnetization_normalized_vol": null, "total_magnetization_normalized_formula_units": null, "num_magnetic_sites": null, "num_unique_magnetic_sites": null, "types_of_magnetic_species": null, "bulk_modulus": null, "shear_modulus": null, "universal_anisotropy": null, "homogeneous_poisson": null, "e_total": null, "e_ionic": null, "e_electronic": null, "n": null, "e_ij_max": null, "weighted_surface_energy_EV_PER_ANG2": null, "weighted_surface_energy": null, "weighted_work_function": null, "surface_anisotropy": null, "shape_factor": null, "has_reconstructed": null, "possible_species": null, "has_props": null, "theoretical": null, "database_IDs": null, "fields_not_requested": ["builder_meta", "nsites", "elements", "nelements", "composition", "composition_reduced", "chemsys", "symmetry", "property_name", "deprecated", "deprecation_reasons", "last_updated", "origins", "warnings", "task_ids", "uncorrected_energy_per_atom", "equilibrium_reaction_energy_per_atom", "decomposes_to", "xas", "grain_boundaries", "cbm", "vbm", "is_gap_direct", "is_metal", "es_source_calc_id", "bandstructure", "dos", "dos_energy_up", "dos_energy_down", "is_magnetic", "ordering", "total_magnetization_normalized_vol", "total_magnetization_normalized_formula_units", "num_magnetic_sites", "num_unique_magnetic_sites", "types_of_magnetic_species", "bulk_modulus", "shear_modulus", "universal_anisotropy", "homogeneous_poisson", "e_total", "e_ionic", "e_electronic", "n", "e_ij_max", "weighted_surface_energy_EV_PER_ANG2", "weighted_surface_energy", "weighted_work_function", "surface_anisotropy", "shape_factor", "has_reconstructed", "possible_species", "has_props", "theoretical", "database_IDs"]}