{
  "builder_meta": null,
  "nsites": null,
  "elements": null,
  "nelements": null,
  "composition": null,
  "composition_reduced": null,
  "formula_pretty": "YbSi",
  "formula_anonymous": "AB",
  "chemsys": null,
  "volume": 80.87771676486099,
  "density": 8.258807577628387,
  "density_atomic": 20.219429191215248,
  "symmetry": null,
  "property_name": null,
  "material_id": "mp-10651",
  "deprecated": null,
  "deprecation_reasons": null,
  "last_updated": null,
  "origins": null,
  "warnings": null,
  "structure": {
    "@module": "pymatgen.core.structure",
    "@class": "Structure",
    "charge": 0.0,
    "lattice": {
      "matrix": [
        [2.087769514438673, -5.154545026542205, 0.0],
        [2.087769514438673, 5.154545026542205, 0.0],
        [-0.0, 0.0, 3.757733679334253]
      ],
      "pbc": [true, true, true],
      "a": 5.561305240325375,
      "b": 5.561305240325375,
      "c": 3.757733679334253,
      "alpha": 90.0,
      "beta": 90.0,
      "gamma": 135.90069070360133,
      "volume": 80.87771676486098
    },
    "properties": {},
    "sites": [
      {
        "species": [{ "element": "Yb", "occu": 1 }],
        "abc": [0.140597010911861, 0.8594029890881381, 0.25],
        "properties": { "magmom": 0.0 },
        "label": "Yb",
        "xyz": [2.087769514438671, 3.705117779857334, 0.9394334198335632]
      },
      {
        "species": [{ "element": "Yb", "occu": 1 }],
        "abc": [0.8594029890881381, 0.140597010911861, 0.75],
        "properties": { "magmom": 0.0 },
        "label": "Yb",
        "xyz": [2.087769514438671, -3.705117779857334, 2.8183002595006896]
      },
      {
        "species": [{ "element": "Si", "occu": 1 }],
        "abc": [0.422198980889518, 0.5778010191104811, 0.25],
        "properties": { "magmom": 0.0 },
        "label": "Si",
        "xyz": [2.0877695144386714, 0.8020577122316954, 0.9394334198335632]
      },
      {
        "species": [{ "element": "Si", "occu": 1 }],
        "abc": [0.5778010191104811, 0.422198980889518, 0.75],
        "properties": { "magmom": 0.0 },
        "label": "Si",
        "xyz": [2.0877695144386714, -0.8020577122316954, 2.8183002595006896]
      }
    ]
  },
  "task_ids": null,
  "uncorrected_energy_per_atom": null,
  "energy_per_atom": -23.536141135,
  "formation_energy_per_atom": -0.8845694450000031,
  "energy_above_hull": 0.0,
  "is_stable": true,
  "equilibrium_reaction_energy_per_atom": null,
  "decomposes_to": null,
  "xas": null,
  "grain_boundaries": null,
  "band_gap": 0.0,
  "cbm": null,
  "vbm": null,
  "efermi": 3.91856184,
  "is_gap_direct": null,
  "is_metal": null,
  "es_source_calc_id": null,
  "bandstructure": null,
  "dos": null,
  "dos_energy_up": null,
  "dos_energy_down": null,
  "is_magnetic": null,
  "ordering": null,
  "total_magnetization": 0.0,
  "total_magnetization_normalized_vol": null,
  "total_magnetization_normalized_formula_units": null,
  "num_magnetic_sites": null,
  "num_unique_magnetic_sites": null,
  "types_of_magnetic_species": null,
  "bulk_modulus": null,
  "shear_modulus": null,
  "universal_anisotropy": null,
  "homogeneous_poisson": null,
  "e_total": null,
  "e_ionic": null,
  "e_electronic": null,
  "n": null,
  "e_ij_max": null,
  "weighted_surface_energy_EV_PER_ANG2": null,
  "weighted_surface_energy": null,
  "weighted_work_function": null,
  "surface_anisotropy": null,
  "shape_factor": null,
  "has_reconstructed": null,
  "possible_species": null,
  "has_props": null,
  "theoretical": null,
  "database_IDs": null,
  "fields_not_requested": [
    "builder_meta",
    "nsites",
    "elements",
    "nelements",
    "composition",
    "composition_reduced",
    "chemsys",
    "symmetry",
    "property_name",
    "deprecated",
    "deprecation_reasons",
    "last_updated",
    "origins",
    "warnings",
    "task_ids",
    "uncorrected_energy_per_atom",
    "equilibrium_reaction_energy_per_atom",
    "decomposes_to",
    "xas",
    "grain_boundaries",
    "cbm",
    "vbm",
    "is_gap_direct",
    "is_metal",
    "es_source_calc_id",
    "bandstructure",
    "dos",
    "dos_energy_up",
    "dos_energy_down",
    "is_magnetic",
    "ordering",
    "total_magnetization_normalized_vol",
    "total_magnetization_normalized_formula_units",
    "num_magnetic_sites",
    "num_unique_magnetic_sites",
    "types_of_magnetic_species",
    "bulk_modulus",
    "shear_modulus",
    "universal_anisotropy",
    "homogeneous_poisson",
    "e_total",
    "e_ionic",
    "e_electronic",
    "n",
    "e_ij_max",
    "weighted_surface_energy_EV_PER_ANG2",
    "weighted_surface_energy",
    "weighted_work_function",
    "surface_anisotropy",
    "shape_factor",
    "has_reconstructed",
    "possible_species",
    "has_props",
    "theoretical",
    "database_IDs"
  ]
}
