{"builder_meta": null, "nsites": null, "elements": null, "nelements": null, "composition": null, "composition_reduced": null, "formula_pretty": "YbU3", "formula_anonymous": "AB3", "chemsys": null, "volume": 190.28606409147437, "density": 15.483094878476825, "density_atomic": 23.785758011434297, "symmetry": null, "property_name": null, "material_id": "mp-1187689", "deprecated": null, "deprecation_reasons": null, "last_updated": null, "origins": null, "warnings": null, "structure": {"@module": "pymatgen.core.structure", "@class": "Structure", "charge": 0.0, "lattice": {"matrix": [[6.458651238202219, -1.9083208e-08, 0.0], [-3.229327164420944, 5.593356287150749, -0.0], [-0.0, 0.0, 5.26735593525554]], "pbc": [true, true, true], "a": 6.458651238202219, "b": 6.458652219300543, "c": 5.26735593525554, "alpha": 90.0, "beta": 90.0, "gamma": 120.00001097387735, "volume": 190.28606409147437}, "properties": {}, "sites": [{"species": [{"element": "Yb", "occu": 1}], "abc": [0.333333999999999, 0.666668000000001, 0.75], "properties": {"magmom": -0.222}, "label": "Yb", "xyz": [-1.0302152930741215e-06, 3.7289116428811395, 3.9505169514416547]}, {"species": [{"element": "Yb", "occu": 1}], "abc": [0.666666999999996, 0.33333300000000304, 0.24999900000000203], "properties": {"magmom": -0.222}, "label": "Yb", "xyz": [3.229328333320597, 1.8644502185426926, 1.3168337164579604]}, {"species": [{"element": "U", "occu": 1}], "abc": [0.14666363271695101, 0.293328265648895, 0.24999900000000203], "properties": {"magmom": -1.655}, "label": "U", "xyz": [-3.683305888291244e-06, 1.6406894960674596, 1.3168337164579604]}, {"species": [{"element": "U", "occu": 1}], "abc": [0.706673734486159, 0.8533363672830491, 0.24999900000000203], "properties": {"magmom": -1.655}, "label": "U", "xyz": [1.8084568789885789, 4.773014321511422, 1.3168337164579604]}, {"species": [{"element": "U", "occu": 1}], "abc": [0.146662632796896, 0.853336367068052, 0.24999900000000203], "properties": {"magmom": -1.655}, "label": "U", "xyz": [-1.8084595156494725, 4.773014330995675, 1.3168337164579604]}, {"species": [{"element": "U", "occu": 1}], "abc": [0.8533373672830461, 0.7066717343511041, 0.75], "properties": {"magmom": -1.655}, "label": "U", "xyz": [3.2293342157383864, 3.952666772000058, 3.9505169514416547]}, {"species": [{"element": "U", "occu": 1}], "abc": [0.293327265513845, 0.14666363271695101, 0.75], "properties": {"magmom": -1.655}, "label": "U", "xyz": [1.42087365344396, 0.820341946556101, 3.9505169514416547]}, {"species": [{"element": "U", "occu": 1}], "abc": [0.853336367203105, 0.146663632931947, 0.75], "properties": {"magmom": -1.655}, "label": "U", "xyz": [5.037777130779519, 0.8203419370718801, 3.9505169514416547]}]}, "task_ids": null, "uncorrected_energy_per_atom": null, "energy_per_atom": -68.66539146875, "formation_energy_per_atom": 0.423480696249995, "energy_above_hull": 0.423480696249995, "is_stable": false, "equilibrium_reaction_energy_per_atom": null, "decomposes_to": null, "xas": null, "grain_boundaries": null, "band_gap": 0.0, "cbm": null, "vbm": null, "efermi": 10.32277992, "is_gap_direct": null, "is_metal": null, "es_source_calc_id": null, "bandstructure": null, "dos": null, "dos_energy_up": null, "dos_energy_down": null, "is_magnetic": null, "ordering": null, "total_magnetization": 10.547854, "total_magnetization_normalized_vol": null, "total_magnetization_normalized_formula_units": null, "num_magnetic_sites": null, "num_unique_magnetic_sites": null, "types_of_magnetic_species": null, "bulk_modulus": null, "shear_modulus": null, "universal_anisotropy": null, "homogeneous_poisson": null, "e_total": null, "e_ionic": null, "e_electronic": null, "n": null, "e_ij_max": null, "weighted_surface_energy_EV_PER_ANG2": null, "weighted_surface_energy": null, "weighted_work_function": null, "surface_anisotropy": null, "shape_factor": null, "has_reconstructed": null, "possible_species": null, "has_props": null, "theoretical": null, "database_IDs": null, "fields_not_requested": ["builder_meta", "nsites", "elements", "nelements", "composition", "composition_reduced", "chemsys", "symmetry", "property_name", "deprecated", "deprecation_reasons", "last_updated", "origins", "warnings", "task_ids", "uncorrected_energy_per_atom", "equilibrium_reaction_energy_per_atom", "decomposes_to", "xas", "grain_boundaries", "cbm", "vbm", "is_gap_direct", "is_metal", "es_source_calc_id", "bandstructure", "dos", "dos_energy_up", "dos_energy_down", "is_magnetic", "ordering", "total_magnetization_normalized_vol", "total_magnetization_normalized_formula_units", "num_magnetic_sites", "num_unique_magnetic_sites", "types_of_magnetic_species", "bulk_modulus", "shear_modulus", "universal_anisotropy", "homogeneous_poisson", "e_total", "e_ionic", "e_electronic", "n", "e_ij_max", "weighted_surface_energy_EV_PER_ANG2", "weighted_surface_energy", "weighted_work_function", "surface_anisotropy", "shape_factor", "has_reconstructed", "possible_species", "has_props", "theoretical", "database_IDs"]}