{"builder_meta": null, "nsites": null, "elements": null, "nelements": null, "composition": null, "composition_reduced": null, "formula_pretty": "YbY3", "formula_anonymous": "AB3", "chemsys": null, "volume": 129.30444903076432, "density": 5.647404997128631, "density_atomic": 32.32611225769108, "symmetry": null, "property_name": null, "material_id": "mp-1187547", "deprecated": null, "deprecation_reasons": null, "last_updated": null, "origins": null, "warnings": null, "structure": {"@module": "pymatgen.core.structure", "@class": "Structure", "charge": 0.0, "lattice": {"matrix": [[-2.523645211403362, 2.523645211403362, 5.075710905754981], [2.523645211403362, -2.523645211403362, 5.075710905754981], [2.523645211403362, 2.523645211403362, -5.075710905754981]], "pbc": [true, true, true], "a": 6.204869982914895, "b": 6.204869982914895, "c": 6.204869982914895, "alpha": 132.00207768858235, "beta": 132.00207768858235, "gamma": 70.22574542390124, "volume": 129.3044490307643}, "properties": {}, "sites": [{"species": [{"element": "Yb", "occu": 1}], "abc": [0.0, 0.0, 0.0], "properties": {"magmom": 0.0}, "label": "Yb", "xyz": [0.0, 0.0, 0.0]}, {"species": [{"element": "Y", "occu": 1}], "abc": [0.75, 0.25, 0.5], "properties": {"magmom": 0.0}, "label": "Y", "xyz": [2.220446049250313e-16, 2.5236452114033616, 2.5378554528774906]}, {"species": [{"element": "Y", "occu": 1}], "abc": [0.25, 0.75, 0.5], "properties": {"magmom": 0.0}, "label": "Y", "xyz": [2.5236452114033616, 2.220446049250313e-16, 2.5378554528774906]}, {"species": [{"element": "Y", "occu": 1}], "abc": [0.5, 0.5, 0.0], "properties": {"magmom": -0.0}, "label": "Y", "xyz": [0.0, 0.0, 5.075710905754981]}]}, "task_ids": null, "uncorrected_energy_per_atom": null, "energy_per_atom": -24.2836656275, "formation_energy_per_atom": 0.083879788749996, "energy_above_hull": 0.083879788749996, "is_stable": false, "equilibrium_reaction_energy_per_atom": null, "decomposes_to": null, "xas": null, "grain_boundaries": null, "band_gap": 0.0, "cbm": null, "vbm": null, "efermi": 2.85619508, "is_gap_direct": null, "is_metal": null, "es_source_calc_id": null, "bandstructure": null, "dos": null, "dos_energy_up": null, "dos_energy_down": null, "is_magnetic": null, "ordering": null, "total_magnetization": 1.7e-06, "total_magnetization_normalized_vol": null, "total_magnetization_normalized_formula_units": null, "num_magnetic_sites": null, "num_unique_magnetic_sites": null, "types_of_magnetic_species": null, "bulk_modulus": null, "shear_modulus": null, "universal_anisotropy": null, "homogeneous_poisson": null, "e_total": null, "e_ionic": null, "e_electronic": null, "n": null, "e_ij_max": null, "weighted_surface_energy_EV_PER_ANG2": null, "weighted_surface_energy": null, "weighted_work_function": null, "surface_anisotropy": null, "shape_factor": null, "has_reconstructed": null, "possible_species": null, "has_props": null, "theoretical": null, "database_IDs": null, "fields_not_requested": ["builder_meta", "nsites", "elements", "nelements", "composition", "composition_reduced", "chemsys", "symmetry", "property_name", "deprecated", "deprecation_reasons", "last_updated", "origins", "warnings", "task_ids", "uncorrected_energy_per_atom", "equilibrium_reaction_energy_per_atom", "decomposes_to", "xas", "grain_boundaries", "cbm", "vbm", "is_gap_direct", "is_metal", "es_source_calc_id", "bandstructure", "dos", "dos_energy_up", "dos_energy_down", "is_magnetic", "ordering", "total_magnetization_normalized_vol", "total_magnetization_normalized_formula_units", "num_magnetic_sites", "num_unique_magnetic_sites", "types_of_magnetic_species", "bulk_modulus", "shear_modulus", "universal_anisotropy", "homogeneous_poisson", "e_total", "e_ionic", "e_electronic", "n", "e_ij_max", "weighted_surface_energy_EV_PER_ANG2", "weighted_surface_energy", "weighted_work_function", "surface_anisotropy", "shape_factor", "has_reconstructed", "possible_species", "has_props", "theoretical", "database_IDs"]}