{
  "builder_meta": null,
  "nsites": null,
  "elements": null,
  "nelements": null,
  "composition": null,
  "composition_reduced": null,
  "formula_pretty": "YbZn2",
  "formula_anonymous": "AB2",
  "chemsys": null,
  "volume": 111.97454209855283,
  "density": 9.012192776012501,
  "density_atomic": 18.66242368309214,
  "symmetry": null,
  "property_name": null,
  "material_id": "mp-657",
  "deprecated": null,
  "deprecation_reasons": null,
  "last_updated": null,
  "origins": null,
  "warnings": null,
  "structure": {
    "@module": "pymatgen.core.structure",
    "@class": "Structure",
    "charge": 0.0,
    "lattice": {
      "matrix": [
        [4.37924110154155, -0.0, -0.0],
        [2.189620550770775, 3.427910200480376, 3.729589271892467],
        [2.189620550770775, -3.427910200480376, 3.729589271892467]
      ],
      "pbc": [true, true, true],
      "a": 4.37924110154155,
      "b": 5.518590638553516,
      "c": 5.518590638553516,
      "alpha": 76.80132148975788,
      "beta": 66.62348408161063,
      "gamma": 66.62348408161063,
      "volume": 111.9745420985528
    },
    "properties": {},
    "sites": [
      {
        "species": [{ "element": "Yb", "occu": 1 }],
        "abc": [0.529609885023646, 0.7203901149763531, 0.22039011497635302],
        "properties": { "magmom": 0.0 },
        "label": "Yb",
        "xyz": [4.379241101541546, 1.713955100240188, 3.508723852840141]
      },
      {
        "species": [{ "element": "Yb", "occu": 1 }],
        "abc": [0.470390114976353, 0.27960988502364603, 0.779609885023646],
        "properties": { "magmom": 0.0 },
        "label": "Yb",
        "xyz": [4.379241101541545, -1.713955100240188, 3.9504546909447864]
      },
      {
        "species": [{ "element": "Zn", "occu": 1 }],
        "abc": [0.83393109112675, 0.7085783329934401, 0.6235594847530731],
        "properties": { "magmom": 0.0 },
        "label": "Zn",
        "xyz": [6.5688616523123535, 0.29143697711624705, 4.968326913749638]
      },
      {
        "species": [{ "element": "Zn", "occu": 1 }],
        "abc": [0.16606890887324902, 0.291421667006559, 0.376440515246933],
        "properties": { "magmom": 0.0 },
        "label": "Zn",
        "xyz": [2.189620550770753, -0.29143697711627103, 2.4908516300353156]
      },
      {
        "species": [{ "element": "Zn", "occu": 1 }],
        "abc": [0.83393109112675, 0.123559484753073, 0.20857833299344003],
        "properties": { "magmom": 0.0 },
        "label": "Zn",
        "xyz": [4.379241101541578, -0.29143697711624716, 1.2387376418571705]
      },
      {
        "species": [{ "element": "Zn", "occu": 1 }],
        "abc": [0.16606890887324902, 0.8764405152469261, 0.791421667006559],
        "properties": { "magmom": 0.0 },
        "label": "Zn",
        "xyz": [4.379241101541513, 0.2914369771162475, 6.220440901927757]
      }
    ]
  },
  "task_ids": null,
  "uncorrected_energy_per_atom": null,
  "energy_per_atom": -18.565001095,
  "formation_energy_per_atom": -0.44813976333333405,
  "energy_above_hull": 0.0,
  "is_stable": true,
  "equilibrium_reaction_energy_per_atom": null,
  "decomposes_to": null,
  "xas": null,
  "grain_boundaries": null,
  "band_gap": 0.0,
  "cbm": null,
  "vbm": null,
  "efermi": 2.25824747,
  "is_gap_direct": null,
  "is_metal": null,
  "es_source_calc_id": null,
  "bandstructure": null,
  "dos": null,
  "dos_energy_up": null,
  "dos_energy_down": null,
  "is_magnetic": null,
  "ordering": null,
  "total_magnetization": 0.0,
  "total_magnetization_normalized_vol": null,
  "total_magnetization_normalized_formula_units": null,
  "num_magnetic_sites": null,
  "num_unique_magnetic_sites": null,
  "types_of_magnetic_species": null,
  "bulk_modulus": null,
  "shear_modulus": null,
  "universal_anisotropy": null,
  "homogeneous_poisson": null,
  "e_total": null,
  "e_ionic": null,
  "e_electronic": null,
  "n": null,
  "e_ij_max": null,
  "weighted_surface_energy_EV_PER_ANG2": null,
  "weighted_surface_energy": null,
  "weighted_work_function": null,
  "surface_anisotropy": null,
  "shape_factor": null,
  "has_reconstructed": null,
  "possible_species": null,
  "has_props": null,
  "theoretical": null,
  "database_IDs": null,
  "fields_not_requested": [
    "builder_meta",
    "nsites",
    "elements",
    "nelements",
    "composition",
    "composition_reduced",
    "chemsys",
    "symmetry",
    "property_name",
    "deprecated",
    "deprecation_reasons",
    "last_updated",
    "origins",
    "warnings",
    "task_ids",
    "uncorrected_energy_per_atom",
    "equilibrium_reaction_energy_per_atom",
    "decomposes_to",
    "xas",
    "grain_boundaries",
    "cbm",
    "vbm",
    "is_gap_direct",
    "is_metal",
    "es_source_calc_id",
    "bandstructure",
    "dos",
    "dos_energy_up",
    "dos_energy_down",
    "is_magnetic",
    "ordering",
    "total_magnetization_normalized_vol",
    "total_magnetization_normalized_formula_units",
    "num_magnetic_sites",
    "num_unique_magnetic_sites",
    "types_of_magnetic_species",
    "bulk_modulus",
    "shear_modulus",
    "universal_anisotropy",
    "homogeneous_poisson",
    "e_total",
    "e_ionic",
    "e_electronic",
    "n",
    "e_ij_max",
    "weighted_surface_energy_EV_PER_ANG2",
    "weighted_surface_energy",
    "weighted_work_function",
    "surface_anisotropy",
    "shape_factor",
    "has_reconstructed",
    "possible_species",
    "has_props",
    "theoretical",
    "database_IDs"
  ]
}
