{"builder_meta": null, "nsites": null, "elements": null, "nelements": null, "composition": null, "composition_reduced": null, "formula_pretty": "YCd3", "formula_anonymous": "AB3", "chemsys": null, "volume": 186.22414514441053, "density": 7.59966123267487, "density_atomic": 23.278018143051316, "symmetry": null, "property_name": null, "material_id": "mp-2349", "deprecated": null, "deprecation_reasons": null, "last_updated": null, "origins": null, "warnings": null, "structure": {"@module": "pymatgen.core.structure", "@class": "Structure", "charge": 0, "lattice": {"matrix": [[4.91407773, 0.0, 0.0], [-0.0, 5.88789011, -2.92107812], [0.0, -0.2642199, 6.5673540500000005]], "pbc": [true, true, true], "a": 4.91407773, "b": 6.57266668336213, "c": 6.572666990925938, "alpha": 118.69065772077755, "beta": 90.0, "gamma": 90.0, "volume": 186.22414514441056}, "properties": {}, "sites": [{"species": [{"element": "Y", "occu": 1}], "abc": [0.25, 0.65799567, 0.34200433], "properties": {"magmom": 0.0}, "label": "Y", "xyz": [1.2285194325, 3.783841847943657, 0.3240067670512963]}, {"species": [{"element": "Y", "occu": 1}], "abc": [0.75, 0.34200433, 0.65799567], "properties": {"magmom": 0.0}, "label": "Y", "xyz": [3.6855582975, 1.8398283620563436, 3.3222691629487042]}, {"species": [{"element": "Cd", "occu": 1}], "abc": [0.75, 0.31571504, 0.14852873], "properties": {"magmom": -0.0}, "label": "Cd", "xyz": [3.6855582975, 1.8196512154065274, 0.053212461007931866]}, {"species": [{"element": "Cd", "occu": 1}], "abc": [0.25, 0.68428496, 0.85147127], "properties": {"magmom": -0.0}, "label": "Cd", "xyz": [1.2285194325, 3.804018994593473, 3.593063468992069]}, {"species": [{"element": "Cd", "occu": 1}], "abc": [0.25, 0.14852873, 0.31571504], "properties": {"magmom": -0.0}, "label": "Cd", "xyz": [1.2285194325, 0.7911026441205643, 1.6395484231955244]}, {"species": [{"element": "Cd", "occu": 1}], "abc": [0.75, 0.85147127, 0.68428496], "properties": {"magmom": -0.0}, "label": "Cd", "xyz": [3.6855582975, 4.832567565879436, 2.0067275068044763]}, {"species": [{"element": "Cd", "occu": 1}], "abc": [0.25, 0.16632342, 0.83367658], "properties": {"magmom": 0.0}, "label": "Cd", "xyz": [1.2285194325, 0.7590200770794341, 4.989205561047579]}, {"species": [{"element": "Cd", "occu": 1}], "abc": [0.75, 0.83367658, 0.16632342], "properties": {"magmom": 0.0}, "label": "Cd", "xyz": [3.6855582975, 4.864650132920566, -1.3429296310475785]}]}, "task_ids": null, "uncorrected_energy_per_atom": null, "energy_per_atom": -2.601825641249998, "formation_energy_per_atom": -0.254545123749997, "energy_above_hull": 0.0, "is_stable": true, "equilibrium_reaction_energy_per_atom": null, "decomposes_to": null, "xas": null, "grain_boundaries": null, "band_gap": 0.0, "cbm": null, "vbm": null, "efermi": 3.03844963, "is_gap_direct": null, "is_metal": null, "es_source_calc_id": null, "bandstructure": null, "dos": null, "dos_energy_up": null, "dos_energy_down": null, "is_magnetic": null, "ordering": null, "total_magnetization": 0.0, "total_magnetization_normalized_vol": null, "total_magnetization_normalized_formula_units": null, "num_magnetic_sites": null, "num_unique_magnetic_sites": null, "types_of_magnetic_species": null, "bulk_modulus": null, "shear_modulus": null, "universal_anisotropy": null, "homogeneous_poisson": null, "e_total": null, "e_ionic": null, "e_electronic": null, "n": null, "e_ij_max": null, "weighted_surface_energy_EV_PER_ANG2": null, "weighted_surface_energy": null, "weighted_work_function": null, "surface_anisotropy": null, "shape_factor": null, "has_reconstructed": null, "possible_species": null, "has_props": null, "theoretical": null, "database_IDs": null, "fields_not_requested": ["builder_meta", "nsites", "elements", "nelements", "composition", "composition_reduced", "chemsys", "symmetry", "property_name", "deprecated", "deprecation_reasons", "last_updated", "origins", "warnings", "task_ids", "uncorrected_energy_per_atom", "equilibrium_reaction_energy_per_atom", "decomposes_to", "xas", "grain_boundaries", "cbm", "vbm", "is_gap_direct", "is_metal", "es_source_calc_id", "bandstructure", "dos", "dos_energy_up", "dos_energy_down", "is_magnetic", "ordering", "total_magnetization_normalized_vol", "total_magnetization_normalized_formula_units", "num_magnetic_sites", "num_unique_magnetic_sites", "types_of_magnetic_species", "bulk_modulus", "shear_modulus", "universal_anisotropy", "homogeneous_poisson", "e_total", "e_ionic", "e_electronic", "n", "e_ij_max", "weighted_surface_energy_EV_PER_ANG2", "weighted_surface_energy", "weighted_work_function", "surface_anisotropy", "shape_factor", "has_reconstructed", "possible_species", "has_props", "theoretical", "database_IDs"]}