{
  "builder_meta": null,
  "nsites": null,
  "elements": null,
  "nelements": null,
  "composition": null,
  "composition_reduced": null,
  "formula_pretty": "YCl",
  "formula_anonymous": "AB",
  "chemsys": null,
  "volume": 114.11227938768486,
  "density": 3.6192902255659503,
  "density_atomic": 28.528069846921216,
  "symmetry": null,
  "property_name": null,
  "material_id": "mp-540884",
  "deprecated": null,
  "deprecation_reasons": null,
  "last_updated": null,
  "origins": null,
  "warnings": null,
  "structure": {
    "@module": "pymatgen.core.structure",
    "@class": "Structure",
    "charge": 0,
    "lattice": {
      "matrix": [
        [9.44133083, -1.87408678, -0.00129452],
        [9.44133083, 1.87408678, -0.00129452],
        [9.06977043, 0.0, 3.22338332]
      ],
      "pbc": [true, true, true],
      "a": 9.625535350112287,
      "b": 9.625535350112287,
      "c": 9.625535604866704,
      "alpha": 22.45433794262689,
      "beta": 22.45433794262689,
      "gamma": 22.45433781803834,
      "volume": 114.11227938768486
    },
    "properties": {},
    "sites": [
      {
        "species": [{ "element": "Y", "occu": 1 }],
        "abc": [0.21622693, 0.21622693, 0.21622693],
        "properties": { "magmom": -0.491 },
        "label": "Y",
        "xyz": [6.044068576854183, 0.0, 0.6964224593259604]
      },
      {
        "species": [{ "element": "Y", "occu": 1 }],
        "abc": [0.7837730700000001, 0.7837730700000001, 0.7837730700000001],
        "properties": { "magmom": -0.491 },
        "label": "Y",
        "xyz": [21.90836351314582, 0.0, 2.5243718206740398]
      },
      {
        "species": [{ "element": "Cl", "occu": 1 }],
        "abc": [0.38952443000000003, 0.38952443000000003, 0.38952443000000003],
        "properties": { "magmom": -0.015 },
        "label": "Cl",
        "xyz": [10.88815517697096, 0.0, 1.2545780560642603]
      },
      {
        "species": [{ "element": "Cl", "occu": 1 }],
        "abc": [0.61047557, 0.61047557, 0.61047557],
        "properties": { "magmom": -0.015 },
        "label": "Cl",
        "xyz": [17.06427691302904, 0.0, 1.9662162239357395]
      }
    ]
  },
  "task_ids": null,
  "uncorrected_energy_per_atom": null,
  "energy_per_atom": -14.9397445325,
  "formation_energy_per_atom": -1.7067246037500001,
  "energy_above_hull": 0.037110218333332,
  "is_stable": false,
  "equilibrium_reaction_energy_per_atom": null,
  "decomposes_to": null,
  "xas": null,
  "grain_boundaries": null,
  "band_gap": 0.0,
  "cbm": null,
  "vbm": null,
  "efermi": 3.50020516,
  "is_gap_direct": null,
  "is_metal": null,
  "es_source_calc_id": null,
  "bandstructure": null,
  "dos": null,
  "dos_energy_up": null,
  "dos_energy_down": null,
  "is_magnetic": null,
  "ordering": null,
  "total_magnetization": 1.7137729,
  "total_magnetization_normalized_vol": null,
  "total_magnetization_normalized_formula_units": null,
  "num_magnetic_sites": null,
  "num_unique_magnetic_sites": null,
  "types_of_magnetic_species": null,
  "bulk_modulus": null,
  "shear_modulus": null,
  "universal_anisotropy": null,
  "homogeneous_poisson": null,
  "e_total": null,
  "e_ionic": null,
  "e_electronic": null,
  "n": null,
  "e_ij_max": null,
  "weighted_surface_energy_EV_PER_ANG2": null,
  "weighted_surface_energy": null,
  "weighted_work_function": null,
  "surface_anisotropy": null,
  "shape_factor": null,
  "has_reconstructed": null,
  "possible_species": null,
  "has_props": null,
  "theoretical": null,
  "database_IDs": null,
  "fields_not_requested": [
    "builder_meta",
    "nsites",
    "elements",
    "nelements",
    "composition",
    "composition_reduced",
    "chemsys",
    "symmetry",
    "property_name",
    "deprecated",
    "deprecation_reasons",
    "last_updated",
    "origins",
    "warnings",
    "task_ids",
    "uncorrected_energy_per_atom",
    "equilibrium_reaction_energy_per_atom",
    "decomposes_to",
    "xas",
    "grain_boundaries",
    "cbm",
    "vbm",
    "is_gap_direct",
    "is_metal",
    "es_source_calc_id",
    "bandstructure",
    "dos",
    "dos_energy_up",
    "dos_energy_down",
    "is_magnetic",
    "ordering",
    "total_magnetization_normalized_vol",
    "total_magnetization_normalized_formula_units",
    "num_magnetic_sites",
    "num_unique_magnetic_sites",
    "types_of_magnetic_species",
    "bulk_modulus",
    "shear_modulus",
    "universal_anisotropy",
    "homogeneous_poisson",
    "e_total",
    "e_ionic",
    "e_electronic",
    "n",
    "e_ij_max",
    "weighted_surface_energy_EV_PER_ANG2",
    "weighted_surface_energy",
    "weighted_work_function",
    "surface_anisotropy",
    "shape_factor",
    "has_reconstructed",
    "possible_species",
    "has_props",
    "theoretical",
    "database_IDs"
  ]
}
