{"builder_meta": null, "nsites": null, "elements": null, "nelements": null, "composition": null, "composition_reduced": null, "formula_pretty": "YCl3", "formula_anonymous": "AB3", "chemsys": null, "volume": 255.57664117885483, "density": 2.537359519737013, "density_atomic": 31.947080147356854, "symmetry": null, "property_name": null, "material_id": "mp-27455", "deprecated": null, "deprecation_reasons": null, "last_updated": null, "origins": null, "warnings": null, "structure": {"@module": "pymatgen.core.structure", "@class": "Structure", "charge": 0, "lattice": {"matrix": [[6.48167686, 0.0686258, -1.1462766], [-1.8838155300000001, 5.68824874, -3.44167533], [0.00717408, -0.00549043, 6.91013768]], "pbc": [true, true, true], "a": 6.582613042067159, "b": 6.910142093785871, "c": 6.910143585252134, "alpha": 119.93373655342933, "beta": 99.96943954237977, "gamma": 99.96944832967246, "volume": 255.57664117885483}, "properties": {}, "sites": [{"species": [{"element": "Y", "occu": 1}], "abc": [0.0, 0.16641887, 0.83358213], "properties": {"magmom": -0.0}, "label": "Y", "xyz": [-0.30752226690386075, 0.9420552032557078, 5.1874075665621815]}, {"species": [{"element": "Y", "occu": 1}], "abc": [-0.0, 0.83358213, 0.16641887], "properties": {"magmom": -0.0}, "label": "Y", "xyz": [-1.5691210597375895, 4.740708789502602, -1.7189417480998312]}, {"species": [{"element": "Cl", "occu": 1}], "abc": [0.23767139, 0.9431602800000001, 0.57835387], "properties": {"magmom": 0.0}, "label": "Cl", "xyz": [-0.2320816769644236, 5.378065252165445, 0.4780162487024553]}, {"species": [{"element": "Cl", "occu": 1}], "abc": [0.76232861, 0.42164613, 0.05683972], "properties": {"magmom": 0.0}, "label": "Cl", "xyz": [4.1472719559930225, 2.4504314039186346, -1.932238239871849]}, {"species": [{"element": "Cl", "occu": 1}], "abc": [0.7584569800000001, 0.78974359, 0.78974359], "properties": {"magmom": -0.0}, "label": "Cl", "xyz": [3.4340075007056776, 4.539971665859817, 1.8697944197881688]}, {"species": [{"element": "Cl", "occu": 1}], "abc": [0.24154302, 0.21025641, 0.21025641], "properties": {"magmom": -0.0}, "label": "Cl", "xyz": [1.171027909294323, 1.211412444140183, 0.45239133021183164]}, {"species": [{"element": "Cl", "occu": 1}], "abc": [0.23767139, 0.57835387, 0.9431602800000001], "properties": {"magmom": 0.0}, "label": "Cl", "xyz": [0.4577634540069767, 3.3009527060813655, 4.254423989871849]}, {"species": [{"element": "Cl", "occu": 1}], "abc": [0.76232861, 0.05683972, 0.42164613], "properties": {"magmom": 0.0}, "label": "Cl", "xyz": [4.837117086964423, 0.37331885783455493, 1.8441695012975452]}]}, "task_ids": null, "uncorrected_energy_per_atom": null, "energy_per_atom": -12.22430778625, "formation_energy_per_atom": -2.531578373124999, "energy_above_hull": 0.0, "is_stable": true, "equilibrium_reaction_energy_per_atom": null, "decomposes_to": null, "xas": null, "grain_boundaries": null, "band_gap": 4.9300999999999995, "cbm": null, "vbm": null, "efermi": -2.19460502, "is_gap_direct": null, "is_metal": null, "es_source_calc_id": null, "bandstructure": null, "dos": null, "dos_energy_up": null, "dos_energy_down": null, "is_magnetic": null, "ordering": null, "total_magnetization": 0.0, "total_magnetization_normalized_vol": null, "total_magnetization_normalized_formula_units": null, "num_magnetic_sites": null, "num_unique_magnetic_sites": null, "types_of_magnetic_species": null, "bulk_modulus": null, "shear_modulus": null, "universal_anisotropy": null, "homogeneous_poisson": null, "e_total": null, "e_ionic": null, "e_electronic": null, "n": null, "e_ij_max": null, "weighted_surface_energy_EV_PER_ANG2": null, "weighted_surface_energy": null, "weighted_work_function": null, "surface_anisotropy": null, "shape_factor": null, "has_reconstructed": null, "possible_species": null, "has_props": null, "theoretical": null, "database_IDs": null, "fields_not_requested": ["builder_meta", "nsites", "elements", "nelements", "composition", "composition_reduced", "chemsys", "symmetry", "property_name", "deprecated", "deprecation_reasons", "last_updated", "origins", "warnings", "task_ids", "uncorrected_energy_per_atom", "equilibrium_reaction_energy_per_atom", "decomposes_to", "xas", "grain_boundaries", "cbm", "vbm", "is_gap_direct", "is_metal", "es_source_calc_id", "bandstructure", "dos", "dos_energy_up", "dos_energy_down", "is_magnetic", "ordering", "total_magnetization_normalized_vol", "total_magnetization_normalized_formula_units", "num_magnetic_sites", "num_unique_magnetic_sites", "types_of_magnetic_species", "bulk_modulus", "shear_modulus", "universal_anisotropy", "homogeneous_poisson", "e_total", "e_ionic", "e_electronic", "n", "e_ij_max", "weighted_surface_energy_EV_PER_ANG2", "weighted_surface_energy", "weighted_work_function", "surface_anisotropy", "shape_factor", "has_reconstructed", "possible_species", "has_props", "theoretical", "database_IDs"]}