{"builder_meta": null, "nsites": null, "elements": null, "nelements": null, "composition": null, "composition_reduced": null, "formula_pretty": "YCo", "formula_anonymous": "AB", "chemsys": null, "volume": 91.54622462870505, "density": 5.363247054414503, "density_atomic": 22.886556157176262, "symmetry": null, "property_name": null, "material_id": "mp-865373", "deprecated": null, "deprecation_reasons": null, "last_updated": null, "origins": null, "warnings": null, "structure": {"@module": "pymatgen.core.structure", "@class": "Structure", "charge": 0, "lattice": {"matrix": [[1.9367759, -3.35654394, 0.00027351000000000003], [-3.8752367, -0.00097223, -0.00027124], [1.93609527, -1.11779855, -7.03680964]], "pbc": [true, true, true], "a": 3.875240403223941, "b": 3.8752368314503305, "c": 7.383402224076338, "alpha": 105.19577087083849, "beta": 74.80431413397005, "gamma": 119.97121255638395, "volume": 91.54622462870503}, "properties": {}, "sites": [{"species": [{"element": "Y", "occu": 1}], "abc": [0.91004929, 0.08995271, 0.27054226], "properties": {"magmom": -0.167}, "label": "Y", "xyz": [1.9377690795487643, -3.3571196301157684, -1.9035298743871387]}, {"species": [{"element": "Y", "occu": 1}], "abc": [0.08995071, 0.9100472900000001, 0.72945774], "properties": {"magmom": -0.167}, "label": "Y", "xyz": [-1.9401346095487646, -1.1181950898842312, -5.1332774956128615]}, {"species": [{"element": "Co", "occu": 1}], "abc": [0.3296599, 0.6703411, 0.01101554], "properties": {"magmom": 1.474}, "label": "Co", "xyz": [-1.937925947831464, -1.1194828199731262, -0.0776059161025206]}, {"species": [{"element": "Co", "occu": 1}], "abc": [0.6703401, 0.3296589, 0.98898346], "properties": {"magmom": 1.474}, "label": "Co", "xyz": [1.9355584817361946, -3.355830782228324, -6.95919441708784]}]}, "task_ids": null, "uncorrected_energy_per_atom": null, "energy_per_atom": -6.984594957500001, "formation_energy_per_atom": -0.16334084750000002, "energy_above_hull": 0.0, "is_stable": true, "equilibrium_reaction_energy_per_atom": null, "decomposes_to": null, "xas": null, "grain_boundaries": null, "band_gap": 0.0, "cbm": null, "vbm": null, "efermi": 3.25932252, "is_gap_direct": null, "is_metal": null, "es_source_calc_id": null, "bandstructure": null, "dos": null, "dos_energy_up": null, "dos_energy_down": null, "is_magnetic": null, "ordering": null, "total_magnetization": 2.4054633, "total_magnetization_normalized_vol": null, "total_magnetization_normalized_formula_units": null, "num_magnetic_sites": null, "num_unique_magnetic_sites": null, "types_of_magnetic_species": null, "bulk_modulus": null, "shear_modulus": null, "universal_anisotropy": null, "homogeneous_poisson": null, "e_total": null, "e_ionic": null, "e_electronic": null, "n": null, "e_ij_max": null, "weighted_surface_energy_EV_PER_ANG2": null, "weighted_surface_energy": null, "weighted_work_function": null, "surface_anisotropy": null, "shape_factor": null, "has_reconstructed": null, "possible_species": null, "has_props": null, "theoretical": null, "database_IDs": null, "fields_not_requested": ["builder_meta", "nsites", "elements", "nelements", "composition", "composition_reduced", "chemsys", "symmetry", "property_name", "deprecated", "deprecation_reasons", "last_updated", "origins", "warnings", "task_ids", "uncorrected_energy_per_atom", "equilibrium_reaction_energy_per_atom", "decomposes_to", "xas", "grain_boundaries", "cbm", "vbm", "is_gap_direct", "is_metal", "es_source_calc_id", "bandstructure", "dos", "dos_energy_up", "dos_energy_down", "is_magnetic", "ordering", "total_magnetization_normalized_vol", "total_magnetization_normalized_formula_units", "num_magnetic_sites", "num_unique_magnetic_sites", "types_of_magnetic_species", "bulk_modulus", "shear_modulus", "universal_anisotropy", "homogeneous_poisson", "e_total", "e_ionic", "e_electronic", "n", "e_ij_max", "weighted_surface_energy_EV_PER_ANG2", "weighted_surface_energy", "weighted_work_function", "surface_anisotropy", "shape_factor", "has_reconstructed", "possible_species", "has_props", "theoretical", "database_IDs"]}