{"builder_meta": null, "nsites": null, "elements": null, "nelements": null, "composition": null, "composition_reduced": null, "formula_pretty": "YCo2", "formula_anonymous": "AB2", "chemsys": null, "volume": 92.27270814035273, "density": 7.442143821900807, "density_atomic": 15.378784690058788, "symmetry": null, "property_name": null, "material_id": "mp-1294", "deprecated": null, "deprecation_reasons": null, "last_updated": null, "origins": null, "warnings": null, "structure": {"@module": "pymatgen.core.structure", "@class": "Structure", "charge": 0, "lattice": {"matrix": [[4.39276896, -0.00016814, 2.53638052], [1.46409736, 4.14079243, 2.5363809], [-5.24e-06, -2.91e-06, 5.0727704]], "pbc": [true, true, true], "a": 5.072439778493778, "b": 5.071781846431202, "c": 5.072770400003541, "alpha": 59.99365895040889, "beta": 59.99796406586302, "gamma": 59.99789553773572, "volume": 92.27270814035273}, "properties": {}, "sites": [{"species": [{"element": "Y", "occu": 1}], "abc": [0.87498571, 0.8750095800000001, 0.87500165], "properties": {"magmom": -0.532}, "label": "Y", "xyz": [5.124704698375624, 3.623083378689399, 8.877336766222552]}, {"species": [{"element": "Y", "occu": 1}], "abc": [0.12501442000000001, 0.12499058, 0.12499821], "properties": {"magmom": -0.532}, "label": "Y", "xyz": [0.7321571869406516, 0.5175386638159396, 1.2681950791400043]}, {"species": [{"element": "Co", "occu": 1}], "abc": [0.49999997, 8e-08, 0.49999997], "properties": {"magmom": 1.421}, "label": "Co", "xyz": [2.196381845344877, -8.519373147410001e-05, 3.804575434635944]}, {"species": [{"element": "Co", "occu": 1}], "abc": [1.1e-07, 0.49999988, 0.50000001], "properties": {"magmom": 1.419}, "label": "Co", "xyz": [0.73204636751285, 2.070394263086384, 3.8045756753638535]}, {"species": [{"element": "Co", "occu": 1}], "abc": [0.4999999, 0.49999994000000003, 0.50000002], "properties": {"magmom": 1.419}, "label": "Co", "xyz": [2.928430012877157, 2.07031044156921, 5.072765605634501]}, {"species": [{"element": "Co", "occu": 1}], "abc": [0.49999989, 0.49999994000000003, 1.399999999999999e-07], "properties": {"magmom": 1.419}, "label": "Co", "xyz": [2.928432588948839, 2.0703118965705425, 2.536380989003145]}]}, "task_ids": null, "uncorrected_energy_per_atom": null, "energy_per_atom": -7.071273123333333, "formation_energy_per_atom": -0.14596481, "energy_above_hull": 0.0, "is_stable": true, "equilibrium_reaction_energy_per_atom": null, "decomposes_to": null, "xas": null, "grain_boundaries": null, "band_gap": 0.0, "cbm": null, "vbm": null, "efermi": 4.82123832, "is_gap_direct": null, "is_metal": null, "es_source_calc_id": null, "bandstructure": null, "dos": null, "dos_energy_up": null, "dos_energy_down": null, "is_magnetic": null, "ordering": null, "total_magnetization": 4.0484836, "total_magnetization_normalized_vol": null, "total_magnetization_normalized_formula_units": null, "num_magnetic_sites": null, "num_unique_magnetic_sites": null, "types_of_magnetic_species": null, "bulk_modulus": null, "shear_modulus": null, "universal_anisotropy": null, "homogeneous_poisson": null, "e_total": null, "e_ionic": null, "e_electronic": null, "n": null, "e_ij_max": null, "weighted_surface_energy_EV_PER_ANG2": null, "weighted_surface_energy": null, "weighted_work_function": null, "surface_anisotropy": null, "shape_factor": null, "has_reconstructed": null, "possible_species": null, "has_props": null, "theoretical": null, "database_IDs": null, "fields_not_requested": ["builder_meta", "nsites", "elements", "nelements", "composition", "composition_reduced", "chemsys", "symmetry", "property_name", "deprecated", "deprecation_reasons", "last_updated", "origins", "warnings", "task_ids", "uncorrected_energy_per_atom", "equilibrium_reaction_energy_per_atom", "decomposes_to", "xas", "grain_boundaries", "cbm", "vbm", "is_gap_direct", "is_metal", "es_source_calc_id", "bandstructure", "dos", "dos_energy_up", "dos_energy_down", "is_magnetic", "ordering", "total_magnetization_normalized_vol", "total_magnetization_normalized_formula_units", "num_magnetic_sites", "num_unique_magnetic_sites", "types_of_magnetic_species", "bulk_modulus", "shear_modulus", "universal_anisotropy", "homogeneous_poisson", "e_total", "e_ionic", "e_electronic", "n", "e_ij_max", "weighted_surface_energy_EV_PER_ANG2", "weighted_surface_energy", "weighted_work_function", "surface_anisotropy", "shape_factor", "has_reconstructed", "possible_species", "has_props", "theoretical", "database_IDs"]}