{"builder_meta": null, "nsites": null, "elements": null, "nelements": null, "composition": null, "composition_reduced": null, "formula_pretty": "YCo3", "formula_anonymous": "AB3", "chemsys": null, "volume": 349.6102060780718, "density": 7.572105974393418, "density_atomic": 14.56709191991966, "symmetry": null, "property_name": null, "material_id": "mp-1192425", "deprecated": null, "deprecation_reasons": null, "last_updated": null, "origins": null, "warnings": null, "structure": {"@module": "pymatgen.core.structure", "@class": "Structure", "charge": 0, "lattice": {"matrix": [[2.5056716100000003, -4.33994727, -0.0], [2.50567052, 4.33994621, -0.0], [0.0, -0.0, 16.07480262]], "pbc": [true, true, true], "a": 5.011340391905188, "b": 5.011338928918142, "c": 16.07480262, "alpha": 90.0, "beta": 90.0, "gamma": 119.99996739661043, "volume": 349.6102060780718}, "properties": {}, "sites": [{"species": [{"element": "Y", "occu": 1}], "abc": [0.333333, 0.666667, 0.96249354], "properties": {"magmom": 0.55}, "label": "Y", "xyz": [2.5056708833329697, 1.4466512766311599, 15.471893678525074]}, {"species": [{"element": "Y", "occu": 1}], "abc": [0.666667, 0.333333, 0.03750646], "properties": {"magmom": 0.55}, "label": "Y", "xyz": [2.5056712466670303, -1.4466523366311599, 0.6029089414749251]}, {"species": [{"element": "Y", "occu": 1}], "abc": [0.666667, 0.333333, 0.46249354000000004], "properties": {"magmom": 0.55}, "label": "Y", "xyz": [2.5056712466670303, -1.4466523366311599, 7.434492368525075]}, {"species": [{"element": "Y", "occu": 1}], "abc": [0.333333, 0.666667, 0.53750646], "properties": {"magmom": 0.55}, "label": "Y", "xyz": [2.5056708833329697, 1.4466512766311599, 8.640310251474926]}, {"species": [{"element": "Y", "occu": 1}], "abc": [0.333333999999999, 0.666667, 0.75], "properties": {"magmom": 0.442}, "label": "Y", "xyz": [2.5056733890045777, 1.446646936683894, 12.056101965]}, {"species": [{"element": "Y", "occu": 1}], "abc": [0.666666, 0.333333, 0.25], "properties": {"magmom": 0.442}, "label": "Y", "xyz": [2.5056687409954197, -1.4466479966838899, 4.018700655]}, {"species": [{"element": "Co", "occu": 1}], "abc": [0.16371168, 0.8362873200000001, 0.37129854], "properties": {"magmom": -1.609}, "label": "Co", "xyz": [2.5056681927752114, 2.918941926221944, 5.968550743594175]}, {"species": [{"element": "Co", "occu": 1}], "abc": [0.16371268, 0.32742436, 0.37129854], "properties": {"magmom": -1.609}, "label": "Co", "xyz": [1.2306277808548822, 0.7104997116132922, 5.968550743594175]}, {"species": [{"element": "Co", "occu": 1}], "abc": [0.67257564, 0.8362873200000001, 0.37129854], "properties": {"magmom": -1.609}, "label": "Co", "xyz": [3.780714170699387, 0.7104991722185545, 5.968550743594175]}, {"species": [{"element": "Co", "occu": 1}], "abc": [0.83628832, 0.16371268, 0.62870146], "properties": {"magmom": -1.609}, "label": "Co", "xyz": [2.505673937224789, -2.918942986221943, 10.106251876405826]}, {"species": [{"element": "Co", "occu": 1}], "abc": [0.8362873200000001, 0.67257564, 0.62870146], "properties": {"magmom": -1.609}, "label": "Co", "xyz": [3.7807143491451183, -0.7105007716132921, 10.106251876405826]}, {"species": [{"element": "Co", "occu": 1}], "abc": [0.32742436, 0.16371268, 0.62870146], "properties": {"magmom": -1.609}, "label": "Co", "xyz": [1.2306279593006133, -0.7105002322185544, 10.106251876405826]}, {"species": [{"element": "Co", "occu": 1}], "abc": [0.83628832, 0.16371268, 0.8712985400000001], "properties": {"magmom": -1.609}, "label": "Co", "xyz": [2.505673937224789, -2.918942986221943, 14.005952053594175]}, {"species": [{"element": "Co", "occu": 1}], "abc": [0.8362873200000001, 0.67257564, 0.8712985400000001], "properties": {"magmom": -1.609}, "label": "Co", "xyz": [3.7807143491451183, -0.7105007716132921, 14.005952053594175]}, {"species": [{"element": "Co", "occu": 1}], "abc": [0.32742436, 0.16371268, 0.8712985400000001], "properties": {"magmom": -1.609}, "label": "Co", "xyz": [1.2306279593006133, -0.7105002322185544, 14.005952053594175]}, {"species": [{"element": "Co", "occu": 1}], "abc": [0.16371168, 0.8362873200000001, 0.12870146], "properties": {"magmom": -1.609}, "label": "Co", "xyz": [2.5056681927752114, 2.918941926221944, 2.068850566405825]}, {"species": [{"element": "Co", "occu": 1}], "abc": [0.16371268, 0.32742436, 0.12870146], "properties": {"magmom": -1.609}, "label": "Co", "xyz": [1.2306277808548822, 0.7104997116132922, 2.068850566405825]}, {"species": [{"element": "Co", "occu": 1}], "abc": [0.67257564, 0.8362873200000001, 0.12870146], "properties": {"magmom": -1.609}, "label": "Co", "xyz": [3.780714170699387, 0.7104991722185545, 2.068850566405825]}, {"species": [{"element": "Co", "occu": 1}], "abc": [0.333333, 0.666666, 0.25], "properties": {"magmom": -1.776}, "label": "Co", "xyz": [2.5056683776624498, 1.44664693668495, 4.018700655]}, {"species": [{"element": "Co", "occu": 1}], "abc": [0.666667, 0.333333999999999, 0.75], "properties": {"magmom": -1.776}, "label": "Co", "xyz": [2.5056737523375476, -1.4466479966849541, 12.056101965]}, {"species": [{"element": "Co", "occu": 1}], "abc": [-0.0, 0.999999, 0.25], "properties": {"magmom": -1.8010000000000002}, "label": "Co", "xyz": [2.50566801432948, 4.3399418700537895, 4.018700655]}, {"species": [{"element": "Co", "occu": 1}], "abc": [-0.0, 1e-06, 0.75], "properties": {"magmom": -1.8010000000000002}, "label": "Co", "xyz": [2.5056705199999998e-06, 4.3399462099999994e-06, 12.056101965]}, {"species": [{"element": "Co", "occu": 1}], "abc": [-0.0, -0.0, 0.5], "properties": {"magmom": -1.587}, "label": "Co", "xyz": [0.0, 0.0, 8.03740131]}, {"species": [{"element": "Co", "occu": 1}], "abc": [-0.0, -0.0, -0.0], "properties": {"magmom": -1.587}, "label": "Co", "xyz": [0.0, 0.0, 0.0]}]}, "task_ids": null, "uncorrected_energy_per_atom": null, "energy_per_atom": -7.053841802916668, "formation_energy_per_atom": -0.076506387916667, "energy_above_hull": 0.040712380160255, "is_stable": false, "equilibrium_reaction_energy_per_atom": null, "decomposes_to": null, "xas": null, "grain_boundaries": null, "band_gap": 0.0, "cbm": null, "vbm": null, "efermi": 4.61120628, "is_gap_direct": null, "is_metal": null, "es_source_calc_id": null, "bandstructure": null, "dos": null, "dos_energy_up": null, "dos_energy_down": null, "is_magnetic": null, "ordering": null, "total_magnetization": 24.3630108, "total_magnetization_normalized_vol": null, "total_magnetization_normalized_formula_units": null, "num_magnetic_sites": null, "num_unique_magnetic_sites": null, "types_of_magnetic_species": null, "bulk_modulus": null, "shear_modulus": null, "universal_anisotropy": null, "homogeneous_poisson": null, "e_total": null, "e_ionic": null, "e_electronic": null, "n": null, "e_ij_max": null, "weighted_surface_energy_EV_PER_ANG2": null, "weighted_surface_energy": null, "weighted_work_function": null, "surface_anisotropy": null, "shape_factor": null, "has_reconstructed": null, "possible_species": null, "has_props": null, "theoretical": null, "database_IDs": null, "fields_not_requested": ["builder_meta", "nsites", "elements", "nelements", "composition", "composition_reduced", "chemsys", "symmetry", "property_name", "deprecated", "deprecation_reasons", "last_updated", "origins", "warnings", "task_ids", "uncorrected_energy_per_atom", "equilibrium_reaction_energy_per_atom", "decomposes_to", "xas", "grain_boundaries", "cbm", "vbm", "is_gap_direct", "is_metal", "es_source_calc_id", "bandstructure", "dos", "dos_energy_up", "dos_energy_down", "is_magnetic", "ordering", "total_magnetization_normalized_vol", "total_magnetization_normalized_formula_units", "num_magnetic_sites", "num_unique_magnetic_sites", "types_of_magnetic_species", "bulk_modulus", "shear_modulus", "universal_anisotropy", "homogeneous_poisson", "e_total", "e_ionic", "e_electronic", "n", "e_ij_max", "weighted_surface_energy_EV_PER_ANG2", "weighted_surface_energy", "weighted_work_function", "surface_anisotropy", "shape_factor", "has_reconstructed", "possible_species", "has_props", "theoretical", "database_IDs"]}