{"builder_meta": null, "nsites": null, "elements": null, "nelements": null, "composition": null, "composition_reduced": null, "formula_pretty": "YCu", "formula_anonymous": "AB", "chemsys": null, "volume": 171.58256117752524, "density": 5.901584659026581, "density_atomic": 21.447820147190654, "symmetry": null, "property_name": null, "material_id": "mp-1080443", "deprecated": null, "deprecation_reasons": null, "last_updated": null, "origins": null, "warnings": null, "structure": {"@module": "pymatgen.core.structure", "@class": "Structure", "charge": 0, "lattice": {"matrix": [[0.0, 4.48852607, -0.0], [0.0, 0.0, 5.32645049], [7.17681084, 0.0, 0.0]], "pbc": [true, true, true], "a": 4.48852607, "b": 5.32645049, "c": 7.17681084, "alpha": 90.0, "beta": 90.0, "gamma": 90.0, "volume": 171.58256117752524}, "properties": {}, "sites": [{"species": [{"element": "Y", "occu": 1}], "abc": [0.25, 0.36714234, 0.68206093], "properties": {"magmom": -0.0}, "label": "Y", "xyz": [4.8950222759644815, 1.1221315175, 1.9555654967927467]}, {"species": [{"element": "Y", "occu": 1}], "abc": [0.25, 0.13285766000000002, 0.18206093], "properties": {"magmom": -0.0}, "label": "Y", "xyz": [1.3066168559644813, 1.1221315175, 0.7076597482072535]}, {"species": [{"element": "Y", "occu": 1}], "abc": [0.75, 0.63285766, 0.31793907], "properties": {"magmom": -0.0}, "label": "Y", "xyz": [2.281788564035519, 3.3663945525, 3.3708849932072535]}, {"species": [{"element": "Y", "occu": 1}], "abc": [0.75, 0.86714234, 0.81793907], "properties": {"magmom": -0.0}, "label": "Y", "xyz": [5.870193984035518, 3.3663945525, 4.618790741792747]}, {"species": [{"element": "Cu", "occu": 1}], "abc": [0.25, 0.87705466, 0.53132405], "properties": {"magmom": -0.0}, "label": "Cu", "xyz": [3.813212201592702, 1.1221315175, 4.671588223513783]}, {"species": [{"element": "Cu", "occu": 1}], "abc": [0.25, 0.62294534, 0.03132305], "properties": {"magmom": -0.0}, "label": "Cu", "xyz": [0.22479960478186198, 1.1221315175, 3.3180875114862167]}, {"species": [{"element": "Cu", "occu": 1}], "abc": [0.75, 0.12294534, 0.46867695000000004], "properties": {"magmom": -0.0}, "label": "Cu", "xyz": [3.363605815218138, 3.3663945525, 0.6548622664862166]}, {"species": [{"element": "Cu", "occu": 1}], "abc": [0.75, 0.37705466, 0.9686759500000001], "properties": {"magmom": -0.0}, "label": "Cu", "xyz": [6.952004058407298, 3.3663945525, 2.0083629785137833]}]}, "task_ids": null, "uncorrected_energy_per_atom": null, "energy_per_atom": -15.82610109, "formation_energy_per_atom": -0.24590260999999902, "energy_above_hull": 0.0, "is_stable": true, "equilibrium_reaction_energy_per_atom": null, "decomposes_to": null, "xas": null, "grain_boundaries": null, "band_gap": 0.0, "cbm": null, "vbm": null, "efermi": 4.43681049, "is_gap_direct": null, "is_metal": null, "es_source_calc_id": null, "bandstructure": null, "dos": null, "dos_energy_up": null, "dos_energy_down": null, "is_magnetic": null, "ordering": null, "total_magnetization": 2e-07, "total_magnetization_normalized_vol": null, "total_magnetization_normalized_formula_units": null, "num_magnetic_sites": null, "num_unique_magnetic_sites": null, "types_of_magnetic_species": null, "bulk_modulus": null, "shear_modulus": null, "universal_anisotropy": null, "homogeneous_poisson": null, "e_total": null, "e_ionic": null, "e_electronic": null, "n": null, "e_ij_max": null, "weighted_surface_energy_EV_PER_ANG2": null, "weighted_surface_energy": null, "weighted_work_function": null, "surface_anisotropy": null, "shape_factor": null, "has_reconstructed": null, "possible_species": null, "has_props": null, "theoretical": null, "database_IDs": null, "fields_not_requested": ["builder_meta", "nsites", "elements", "nelements", "composition", "composition_reduced", "chemsys", "symmetry", "property_name", "deprecated", "deprecation_reasons", "last_updated", "origins", "warnings", "task_ids", "uncorrected_energy_per_atom", "equilibrium_reaction_energy_per_atom", "decomposes_to", "xas", "grain_boundaries", "cbm", "vbm", "is_gap_direct", "is_metal", "es_source_calc_id", "bandstructure", "dos", "dos_energy_up", "dos_energy_down", "is_magnetic", "ordering", "total_magnetization_normalized_vol", "total_magnetization_normalized_formula_units", "num_magnetic_sites", "num_unique_magnetic_sites", "types_of_magnetic_species", "bulk_modulus", "shear_modulus", "universal_anisotropy", "homogeneous_poisson", "e_total", "e_ionic", "e_electronic", "n", "e_ij_max", "weighted_surface_energy_EV_PER_ANG2", "weighted_surface_energy", "weighted_work_function", "surface_anisotropy", "shape_factor", "has_reconstructed", "possible_species", "has_props", "theoretical", "database_IDs"]}