{"builder_meta": null, "nsites": null, "elements": null, "nelements": null, "composition": null, "composition_reduced": null, "formula_pretty": "YCu2", "formula_anonymous": "AB2", "chemsys": null, "volume": 105.87729825831418, "density": 6.775255397083037, "density_atomic": 17.6462163763857, "symmetry": null, "property_name": null, "material_id": "mp-2698", "deprecated": null, "deprecation_reasons": null, "last_updated": null, "origins": null, "warnings": null, "structure": {"@module": "pymatgen.core.structure", "@class": "Structure", "charge": 0, "lattice": {"matrix": [[3.94393296, 1e-08, 1.69212438], [1.85395354, 4.96279807, 1.12112393], [0.011648460000000001, 0.01094382, 5.41508635]], "pbc": [true, true, true], "a": 4.291607171021685, "b": 5.415111012573325, "c": 5.415109937182521, "alpha": 77.899686068313, "beta": 66.65529532057063, "gamma": 66.65527531422453, "volume": 105.87729825831418}, "properties": {}, "sites": [{"species": [{"element": "Y", "occu": 1}], "abc": [0.455716399999999, 0.2942836, 0.7942836], "properties": {"magmom": 0.0}, "label": "Y", "xyz": [2.35215523309974, 1.469162583417168, 5.402171497361238]}, {"species": [{"element": "Y", "occu": 1}], "abc": [0.5442836, 0.7057164, 0.2057164], "properties": {"magmom": 0.0}, "label": "Y", "xyz": [3.457379726900256, 3.504579316582832, 2.82616316263876]}, {"species": [{"element": "Cu", "occu": 1}], "abc": [0.8351664400000001, 0.11192317, 0.21774394], "properties": {"magmom": -0.0}, "label": "Cu", "xyz": [3.503877188606717, 0.5578350509013971, 2.7177874759794847]}, {"species": [{"element": "Cu", "occu": 1}], "abc": [0.16483356, 0.88807683, 0.78225606], "properties": {"magmom": -0.0}, "label": "Cu", "xyz": [2.3056577713932835, 4.4159068490986035, 5.510547184020516]}, {"species": [{"element": "Cu", "occu": 1}], "abc": [0.16483356, 0.28225606000000003, 0.38807683], "properties": {"magmom": -0.0}, "label": "Cu", "xyz": [1.1779026292527721, 1.4050268744358305, 2.696832453655979]}, {"species": [{"element": "Cu", "occu": 1}], "abc": [0.8351664400000001, 0.71774394, 0.61192317], "properties": {"magmom": -0.0}, "label": "Cu", "xyz": [4.6316323307472285, 3.568715025564169, 5.531502206344021]}]}, "task_ids": null, "uncorrected_energy_per_atom": null, "energy_per_atom": -14.248907123333334, "formation_energy_per_atom": -0.246509470000001, "energy_above_hull": 0.0, "is_stable": true, "equilibrium_reaction_energy_per_atom": null, "decomposes_to": null, "xas": null, "grain_boundaries": null, "band_gap": 0.0, "cbm": null, "vbm": null, "efermi": 5.14481989, "is_gap_direct": null, "is_metal": null, "es_source_calc_id": null, "bandstructure": null, "dos": null, "dos_energy_up": null, "dos_energy_down": null, "is_magnetic": null, "ordering": null, "total_magnetization": 0.0, "total_magnetization_normalized_vol": null, "total_magnetization_normalized_formula_units": null, "num_magnetic_sites": null, "num_unique_magnetic_sites": null, "types_of_magnetic_species": null, "bulk_modulus": null, "shear_modulus": null, "universal_anisotropy": null, "homogeneous_poisson": null, "e_total": null, "e_ionic": null, "e_electronic": null, "n": null, "e_ij_max": null, "weighted_surface_energy_EV_PER_ANG2": null, "weighted_surface_energy": null, "weighted_work_function": null, "surface_anisotropy": null, "shape_factor": null, "has_reconstructed": null, "possible_species": null, "has_props": null, "theoretical": null, "database_IDs": null, "fields_not_requested": ["builder_meta", "nsites", "elements", "nelements", "composition", "composition_reduced", "chemsys", "symmetry", "property_name", "deprecated", "deprecation_reasons", "last_updated", "origins", "warnings", "task_ids", "uncorrected_energy_per_atom", "equilibrium_reaction_energy_per_atom", "decomposes_to", "xas", "grain_boundaries", "cbm", "vbm", "is_gap_direct", "is_metal", "es_source_calc_id", "bandstructure", "dos", "dos_energy_up", "dos_energy_down", "is_magnetic", "ordering", "total_magnetization_normalized_vol", "total_magnetization_normalized_formula_units", "num_magnetic_sites", "num_unique_magnetic_sites", "types_of_magnetic_species", "bulk_modulus", "shear_modulus", "universal_anisotropy", "homogeneous_poisson", "e_total", "e_ionic", "e_electronic", "n", "e_ij_max", "weighted_surface_energy_EV_PER_ANG2", "weighted_surface_energy", "weighted_work_function", "surface_anisotropy", "shape_factor", "has_reconstructed", "possible_species", "has_props", "theoretical", "database_IDs"]}