{"builder_meta": null, "nsites": null, "elements": null, "nelements": null, "composition": null, "composition_reduced": null, "formula_pretty": "YEr", "formula_anonymous": "AB", "chemsys": null, "volume": 64.8611105899064, "density": 6.558193916909661, "density_atomic": 32.4305552949532, "symmetry": null, "property_name": null, "material_id": "mp-1215904", "deprecated": null, "deprecation_reasons": null, "last_updated": null, "origins": null, "warnings": null, "structure": {"@module": "pymatgen.core.structure", "@class": "Structure", "charge": 0, "lattice": {"matrix": [[1.7994215100000002, -3.11669146, 0.0], [1.7994215100000002, 3.11669146, 0.0], [0.0, 0.0, 5.78266011]], "pbc": [true, true, true], "a": 3.598844735118148, "b": 3.598844735118148, "c": 5.78266011, "alpha": 90.0, "beta": 90.0, "gamma": 120.00003152992213, "volume": 64.86111058990642}, "properties": {}, "sites": [{"species": [{"element": "Y", "occu": 1}], "abc": [7e-08, -7e-08, -0.0], "properties": {"magmom": 0.397}, "label": "Y", "xyz": [0.0, -4.3633680440000004e-07, 0.0]}, {"species": [{"element": "Er", "occu": 1}], "abc": [0.33333293, 0.66666707, 0.5], "properties": {"magmom": 0.494}, "label": "Er", "xyz": [1.7994215100000002, 1.0388996674644444, 2.891330055]}]}, "task_ids": null, "uncorrected_energy_per_atom": null, "energy_per_atom": -27.11722168, "formation_energy_per_atom": 0.0022963833333300003, "energy_above_hull": 0.0022963833333300003, "is_stable": false, "equilibrium_reaction_energy_per_atom": null, "decomposes_to": null, "xas": null, "grain_boundaries": null, "band_gap": 0.0, "cbm": null, "vbm": null, "efermi": 3.08300156, "is_gap_direct": null, "is_metal": null, "es_source_calc_id": null, "bandstructure": null, "dos": null, "dos_energy_up": null, "dos_energy_down": null, "is_magnetic": null, "ordering": null, "total_magnetization": 1.281809, "total_magnetization_normalized_vol": null, "total_magnetization_normalized_formula_units": null, "num_magnetic_sites": null, "num_unique_magnetic_sites": null, "types_of_magnetic_species": null, "bulk_modulus": null, "shear_modulus": null, "universal_anisotropy": null, "homogeneous_poisson": null, "e_total": null, "e_ionic": null, "e_electronic": null, "n": null, "e_ij_max": null, "weighted_surface_energy_EV_PER_ANG2": null, "weighted_surface_energy": null, "weighted_work_function": null, "surface_anisotropy": null, "shape_factor": null, "has_reconstructed": null, "possible_species": null, "has_props": null, "theoretical": null, "database_IDs": null, "fields_not_requested": ["builder_meta", "nsites", "elements", "nelements", "composition", "composition_reduced", "chemsys", "symmetry", "property_name", "deprecated", "deprecation_reasons", "last_updated", "origins", "warnings", "task_ids", "uncorrected_energy_per_atom", "equilibrium_reaction_energy_per_atom", "decomposes_to", "xas", "grain_boundaries", "cbm", "vbm", "is_gap_direct", "is_metal", "es_source_calc_id", "bandstructure", "dos", "dos_energy_up", "dos_energy_down", "is_magnetic", "ordering", "total_magnetization_normalized_vol", "total_magnetization_normalized_formula_units", "num_magnetic_sites", "num_unique_magnetic_sites", "types_of_magnetic_species", "bulk_modulus", "shear_modulus", "universal_anisotropy", "homogeneous_poisson", "e_total", "e_ionic", "e_electronic", "n", "e_ij_max", "weighted_surface_energy_EV_PER_ANG2", "weighted_surface_energy", "weighted_work_function", "surface_anisotropy", "shape_factor", "has_reconstructed", "possible_species", "has_props", "theoretical", "database_IDs"]}