{"builder_meta": null, "nsites": null, "elements": null, "nelements": null, "composition": null, "composition_reduced": null, "formula_pretty": "YEr3", "formula_anonymous": "AB3", "chemsys": null, "volume": 250.84013861409173, "density": 7.820534255920118, "density_atomic": 31.355017326761466, "symmetry": null, "property_name": null, "material_id": "mp-1187847", "deprecated": null, "deprecation_reasons": null, "last_updated": null, "origins": null, "warnings": null, "structure": {"@module": "pymatgen.core.structure", "@class": "Structure", "charge": 0, "lattice": {"matrix": [[7.22076552, -0.00016519, 0.0], [-3.61052443, 6.25324952, 0.0], [0.0, 0.0, 5.55537996]], "pbc": [true, true, true], "a": 7.220765521889532, "b": 7.220735157794326, "c": 5.55537996, "alpha": 90.0, "beta": 90.0, "gamma": 120.00274790726411, "volume": 250.84013861409173}, "properties": {}, "sites": [{"species": [{"element": "Y", "occu": 1}], "abc": [0.33334003, 0.66669584, 0.750000999999999], "properties": {"magmom": -0.0}, "label": "Y", "xyz": [-0.0001514226396057694, 4.168960377026441, 4.166540525379954]}, {"species": [{"element": "Y", "occu": 1}], "abc": [0.6666576200000001, 0.33330455000000003, 0.250001], "properties": {"magmom": -0.0}, "label": "Y", "xyz": [3.610374135736106, 2.0841263921290683, 1.3888505453799598]}, {"species": [{"element": "Er", "occu": 1}], "abc": [0.16558533, 0.33111959, 0.250001], "properties": {"magmom": 0.0}, "label": "Er", "xyz": [0.00013747253523765934, 2.070546064189434, 1.3888505453799598]}, {"species": [{"element": "Er", "occu": 1}], "abc": [0.66887127, 0.8344188300000001, 0.250001], "properties": {"magmom": 0.0}, "label": "Er", "xyz": [1.8170730331675933, 5.21771865733137, 1.3888505453799598]}, {"species": [{"element": "Er", "occu": 1}], "abc": [0.16559155, 0.83443148, 0.250001], "properties": {"magmom": 0.0}, "label": "Er", "xyz": [-1.8170374890577004, 5.217880897714744, 1.3888505453799598]}, {"species": [{"element": "Er", "occu": 1}], "abc": [0.83440788, 0.66886743, 0.750000999999999], "properties": {"magmom": 0.0}, "label": "Er", "xyz": [3.6101014530739826, 4.182457099753436, 4.166540525379954]}, {"species": [{"element": "Er", "occu": 1}], "abc": [0.33114216, 0.16558836, 0.750000999999999], "properties": {"magmom": 0.0}, "label": "Er", "xyz": [1.7932390720426883, 1.0354106313141767, 4.166540525379954]}, {"species": [{"element": "Er", "occu": 1}], "abc": [0.83440316, 0.16556991000000001, 0.750000999999999], "properties": {"magmom": 0.0}, "label": "Er", "xyz": [5.427235362579141, 1.035212125175943, 4.166540525379954]}]}, "task_ids": null, "uncorrected_energy_per_atom": null, "energy_per_atom": -30.49784819, "formation_energy_per_atom": 0.024628425000003003, "energy_above_hull": 0.024628425000003003, "is_stable": false, "equilibrium_reaction_energy_per_atom": null, "decomposes_to": null, "xas": null, "grain_boundaries": null, "band_gap": 0.0, "cbm": null, "vbm": null, "efermi": 2.97083488, "is_gap_direct": null, "is_metal": null, "es_source_calc_id": null, "bandstructure": null, "dos": null, "dos_energy_up": null, "dos_energy_down": null, "is_magnetic": null, "ordering": null, "total_magnetization": 1.27e-05, "total_magnetization_normalized_vol": null, "total_magnetization_normalized_formula_units": null, "num_magnetic_sites": null, "num_unique_magnetic_sites": null, "types_of_magnetic_species": null, "bulk_modulus": null, "shear_modulus": null, "universal_anisotropy": null, "homogeneous_poisson": null, "e_total": null, "e_ionic": null, "e_electronic": null, "n": null, "e_ij_max": null, "weighted_surface_energy_EV_PER_ANG2": null, "weighted_surface_energy": null, "weighted_work_function": null, "surface_anisotropy": null, "shape_factor": null, "has_reconstructed": null, "possible_species": null, "has_props": null, "theoretical": null, "database_IDs": null, "fields_not_requested": ["builder_meta", "nsites", "elements", "nelements", "composition", "composition_reduced", "chemsys", "symmetry", "property_name", "deprecated", "deprecation_reasons", "last_updated", "origins", "warnings", "task_ids", "uncorrected_energy_per_atom", "equilibrium_reaction_energy_per_atom", "decomposes_to", "xas", "grain_boundaries", "cbm", "vbm", "is_gap_direct", "is_metal", "es_source_calc_id", "bandstructure", "dos", "dos_energy_up", "dos_energy_down", "is_magnetic", "ordering", "total_magnetization_normalized_vol", "total_magnetization_normalized_formula_units", "num_magnetic_sites", "num_unique_magnetic_sites", "types_of_magnetic_species", "bulk_modulus", "shear_modulus", "universal_anisotropy", "homogeneous_poisson", "e_total", "e_ionic", "e_electronic", "n", "e_ij_max", "weighted_surface_energy_EV_PER_ANG2", "weighted_surface_energy", "weighted_work_function", "surface_anisotropy", "shape_factor", "has_reconstructed", "possible_species", "has_props", "theoretical", "database_IDs"]}