{
  "builder_meta": null,
  "nsites": null,
  "elements": null,
  "nelements": null,
  "composition": null,
  "composition_reduced": null,
  "formula_pretty": "YF3",
  "formula_anonymous": "AB3",
  "chemsys": null,
  "volume": 190.7605990090638,
  "density": 5.080177155715966,
  "density_atomic": 11.922537438066488,
  "symmetry": null,
  "property_name": null,
  "material_id": "mp-2416",
  "deprecated": null,
  "deprecation_reasons": null,
  "last_updated": null,
  "origins": null,
  "warnings": null,
  "structure": {
    "@module": "pymatgen.core.structure",
    "@class": "Structure",
    "charge": 0,
    "lattice": {
      "matrix": [
        [4.35539975, 0.0, 0.0],
        [0.0, 6.38818413, 0.0],
        [0.0, 0.0, 6.85619609]
      ],
      "pbc": [true, true, true],
      "a": 4.35539975,
      "b": 6.38818413,
      "c": 6.85619609,
      "alpha": 90.0,
      "beta": 90.0,
      "gamma": 90.0,
      "volume": 190.7605990090638
    },
    "properties": {},
    "sites": [
      {
        "species": [{ "element": "Y", "occu": 1 }],
        "abc": [0.93669724, 0.63082763, 0.75],
        "properties": { "magmom": -0.0 },
        "label": "Y",
        "xyz": [4.07969092492169, 4.029843054731511, 5.1421470675]
      },
      {
        "species": [{ "element": "Y", "occu": 1 }],
        "abc": [0.43669724, 0.86917237, 0.25],
        "properties": { "magmom": -0.0 },
        "label": "Y",
        "xyz": [1.90199104992169, 5.552433140268488, 1.7140490225]
      },
      {
        "species": [{ "element": "Y", "occu": 1 }],
        "abc": [0.56330276, 0.13082763, 0.75],
        "properties": { "magmom": -0.0 },
        "label": "Y",
        "xyz": [2.45340870007831, 0.8357509897315119, 5.1421470675]
      },
      {
        "species": [{ "element": "Y", "occu": 1 }],
        "abc": [0.06330276, 0.36917237, 0.25],
        "properties": { "magmom": -0.0 },
        "label": "Y",
        "xyz": [0.27570882507831, 2.358341075268488, 1.7140490225]
      },
      {
        "species": [{ "element": "F", "occu": 1 }],
        "abc": [0.38135667, 0.16554485, 0.43706078],
        "properties": { "magmom": 0.0 },
        "label": "F",
        "xyz": [1.6609607451788326, 1.0575309835732305, 2.9965744109283503]
      },
      {
        "species": [{ "element": "F", "occu": 1 }],
        "abc": [0.8813566700000001, 0.33445515000000003, 0.56293922],
        "properties": { "magmom": 0.0 },
        "label": "F",
        "xyz": [3.8386606201788327, 2.1365610814267697, 3.8596216790716498]
      },
      {
        "species": [{ "element": "F", "occu": 1 }],
        "abc": [0.11864333, 0.66554485, 0.06293922],
        "properties": { "magmom": 0.0 },
        "label": "F",
        "xyz": [0.5167391298211675, 4.25162304857323, 0.43152363407164984]
      },
      {
        "species": [{ "element": "F", "occu": 1 }],
        "abc": [0.61864333, 0.83445515, 0.93706078],
        "properties": { "magmom": 0.0 },
        "label": "F",
        "xyz": [2.694439004821168, 5.33065314642677, 6.42467245592835]
      },
      {
        "species": [{ "element": "F", "occu": 1 }],
        "abc": [0.58597858, 0.5218338100000001, 0.25],
        "properties": { "magmom": -0.0 },
        "label": "F",
        "xyz": [2.5521709608373553, 3.3335704635394356, 1.7140490225]
      },
      {
        "species": [{ "element": "F", "occu": 1 }],
        "abc": [0.08597858, 0.97816619, 0.75],
        "properties": { "magmom": -0.0 },
        "label": "F",
        "xyz": [0.374471085837355, 6.248705731460565, 5.1421470675]
      },
      {
        "species": [{ "element": "F", "occu": 1 }],
        "abc": [0.91402142, 0.021833810000000002, 0.25],
        "properties": { "magmom": -0.0 },
        "label": "F",
        "xyz": [3.980928664162645, 0.1394783985394353, 1.7140490225]
      },
      {
        "species": [{ "element": "F", "occu": 1 }],
        "abc": [0.41402142000000003, 0.47816619, 0.75],
        "properties": { "magmom": -0.0 },
        "label": "F",
        "xyz": [1.8032287891626453, 3.0546136664605648, 5.1421470675]
      },
      {
        "species": [{ "element": "F", "occu": 1 }],
        "abc": [0.38135667, 0.16554485, 0.06293922],
        "properties": { "magmom": 0.0 },
        "label": "F",
        "xyz": [1.6609607451788326, 1.0575309835732305, 0.43152363407164984]
      },
      {
        "species": [{ "element": "F", "occu": 1 }],
        "abc": [0.8813566700000001, 0.33445515000000003, 0.93706078],
        "properties": { "magmom": 0.0 },
        "label": "F",
        "xyz": [3.8386606201788327, 2.1365610814267697, 6.42467245592835]
      },
      {
        "species": [{ "element": "F", "occu": 1 }],
        "abc": [0.11864333, 0.66554485, 0.43706078],
        "properties": { "magmom": 0.0 },
        "label": "F",
        "xyz": [0.5167391298211675, 4.25162304857323, 2.9965744109283503]
      },
      {
        "species": [{ "element": "F", "occu": 1 }],
        "abc": [0.61864333, 0.83445515, 0.56293922],
        "properties": { "magmom": 0.0 },
        "label": "F",
        "xyz": [2.694439004821168, 5.33065314642677, 3.8596216790716498]
      }
    ]
  },
  "task_ids": null,
  "uncorrected_energy_per_atom": null,
  "energy_per_atom": -11.891955226875,
  "formation_energy_per_atom": -4.469034024375,
  "energy_above_hull": 0.0,
  "is_stable": true,
  "equilibrium_reaction_energy_per_atom": null,
  "decomposes_to": null,
  "xas": null,
  "grain_boundaries": null,
  "band_gap": 7.545699999999999,
  "cbm": null,
  "vbm": null,
  "efermi": -0.54209744,
  "is_gap_direct": null,
  "is_metal": null,
  "es_source_calc_id": null,
  "bandstructure": null,
  "dos": null,
  "dos_energy_up": null,
  "dos_energy_down": null,
  "is_magnetic": null,
  "ordering": null,
  "total_magnetization": 0.0,
  "total_magnetization_normalized_vol": null,
  "total_magnetization_normalized_formula_units": null,
  "num_magnetic_sites": null,
  "num_unique_magnetic_sites": null,
  "types_of_magnetic_species": null,
  "bulk_modulus": null,
  "shear_modulus": null,
  "universal_anisotropy": null,
  "homogeneous_poisson": null,
  "e_total": null,
  "e_ionic": null,
  "e_electronic": null,
  "n": null,
  "e_ij_max": null,
  "weighted_surface_energy_EV_PER_ANG2": null,
  "weighted_surface_energy": null,
  "weighted_work_function": null,
  "surface_anisotropy": null,
  "shape_factor": null,
  "has_reconstructed": null,
  "possible_species": null,
  "has_props": null,
  "theoretical": null,
  "database_IDs": null,
  "fields_not_requested": [
    "builder_meta",
    "nsites",
    "elements",
    "nelements",
    "composition",
    "composition_reduced",
    "chemsys",
    "symmetry",
    "property_name",
    "deprecated",
    "deprecation_reasons",
    "last_updated",
    "origins",
    "warnings",
    "task_ids",
    "uncorrected_energy_per_atom",
    "equilibrium_reaction_energy_per_atom",
    "decomposes_to",
    "xas",
    "grain_boundaries",
    "cbm",
    "vbm",
    "is_gap_direct",
    "is_metal",
    "es_source_calc_id",
    "bandstructure",
    "dos",
    "dos_energy_up",
    "dos_energy_down",
    "is_magnetic",
    "ordering",
    "total_magnetization_normalized_vol",
    "total_magnetization_normalized_formula_units",
    "num_magnetic_sites",
    "num_unique_magnetic_sites",
    "types_of_magnetic_species",
    "bulk_modulus",
    "shear_modulus",
    "universal_anisotropy",
    "homogeneous_poisson",
    "e_total",
    "e_ionic",
    "e_electronic",
    "n",
    "e_ij_max",
    "weighted_surface_energy_EV_PER_ANG2",
    "weighted_surface_energy",
    "weighted_work_function",
    "surface_anisotropy",
    "shape_factor",
    "has_reconstructed",
    "possible_species",
    "has_props",
    "theoretical",
    "database_IDs"
  ]
}
