{"builder_meta": null, "nsites": null, "elements": null, "nelements": null, "composition": null, "composition_reduced": null, "formula_pretty": "YFe2", "formula_anonymous": "AB2", "chemsys": null, "volume": 99.23308172215656, "density": 6.713431443265564, "density_atomic": 16.538846953692758, "symmetry": null, "property_name": null, "material_id": "mp-1570", "deprecated": null, "deprecation_reasons": null, "last_updated": null, "origins": null, "warnings": null, "structure": {"@module": "pymatgen.core.structure", "@class": "Structure", "charge": 0, "lattice": {"matrix": [[4.50042429, -7.339999999999997e-06, 2.59823708], [1.50013431, 4.24318702, 2.59823716], [-8.15e-06, -6.099999999999997e-06, 5.19648877]], "pbc": [true, true, true], "a": 5.196600303464065, "b": 5.196717750113097, "c": 5.196488770009972, "alpha": 60.001642907631584, "beta": 60.0008928424785, "gamma": 60.001437195016386, "volume": 99.23308172215656}, "properties": {}, "sites": [{"species": [{"element": "Y", "occu": 1}], "abc": [0.87499874, 0.8749955500000001, 0.87500533], "properties": {"magmom": -0.864}, "label": "Y", "xyz": [5.250469297574276, 3.7127580002944964, 9.093855495101062]}, {"species": [{"element": "Y", "occu": 1}], "abc": [0.12500126, 0.12500445, 0.12499467], "properties": {"magmom": -0.864}, "label": "Y", "xyz": [0.7500811524257244, 0.5304155797055036, 1.2991075148989388]}, {"species": [{"element": "Fe", "occu": 1}], "abc": [0.5, -0.0, 0.5], "properties": {"magmom": 2.531}, "label": "Fe", "xyz": [2.25020807, -6.719999999999997e-06, 3.8973629250000004]}, {"species": [{"element": "Fe", "occu": 1}], "abc": [0.0, 0.5, 0.5], "properties": {"magmom": 2.531}, "label": "Fe", "xyz": [0.75006308, 2.1215904599999997, 3.897362965]}, {"species": [{"element": "Fe", "occu": 1}], "abc": [0.5, 0.5, 0.5], "properties": {"magmom": 2.531}, "label": "Fe", "xyz": [3.0002752249999998, 2.12158679, 5.196481505]}, {"species": [{"element": "Fe", "occu": 1}], "abc": [0.5, 0.5, 0.0], "properties": {"magmom": 2.531}, "label": "Fe", "xyz": [3.0002793, 2.12158984, 2.5982371200000003]}]}, "task_ids": null, "uncorrected_energy_per_atom": null, "energy_per_atom": -7.864609063333333, "formation_energy_per_atom": -0.048231089999999005, "energy_above_hull": 0.0, "is_stable": true, "equilibrium_reaction_energy_per_atom": null, "decomposes_to": null, "xas": null, "grain_boundaries": null, "band_gap": 0.0, "cbm": null, "vbm": null, "efermi": 4.55327018, "is_gap_direct": null, "is_metal": null, "es_source_calc_id": null, "bandstructure": null, "dos": null, "dos_energy_up": null, "dos_energy_down": null, "is_magnetic": null, "ordering": null, "total_magnetization": 7.3275001, "total_magnetization_normalized_vol": null, "total_magnetization_normalized_formula_units": null, "num_magnetic_sites": null, "num_unique_magnetic_sites": null, "types_of_magnetic_species": null, "bulk_modulus": null, "shear_modulus": null, "universal_anisotropy": null, "homogeneous_poisson": null, "e_total": null, "e_ionic": null, "e_electronic": null, "n": null, "e_ij_max": null, "weighted_surface_energy_EV_PER_ANG2": null, "weighted_surface_energy": null, "weighted_work_function": null, "surface_anisotropy": null, "shape_factor": null, "has_reconstructed": null, "possible_species": null, "has_props": null, "theoretical": null, "database_IDs": null, "fields_not_requested": ["builder_meta", "nsites", "elements", "nelements", "composition", "composition_reduced", "chemsys", "symmetry", "property_name", "deprecated", "deprecation_reasons", "last_updated", "origins", "warnings", "task_ids", "uncorrected_energy_per_atom", "equilibrium_reaction_energy_per_atom", "decomposes_to", "xas", "grain_boundaries", "cbm", "vbm", "is_gap_direct", "is_metal", "es_source_calc_id", "bandstructure", "dos", "dos_energy_up", "dos_energy_down", "is_magnetic", "ordering", "total_magnetization_normalized_vol", "total_magnetization_normalized_formula_units", "num_magnetic_sites", "num_unique_magnetic_sites", "types_of_magnetic_species", "bulk_modulus", "shear_modulus", "universal_anisotropy", "homogeneous_poisson", "e_total", "e_ionic", "e_electronic", "n", "e_ij_max", "weighted_surface_energy_EV_PER_ANG2", "weighted_surface_energy", "weighted_work_function", "surface_anisotropy", "shape_factor", "has_reconstructed", "possible_species", "has_props", "theoretical", "database_IDs"]}