{
  "builder_meta": null,
  "nsites": null,
  "elements": null,
  "nelements": null,
  "composition": null,
  "composition_reduced": null,
  "formula_pretty": "YFe3",
  "formula_anonymous": "AB3",
  "chemsys": null,
  "volume": 185.94496937970825,
  "density": 6.870259267313855,
  "density_atomic": 15.495414114975688,
  "symmetry": null,
  "property_name": null,
  "material_id": "mp-1102392",
  "deprecated": null,
  "deprecation_reasons": null,
  "last_updated": null,
  "origins": null,
  "warnings": null,
  "structure": {
    "@module": "pymatgen.core.structure",
    "@class": "Structure",
    "charge": 0,
    "lattice": {
      "matrix": [
        [-2.573468, -4.457376, 0.0],
        [2.573468, -4.457376, 0.0],
        [0.0, -2.971585, 8.105063]
      ],
      "pbc": [true, true, true],
      "a": 5.146934850219109,
      "b": 5.146934850219109,
      "c": 8.632633644849873,
      "alpha": 72.65592460021662,
      "beta": 72.65592460021662,
      "gamma": 60.000014779455455,
      "volume": 185.94496937970825
    },
    "properties": {},
    "sites": [
      {
        "species": [{ "element": "Y", "occu": 1 }],
        "abc": [0.14198000000000002, 0.14198000000000002, 0.574059],
        "properties": { "magmom": -0.431 },
        "label": "Y",
        "xyz": [0.0, -2.971581602475, 4.652784360717]
      },
      {
        "species": [{ "element": "Y", "occu": 1 }],
        "abc": [0.8580200000000001, 0.8580200000000001, 0.425940999999999],
        "properties": { "magmom": -0.431 },
        "label": "Y",
        "xyz": [0.0, -8.914755397525, 3.4522786392829916]
      },
      {
        "species": [{ "element": "Y", "occu": 1 }],
        "abc": [0.0, 0.0, 0.0],
        "properties": { "magmom": -0.318 },
        "label": "Y",
        "xyz": [0.0, 0.0, 0.0]
      },
      {
        "species": [{ "element": "Fe", "occu": 1 }],
        "abc": [0.082314, 0.580249, 0.757186999999999],
        "properties": { "magmom": 2.227 },
        "label": "Fe",
        "xyz": [1.28141978858, -5.203337946082998, 6.137048337780992]
      },
      {
        "species": [{ "element": "Fe", "occu": 1 }],
        "abc": [0.580249, 0.580249, 0.757186999999999],
        "properties": { "magmom": 2.227 },
        "label": "Fe",
        "xyz": [0.0, -7.422821464642998, 6.137048337780992]
      },
      {
        "species": [{ "element": "Fe", "occu": 1 }],
        "abc": [0.580249, 0.082314, 0.757186999999999],
        "properties": { "magmom": 2.227 },
        "label": "Fe",
        "xyz": [-1.28141978858, -5.203337946082998, 6.137048337780992]
      },
      {
        "species": [{ "element": "Fe", "occu": 1 }],
        "abc": [0.917686, 0.419751, 0.242813],
        "properties": { "magmom": 2.226 },
        "label": "Fe",
        "xyz": [-1.28141978858, -6.682999053916999, 1.9680146622189998]
      },
      {
        "species": [{ "element": "Fe", "occu": 1 }],
        "abc": [0.419751, 0.419751, 0.242813],
        "properties": { "magmom": 2.226 },
        "label": "Fe",
        "xyz": [0.0, -4.463515535357, 1.9680146622189998]
      },
      {
        "species": [{ "element": "Fe", "occu": 1 }],
        "abc": [0.419751, 0.917686, 0.242813],
        "properties": { "magmom": 2.226 },
        "label": "Fe",
        "xyz": [1.28141978858, -6.682999053916999, 1.9680146622189998]
      },
      {
        "species": [{ "element": "Fe", "occu": 1 }],
        "abc": [0.332595, 0.332595, 0.002215],
        "properties": { "magmom": 2.343 },
        "label": "Fe",
        "xyz": [0.0, -2.9715840022149997, 0.017952714544999998]
      },
      {
        "species": [{ "element": "Fe", "occu": 1 }],
        "abc": [0.667404999999999, 0.667404999999999, 0.997784999999999],
        "properties": { "magmom": 2.343 },
        "label": "Fe",
        "xyz": [0.0, -8.914752997784989, 8.087110285454992]
      },
      {
        "species": [{ "element": "Fe", "occu": 1 }],
        "abc": [0.5, 0.5, 0.5],
        "properties": { "magmom": 2.006 },
        "label": "Fe",
        "xyz": [0.0, -5.9431685000000005, 4.0525315]
      }
    ]
  },
  "task_ids": null,
  "uncorrected_energy_per_atom": null,
  "energy_per_atom": -8.030099325,
  "formation_energy_per_atom": -0.050310542499998,
  "energy_above_hull": 0.0,
  "is_stable": true,
  "equilibrium_reaction_energy_per_atom": null,
  "decomposes_to": null,
  "xas": null,
  "grain_boundaries": null,
  "band_gap": 0.0,
  "cbm": null,
  "vbm": null,
  "efermi": 4.39679134,
  "is_gap_direct": null,
  "is_metal": null,
  "es_source_calc_id": null,
  "bandstructure": null,
  "dos": null,
  "dos_energy_up": null,
  "dos_energy_down": null,
  "is_magnetic": null,
  "ordering": null,
  "total_magnetization": 17.919021,
  "total_magnetization_normalized_vol": null,
  "total_magnetization_normalized_formula_units": null,
  "num_magnetic_sites": null,
  "num_unique_magnetic_sites": null,
  "types_of_magnetic_species": null,
  "bulk_modulus": null,
  "shear_modulus": null,
  "universal_anisotropy": null,
  "homogeneous_poisson": null,
  "e_total": null,
  "e_ionic": null,
  "e_electronic": null,
  "n": null,
  "e_ij_max": null,
  "weighted_surface_energy_EV_PER_ANG2": null,
  "weighted_surface_energy": null,
  "weighted_work_function": null,
  "surface_anisotropy": null,
  "shape_factor": null,
  "has_reconstructed": null,
  "possible_species": null,
  "has_props": null,
  "theoretical": null,
  "database_IDs": null,
  "fields_not_requested": [
    "builder_meta",
    "nsites",
    "elements",
    "nelements",
    "composition",
    "composition_reduced",
    "chemsys",
    "symmetry",
    "property_name",
    "deprecated",
    "deprecation_reasons",
    "last_updated",
    "origins",
    "warnings",
    "task_ids",
    "uncorrected_energy_per_atom",
    "equilibrium_reaction_energy_per_atom",
    "decomposes_to",
    "xas",
    "grain_boundaries",
    "cbm",
    "vbm",
    "is_gap_direct",
    "is_metal",
    "es_source_calc_id",
    "bandstructure",
    "dos",
    "dos_energy_up",
    "dos_energy_down",
    "is_magnetic",
    "ordering",
    "total_magnetization_normalized_vol",
    "total_magnetization_normalized_formula_units",
    "num_magnetic_sites",
    "num_unique_magnetic_sites",
    "types_of_magnetic_species",
    "bulk_modulus",
    "shear_modulus",
    "universal_anisotropy",
    "homogeneous_poisson",
    "e_total",
    "e_ionic",
    "e_electronic",
    "n",
    "e_ij_max",
    "weighted_surface_energy_EV_PER_ANG2",
    "weighted_surface_energy",
    "weighted_work_function",
    "surface_anisotropy",
    "shape_factor",
    "has_reconstructed",
    "possible_species",
    "has_props",
    "theoretical",
    "database_IDs"
  ]
}
