{
  "builder_meta": null,
  "nsites": null,
  "elements": null,
  "nelements": null,
  "composition": null,
  "composition_reduced": null,
  "formula_pretty": "YGa6",
  "formula_anonymous": "AB6",
  "chemsys": null,
  "volume": 263.6675960364408,
  "density": 6.3890917342848494,
  "density_atomic": 18.83339971688863,
  "symmetry": null,
  "property_name": null,
  "material_id": "mp-30681",
  "deprecated": null,
  "deprecation_reasons": null,
  "last_updated": null,
  "origins": null,
  "warnings": null,
  "structure": {
    "@module": "pymatgen.core.structure",
    "@class": "Structure",
    "charge": 0,
    "lattice": {
      "matrix": [
        [5.92390433, -0.0, 0.0],
        [0.0, 5.92390433, 0.0],
        [0.0, -0.0, 7.51347226]
      ],
      "pbc": [true, true, true],
      "a": 5.92390433,
      "b": 5.92390433,
      "c": 7.51347226,
      "alpha": 90.0,
      "beta": 90.0,
      "gamma": 90.0,
      "volume": 263.6675960364408
    },
    "properties": {},
    "sites": [
      {
        "species": [{ "element": "Y", "occu": 1 }],
        "abc": [0.25, 0.75, 0.0],
        "properties": { "magmom": -0.0 },
        "label": "Y",
        "xyz": [1.4809760825, 4.4429282475, 0.0]
      },
      {
        "species": [{ "element": "Y", "occu": 1 }],
        "abc": [0.75, 0.25, 0.0],
        "properties": { "magmom": -0.0 },
        "label": "Y",
        "xyz": [4.4429282475, 1.4809760825, 0.0]
      },
      {
        "species": [{ "element": "Ga", "occu": 1 }],
        "abc": [0.25, 0.25, 0.16126064],
        "properties": { "magmom": 0.0 },
        "label": "Ga",
        "xyz": [1.4809760825, 1.4809760825, 1.2116273452698465]
      },
      {
        "species": [{ "element": "Ga", "occu": 1 }],
        "abc": [0.25, 0.25, 0.83873936],
        "properties": { "magmom": 0.0 },
        "label": "Ga",
        "xyz": [1.4809760825, 1.4809760825, 6.301844914730154]
      },
      {
        "species": [{ "element": "Ga", "occu": 1 }],
        "abc": [0.75, 0.75, 0.83873936],
        "properties": { "magmom": 0.0 },
        "label": "Ga",
        "xyz": [4.4429282475, 4.4429282475, 6.301844914730154]
      },
      {
        "species": [{ "element": "Ga", "occu": 1 }],
        "abc": [0.75, 0.75, 0.16126064],
        "properties": { "magmom": 0.0 },
        "label": "Ga",
        "xyz": [4.4429282475, 4.4429282475, 1.2116273452698465]
      },
      {
        "species": [{ "element": "Ga", "occu": 1 }],
        "abc": [0.935496799999999, 0.435496799999999, 0.34977762],
        "properties": { "magmom": -0.0 },
        "label": "Ga",
        "xyz": [5.541793544221139, 2.579841379221138, 2.6280444450388214]
      },
      {
        "species": [{ "element": "Ga", "occu": 1 }],
        "abc": [0.0645032, 0.935496799999999, 0.34977762],
        "properties": { "magmom": -0.0 },
        "label": "Ga",
        "xyz": [0.382110785778856, 5.541793544221139, 2.6280444450388214]
      },
      {
        "species": [{ "element": "Ga", "occu": 1 }],
        "abc": [0.435496799999999, 0.5645032, 0.34977762],
        "properties": { "magmom": -0.0 },
        "label": "Ga",
        "xyz": [2.579841379221138, 3.3440629507788557, 2.6280444450388214]
      },
      {
        "species": [{ "element": "Ga", "occu": 1 }],
        "abc": [0.935496799999999, 0.0645032, 0.65022238],
        "properties": { "magmom": -0.0 },
        "label": "Ga",
        "xyz": [5.541793544221139, 0.382110785778856, 4.8854278149611785]
      },
      {
        "species": [{ "element": "Ga", "occu": 1 }],
        "abc": [0.5645032, 0.435496799999999, 0.65022238],
        "properties": { "magmom": -0.0 },
        "label": "Ga",
        "xyz": [3.3440629507788557, 2.579841379221138, 4.8854278149611785]
      },
      {
        "species": [{ "element": "Ga", "occu": 1 }],
        "abc": [0.5645032, 0.0645032, 0.34977762],
        "properties": { "magmom": -0.0 },
        "label": "Ga",
        "xyz": [3.3440629507788557, 0.382110785778856, 2.6280444450388214]
      },
      {
        "species": [{ "element": "Ga", "occu": 1 }],
        "abc": [0.435496799999999, 0.935496799999999, 0.65022238],
        "properties": { "magmom": -0.0 },
        "label": "Ga",
        "xyz": [2.579841379221138, 5.541793544221139, 4.8854278149611785]
      },
      {
        "species": [{ "element": "Ga", "occu": 1 }],
        "abc": [0.0645032, 0.5645032, 0.65022238],
        "properties": { "magmom": -0.0 },
        "label": "Ga",
        "xyz": [0.382110785778856, 3.3440629507788557, 4.8854278149611785]
      }
    ]
  },
  "task_ids": null,
  "uncorrected_energy_per_atom": null,
  "energy_per_atom": -3.82979286,
  "formation_energy_per_atom": -0.304411769285714,
  "energy_above_hull": 0.025145816071428,
  "is_stable": false,
  "equilibrium_reaction_energy_per_atom": null,
  "decomposes_to": null,
  "xas": null,
  "grain_boundaries": null,
  "band_gap": 0.0,
  "cbm": null,
  "vbm": null,
  "efermi": 3.8947148400000002,
  "is_gap_direct": null,
  "is_metal": null,
  "es_source_calc_id": null,
  "bandstructure": null,
  "dos": null,
  "dos_energy_up": null,
  "dos_energy_down": null,
  "is_magnetic": null,
  "ordering": null,
  "total_magnetization": 0.0,
  "total_magnetization_normalized_vol": null,
  "total_magnetization_normalized_formula_units": null,
  "num_magnetic_sites": null,
  "num_unique_magnetic_sites": null,
  "types_of_magnetic_species": null,
  "bulk_modulus": null,
  "shear_modulus": null,
  "universal_anisotropy": null,
  "homogeneous_poisson": null,
  "e_total": null,
  "e_ionic": null,
  "e_electronic": null,
  "n": null,
  "e_ij_max": null,
  "weighted_surface_energy_EV_PER_ANG2": null,
  "weighted_surface_energy": null,
  "weighted_work_function": null,
  "surface_anisotropy": null,
  "shape_factor": null,
  "has_reconstructed": null,
  "possible_species": null,
  "has_props": null,
  "theoretical": null,
  "database_IDs": null,
  "fields_not_requested": [
    "builder_meta",
    "nsites",
    "elements",
    "nelements",
    "composition",
    "composition_reduced",
    "chemsys",
    "symmetry",
    "property_name",
    "deprecated",
    "deprecation_reasons",
    "last_updated",
    "origins",
    "warnings",
    "task_ids",
    "uncorrected_energy_per_atom",
    "equilibrium_reaction_energy_per_atom",
    "decomposes_to",
    "xas",
    "grain_boundaries",
    "cbm",
    "vbm",
    "is_gap_direct",
    "is_metal",
    "es_source_calc_id",
    "bandstructure",
    "dos",
    "dos_energy_up",
    "dos_energy_down",
    "is_magnetic",
    "ordering",
    "total_magnetization_normalized_vol",
    "total_magnetization_normalized_formula_units",
    "num_magnetic_sites",
    "num_unique_magnetic_sites",
    "types_of_magnetic_species",
    "bulk_modulus",
    "shear_modulus",
    "universal_anisotropy",
    "homogeneous_poisson",
    "e_total",
    "e_ionic",
    "e_electronic",
    "n",
    "e_ij_max",
    "weighted_surface_energy_EV_PER_ANG2",
    "weighted_surface_energy",
    "weighted_work_function",
    "surface_anisotropy",
    "shape_factor",
    "has_reconstructed",
    "possible_species",
    "has_props",
    "theoretical",
    "database_IDs"
  ]
}
