{"builder_meta": null, "nsites": null, "elements": null, "nelements": null, "composition": null, "composition_reduced": null, "formula_pretty": "YGe", "formula_anonymous": "AB", "chemsys": null, "volume": 90.8131876963217, "density": 5.907802639174815, "density_atomic": 22.703296924080426, "symmetry": null, "property_name": null, "material_id": "mp-9971", "deprecated": null, "deprecation_reasons": null, "last_updated": null, "origins": null, "warnings": null, "structure": {"@module": "pymatgen.core.structure", "@class": "Structure", "charge": 0, "lattice": {"matrix": [[3.95459903, 0.0, -0.0], [-0.0, 3.97825511, -1.58549885], [0.0, -0.00392146, 5.77392854]], "pbc": [true, true, true], "a": 3.95459903, "b": 4.282560019847058, "c": 5.773929871662373, "alpha": 111.76823579437192, "beta": 90.0, "gamma": 90.0, "volume": 90.8131876963217}, "properties": {}, "sites": [{"species": [{"element": "Y", "occu": 1}], "abc": [0.25, 0.86139416, 0.72278831], "properties": {"magmom": 0.0}, "label": "Y", "xyz": [0.9886497575, 3.424011333298025, 2.807588601410651]}, {"species": [{"element": "Y", "occu": 1}], "abc": [0.75, 0.13860584, 0.27721169], "properties": {"magmom": 0.0}, "label": "Y", "xyz": [2.9659492724999996, 0.5503223167019751, 1.3808410885893485]}, {"species": [{"element": "Ge", "occu": 1}], "abc": [0.25, 0.58438231, 0.16876463], "properties": {"magmom": 0.0}, "label": "Ge", "xyz": [0.9886497575, 2.3241601072051443, 0.04789743323419671]}, {"species": [{"element": "Ge", "occu": 1}], "abc": [0.75, 0.41561769, 0.83123537], "properties": {"magmom": 0.0}, "label": "Ge", "xyz": [2.9659492724999996, 1.6501735427948558, 4.140532256765804]}]}, "task_ids": null, "uncorrected_energy_per_atom": null, "energy_per_atom": -18.0687883175, "formation_energy_per_atom": -0.9759990475000031, "energy_above_hull": 0.0, "is_stable": true, "equilibrium_reaction_energy_per_atom": null, "decomposes_to": null, "xas": null, "grain_boundaries": null, "band_gap": 0.0, "cbm": null, "vbm": null, "efermi": 5.09297569, "is_gap_direct": null, "is_metal": null, "es_source_calc_id": null, "bandstructure": null, "dos": null, "dos_energy_up": null, "dos_energy_down": null, "is_magnetic": null, "ordering": null, "total_magnetization": 8.9e-06, "total_magnetization_normalized_vol": null, "total_magnetization_normalized_formula_units": null, "num_magnetic_sites": null, "num_unique_magnetic_sites": null, "types_of_magnetic_species": null, "bulk_modulus": null, "shear_modulus": null, "universal_anisotropy": null, "homogeneous_poisson": null, "e_total": null, "e_ionic": null, "e_electronic": null, "n": null, "e_ij_max": null, "weighted_surface_energy_EV_PER_ANG2": null, "weighted_surface_energy": null, "weighted_work_function": null, "surface_anisotropy": null, "shape_factor": null, "has_reconstructed": null, "possible_species": null, "has_props": null, "theoretical": null, "database_IDs": null, "fields_not_requested": ["builder_meta", "nsites", "elements", "nelements", "composition", "composition_reduced", "chemsys", "symmetry", "property_name", "deprecated", "deprecation_reasons", "last_updated", "origins", "warnings", "task_ids", "uncorrected_energy_per_atom", "equilibrium_reaction_energy_per_atom", "decomposes_to", "xas", "grain_boundaries", "cbm", "vbm", "is_gap_direct", "is_metal", "es_source_calc_id", "bandstructure", "dos", "dos_energy_up", "dos_energy_down", "is_magnetic", "ordering", "total_magnetization_normalized_vol", "total_magnetization_normalized_formula_units", "num_magnetic_sites", "num_unique_magnetic_sites", "types_of_magnetic_species", "bulk_modulus", "shear_modulus", "universal_anisotropy", "homogeneous_poisson", "e_total", "e_ionic", "e_electronic", "n", "e_ij_max", "weighted_surface_energy_EV_PER_ANG2", "weighted_surface_energy", "weighted_work_function", "surface_anisotropy", "shape_factor", "has_reconstructed", "possible_species", "has_props", "theoretical", "database_IDs"]}