{
  "builder_meta": null,
  "nsites": null,
  "elements": null,
  "nelements": null,
  "composition": null,
  "composition_reduced": null,
  "formula_pretty": "YGe2",
  "formula_anonymous": "AB2",
  "chemsys": null,
  "volume": 132.88711642220346,
  "density": 5.852708121597142,
  "density_atomic": 22.14785273703391,
  "symmetry": null,
  "property_name": null,
  "material_id": "mp-10213",
  "deprecated": null,
  "deprecation_reasons": null,
  "last_updated": null,
  "origins": null,
  "warnings": null,
  "structure": {
    "@module": "pymatgen.core.structure",
    "@class": "Structure",
    "charge": 0,
    "lattice": {
      "matrix": [
        [-1.997516, 1.997516, 8.326114],
        [1.997516, -1.997516, 8.326114],
        [1.997516, 1.997516, -8.326114]
      ],
      "pbc": [true, true, true],
      "a": 8.792287226968192,
      "b": 8.792287226968192,
      "c": 8.792287226968192,
      "alpha": 153.73666690716854,
      "beta": 153.73666690716854,
      "gamma": 37.48246715565864,
      "volume": 132.88711642220346
    },
    "properties": {},
    "sites": [
      {
        "species": [{ "element": "Y", "occu": 1 }],
        "abc": [0.5, 0.5, 0.0],
        "properties": { "magmom": -0.0 },
        "label": "Y",
        "xyz": [0.0, 0.0, 8.326114]
      },
      {
        "species": [{ "element": "Y", "occu": 1 }],
        "abc": [0.25, 0.75, 0.5],
        "properties": { "magmom": -0.0 },
        "label": "Y",
        "xyz": [1.997516, 0.0, 4.163057]
      },
      {
        "species": [{ "element": "Ge", "occu": 1 }],
        "abc": [0.827986, 0.327986, 0.5],
        "properties": { "magmom": -0.0 },
        "label": "Ge",
        "xyz": [1.1102230246251565e-16, 1.997516, 5.461697652808001]
      },
      {
        "species": [{ "element": "Ge", "occu": 1 }],
        "abc": [0.077986, 0.077986, 0.0],
        "properties": { "magmom": -0.0 },
        "label": "Ge",
        "xyz": [0.0, 0.0, 1.2986406528080001]
      },
      {
        "species": [{ "element": "Ge", "occu": 1 }],
        "abc": [0.672014, 0.172014, 0.5],
        "properties": { "magmom": -0.0 },
        "label": "Ge",
        "xyz": [-1.1102230246251565e-16, 1.997516, 2.864416347192]
      },
      {
        "species": [{ "element": "Ge", "occu": 1 }],
        "abc": [0.922014, 0.922014, 0.0],
        "properties": { "magmom": -0.0 },
        "label": "Ge",
        "xyz": [0.0, 0.0, 15.353587347192]
      }
    ]
  },
  "task_ids": null,
  "uncorrected_energy_per_atom": null,
  "energy_per_atom": -16.599797617222222,
  "formation_energy_per_atom": -0.580612243888888,
  "energy_above_hull": 0.10856022666666801,
  "is_stable": false,
  "equilibrium_reaction_energy_per_atom": null,
  "decomposes_to": null,
  "xas": null,
  "grain_boundaries": null,
  "band_gap": 0.0,
  "cbm": null,
  "vbm": null,
  "efermi": 5.55986157,
  "is_gap_direct": null,
  "is_metal": null,
  "es_source_calc_id": null,
  "bandstructure": null,
  "dos": null,
  "dos_energy_up": null,
  "dos_energy_down": null,
  "is_magnetic": null,
  "ordering": null,
  "total_magnetization": 0.002080599999999,
  "total_magnetization_normalized_vol": null,
  "total_magnetization_normalized_formula_units": null,
  "num_magnetic_sites": null,
  "num_unique_magnetic_sites": null,
  "types_of_magnetic_species": null,
  "bulk_modulus": null,
  "shear_modulus": null,
  "universal_anisotropy": null,
  "homogeneous_poisson": null,
  "e_total": null,
  "e_ionic": null,
  "e_electronic": null,
  "n": null,
  "e_ij_max": null,
  "weighted_surface_energy_EV_PER_ANG2": null,
  "weighted_surface_energy": null,
  "weighted_work_function": null,
  "surface_anisotropy": null,
  "shape_factor": null,
  "has_reconstructed": null,
  "possible_species": null,
  "has_props": null,
  "theoretical": null,
  "database_IDs": null,
  "fields_not_requested": [
    "builder_meta",
    "nsites",
    "elements",
    "nelements",
    "composition",
    "composition_reduced",
    "chemsys",
    "symmetry",
    "property_name",
    "deprecated",
    "deprecation_reasons",
    "last_updated",
    "origins",
    "warnings",
    "task_ids",
    "uncorrected_energy_per_atom",
    "equilibrium_reaction_energy_per_atom",
    "decomposes_to",
    "xas",
    "grain_boundaries",
    "cbm",
    "vbm",
    "is_gap_direct",
    "is_metal",
    "es_source_calc_id",
    "bandstructure",
    "dos",
    "dos_energy_up",
    "dos_energy_down",
    "is_magnetic",
    "ordering",
    "total_magnetization_normalized_vol",
    "total_magnetization_normalized_formula_units",
    "num_magnetic_sites",
    "num_unique_magnetic_sites",
    "types_of_magnetic_species",
    "bulk_modulus",
    "shear_modulus",
    "universal_anisotropy",
    "homogeneous_poisson",
    "e_total",
    "e_ionic",
    "e_electronic",
    "n",
    "e_ij_max",
    "weighted_surface_energy_EV_PER_ANG2",
    "weighted_surface_energy",
    "weighted_work_function",
    "surface_anisotropy",
    "shape_factor",
    "has_reconstructed",
    "possible_species",
    "has_props",
    "theoretical",
    "database_IDs"
  ]
}
