{"builder_meta": null, "nsites": null, "elements": null, "nelements": null, "composition": null, "composition_reduced": null, "formula_pretty": "YGe3", "formula_anonymous": "AB3", "chemsys": null, "volume": 165.11853405153545, "density": 6.171279481063363, "density_atomic": 20.63981675644193, "symmetry": null, "property_name": null, "material_id": "mp-29772", "deprecated": null, "deprecation_reasons": null, "last_updated": null, "origins": null, "warnings": null, "structure": {"@module": "pymatgen.core.structure", "@class": "Structure", "charge": 0, "lattice": {"matrix": [[3.8945756300000003, -0.0, 0.0], [-0.0, 3.94961171, -0.76962188], [-0.0, 0.04040003, 10.7266143]], "pbc": [true, true, true], "a": 3.8945756300000003, "b": 4.023897426369596, "c": 10.72669037976712, "alpha": 100.81069469190074, "beta": 90.0, "gamma": 90.0, "volume": 165.11853405153545}, "properties": {}, "sites": [{"species": [{"element": "Y", "occu": 1}], "abc": [0.25, 0.58388101, 0.16776202], "properties": {"magmom": -0.0}, "label": "Y", "xyz": [0.9736439075000001, 2.312880864983488, 1.3501508821163872]}, {"species": [{"element": "Y", "occu": 1}], "abc": [0.75, 0.41611899, 0.83223798], "properties": {"magmom": -0.0}, "label": "Y", "xyz": [2.9209317225, 1.6771308750165124, 8.606841537883613]}, {"species": [{"element": "Ge", "occu": 1}], "abc": [0.25, 0.19038138000000002, 0.38076277000000003], "properties": {"magmom": -0.0}, "label": "Ge", "xyz": [0.9736439075000001, 0.7673153551448431, 3.9377736979970166]}, {"species": [{"element": "Ge", "occu": 1}], "abc": [0.75, 0.8096186200000001, 0.61923723], "properties": {"magmom": -0.0}, "label": "Ge", "xyz": [2.9209317225, 3.2226963848551575, 6.019218722002983]}, {"species": [{"element": "Ge", "occu": 1}], "abc": [0.75, 0.0378159, 0.07563181000000001], "properties": {"magmom": -0.0}, "label": "Ge", "xyz": [2.9209317225, 0.1524136488571433, 0.7821693106289911]}, {"species": [{"element": "Ge", "occu": 1}], "abc": [0.25, 0.9621841, 0.92436819], "properties": {"magmom": -0.0}, "label": "Ge", "xyz": [0.9736439075000001, 3.8375980911428567, 9.174823109371008]}, {"species": [{"element": "Ge", "occu": 1}], "abc": [0.75, 0.69248568, 0.38497037], "properties": {"magmom": 0.0}, "label": "Ge", "xyz": [2.9209317225, 2.750602365232424, 3.5964765450036125]}, {"species": [{"element": "Ge", "occu": 1}], "abc": [0.25, 0.30751432, 0.61502963], "properties": {"magmom": 0.0}, "label": "Ge", "xyz": [0.9736439075000001, 1.2394093747675763, 6.360515874996387]}]}, "task_ids": null, "uncorrected_energy_per_atom": null, "energy_per_atom": -15.9500787475, "formation_energy_per_atom": -0.4676953225, "energy_above_hull": 0.049184030416668, "is_stable": false, "equilibrium_reaction_energy_per_atom": null, "decomposes_to": null, "xas": null, "grain_boundaries": null, "band_gap": 0.0, "cbm": null, "vbm": null, "efermi": 5.61659688, "is_gap_direct": null, "is_metal": null, "es_source_calc_id": null, "bandstructure": null, "dos": null, "dos_energy_up": null, "dos_energy_down": null, "is_magnetic": null, "ordering": null, "total_magnetization": 1e-07, "total_magnetization_normalized_vol": null, "total_magnetization_normalized_formula_units": null, "num_magnetic_sites": null, "num_unique_magnetic_sites": null, "types_of_magnetic_species": null, "bulk_modulus": null, "shear_modulus": null, "universal_anisotropy": null, "homogeneous_poisson": null, "e_total": null, "e_ionic": null, "e_electronic": null, "n": null, "e_ij_max": null, "weighted_surface_energy_EV_PER_ANG2": null, "weighted_surface_energy": null, "weighted_work_function": null, "surface_anisotropy": null, "shape_factor": null, "has_reconstructed": null, "possible_species": null, "has_props": null, "theoretical": null, "database_IDs": null, "fields_not_requested": ["builder_meta", "nsites", "elements", "nelements", "composition", "composition_reduced", "chemsys", "symmetry", "property_name", "deprecated", "deprecation_reasons", "last_updated", "origins", "warnings", "task_ids", "uncorrected_energy_per_atom", "equilibrium_reaction_energy_per_atom", "decomposes_to", "xas", "grain_boundaries", "cbm", "vbm", "is_gap_direct", "is_metal", "es_source_calc_id", "bandstructure", "dos", "dos_energy_up", "dos_energy_down", "is_magnetic", "ordering", "total_magnetization_normalized_vol", "total_magnetization_normalized_formula_units", "num_magnetic_sites", "num_unique_magnetic_sites", "types_of_magnetic_species", "bulk_modulus", "shear_modulus", "universal_anisotropy", "homogeneous_poisson", "e_total", "e_ionic", "e_electronic", "n", "e_ij_max", "weighted_surface_energy_EV_PER_ANG2", "weighted_surface_energy", "weighted_work_function", "surface_anisotropy", "shape_factor", "has_reconstructed", "possible_species", "has_props", "theoretical", "database_IDs"]}