{
  "builder_meta": null,
  "nsites": null,
  "elements": null,
  "nelements": null,
  "composition": null,
  "composition_reduced": null,
  "formula_pretty": "YHg3",
  "formula_anonymous": "AB3",
  "chemsys": null,
  "volume": 187.98806969630343,
  "density": 12.201776773759956,
  "density_atomic": 23.49850871203793,
  "symmetry": null,
  "property_name": null,
  "material_id": "mp-30726",
  "deprecated": null,
  "deprecation_reasons": null,
  "last_updated": null,
  "origins": null,
  "warnings": null,
  "structure": {
    "@module": "pymatgen.core.structure",
    "@class": "Structure",
    "charge": 0,
    "lattice": {
      "matrix": [
        [6.61992348, -1e-8, 0.0],
        [-3.30996225, 5.73302189, 0.0],
        [-0.0, 0.0, 4.95328959]
      ],
      "pbc": [true, true, true],
      "a": 6.61992348,
      "b": 6.61992372219229,
      "c": 4.95328959,
      "alpha": 90.0,
      "beta": 90.0,
      "gamma": 120.00000397325276,
      "volume": 187.98806969630343
    },
    "properties": {},
    "sites": [
      {
        "species": [{ "element": "Y", "occu": 1 }],
        "abc": [0.666667, 0.333333, 0.75],
        "properties": { "magmom": -0.0 },
        "label": "Y",
        "xyz": [3.3099648799619104, 1.9110053789926997, 3.7149671924999996]
      },
      {
        "species": [{ "element": "Y", "occu": 1 }],
        "abc": [0.333333, 0.666667, 0.25],
        "properties": { "magmom": -0.0 },
        "label": "Y",
        "xyz": [-3.6499619100460734e-6, 3.8220165010072997, 1.2383223975]
      },
      {
        "species": [{ "element": "Hg", "occu": 1 }],
        "abc": [0.66963661, 0.8348183, 0.75],
        "properties": { "magmom": -0.0 },
        "label": "Hg",
        "xyz": [1.6697260589974277, 4.78603158137622, 3.7149671924999996]
      },
      {
        "species": [{ "element": "Hg", "occu": 1 }],
        "abc": [0.33036339000000003, 0.1651817, 0.25],
        "properties": { "magmom": -0.0 },
        "label": "Hg",
        "xyz": [1.6402351710025722, 0.9469902986237789, 1.2383223975]
      },
      {
        "species": [{ "element": "Hg", "occu": 1 }],
        "abc": [0.8348183, 0.1651817, 0.25],
        "properties": { "magmom": -0.0 },
        "label": "Hg",
        "xyz": [4.979688074312859, 0.9469902935792298, 1.2383223975]
      },
      {
        "species": [{ "element": "Hg", "occu": 1 }],
        "abc": [0.1651817, 0.33036339000000003, 0.75],
        "properties": { "magmom": -0.0 },
        "label": "Hg",
        "xyz": [-1.3538571175253367e-7, 1.8939805448727904, 3.7149671924999996]
      },
      {
        "species": [{ "element": "Hg", "occu": 1 }],
        "abc": [0.1651817, 0.8348183, 0.75],
        "properties": { "magmom": -0.0 },
        "label": "Hg",
        "xyz": [-1.669726844312859, 4.786031586420769, 3.7149671924999996]
      },
      {
        "species": [{ "element": "Hg", "occu": 1 }],
        "abc": [0.8348183, 0.66963661, 0.25],
        "properties": { "magmom": -0.0 },
        "label": "Hg",
        "xyz": [3.3099613653857114, 3.8390413351272095, 1.2383223975]
      }
    ]
  },
  "task_ids": null,
  "uncorrected_energy_per_atom": null,
  "energy_per_atom": -42.51377490875,
  "formation_energy_per_atom": -0.409519776875001,
  "energy_above_hull": 0.0,
  "is_stable": true,
  "equilibrium_reaction_energy_per_atom": null,
  "decomposes_to": null,
  "xas": null,
  "grain_boundaries": null,
  "band_gap": 0.0,
  "cbm": null,
  "vbm": null,
  "efermi": 3.57084452,
  "is_gap_direct": null,
  "is_metal": null,
  "es_source_calc_id": null,
  "bandstructure": null,
  "dos": null,
  "dos_energy_up": null,
  "dos_energy_down": null,
  "is_magnetic": null,
  "ordering": null,
  "total_magnetization": 2.299999999999998e-6,
  "total_magnetization_normalized_vol": null,
  "total_magnetization_normalized_formula_units": null,
  "num_magnetic_sites": null,
  "num_unique_magnetic_sites": null,
  "types_of_magnetic_species": null,
  "bulk_modulus": null,
  "shear_modulus": null,
  "universal_anisotropy": null,
  "homogeneous_poisson": null,
  "e_total": null,
  "e_ionic": null,
  "e_electronic": null,
  "n": null,
  "e_ij_max": null,
  "weighted_surface_energy_EV_PER_ANG2": null,
  "weighted_surface_energy": null,
  "weighted_work_function": null,
  "surface_anisotropy": null,
  "shape_factor": null,
  "has_reconstructed": null,
  "possible_species": null,
  "has_props": null,
  "theoretical": null,
  "database_IDs": null,
  "fields_not_requested": [
    "builder_meta",
    "nsites",
    "elements",
    "nelements",
    "composition",
    "composition_reduced",
    "chemsys",
    "symmetry",
    "property_name",
    "deprecated",
    "deprecation_reasons",
    "last_updated",
    "origins",
    "warnings",
    "task_ids",
    "uncorrected_energy_per_atom",
    "equilibrium_reaction_energy_per_atom",
    "decomposes_to",
    "xas",
    "grain_boundaries",
    "cbm",
    "vbm",
    "is_gap_direct",
    "is_metal",
    "es_source_calc_id",
    "bandstructure",
    "dos",
    "dos_energy_up",
    "dos_energy_down",
    "is_magnetic",
    "ordering",
    "total_magnetization_normalized_vol",
    "total_magnetization_normalized_formula_units",
    "num_magnetic_sites",
    "num_unique_magnetic_sites",
    "types_of_magnetic_species",
    "bulk_modulus",
    "shear_modulus",
    "universal_anisotropy",
    "homogeneous_poisson",
    "e_total",
    "e_ionic",
    "e_electronic",
    "n",
    "e_ij_max",
    "weighted_surface_energy_EV_PER_ANG2",
    "weighted_surface_energy",
    "weighted_work_function",
    "surface_anisotropy",
    "shape_factor",
    "has_reconstructed",
    "possible_species",
    "has_props",
    "theoretical",
    "database_IDs"
  ]
}
