{"builder_meta": null, "nsites": null, "elements": null, "nelements": null, "composition": null, "composition_reduced": null, "formula_pretty": "YHo3", "formula_anonymous": "AB3", "chemsys": null, "volume": 254.7612716896448, "density": 7.609094974494857, "density_atomic": 31.8451589612056, "symmetry": null, "property_name": null, "material_id": "mp-1187851", "deprecated": null, "deprecation_reasons": null, "last_updated": null, "origins": null, "warnings": null, "structure": {"@module": "pymatgen.core.structure", "@class": "Structure", "charge": 0, "lattice": {"matrix": [[7.26216749, -3.164e-05, 2.4380000000000004e-05], [-3.63111014, 6.28918791, -1.1670000000000002e-05], [1.9030000000000002e-05, 1e-08, 5.57793782]], "pbc": [true, true, true], "a": 7.2621674901098485, "b": 7.262151569351688, "c": 5.577937820032462, "alpha": 90.000189720815, "beta": 89.99961217750021, "gamma": 120.00056261140013, "volume": 254.7612716896448}, "properties": {}, "sites": [{"species": [{"element": "Y", "occu": 1}], "abc": [0.333331999999999, 0.666666, 0.75], "properties": {"magmom": 0.0}, "label": "Y", "xyz": [-1.0586316566997175e-05, 4.192777208083579, 4.18345371164194]}, {"species": [{"element": "Y", "occu": 1}], "abc": [0.666667999999999, 0.333333999999999, 0.249999], "properties": {"magmom": 0.0}, "label": "Y", "xyz": [3.631086966297527, 2.0963790719164037, 1.3944912404202399]}, {"species": [{"element": "Ho", "occu": 1}], "abc": [0.16578211, 0.33156323, 0.249999], "properties": {"magmom": 0.0}, "label": "Ho", "xyz": [-3.993575779594517e-07, 2.0852582146705787, 1.3944790494871275]}, {"species": [{"element": "Ho", "occu": 1}], "abc": [0.66843777, 0.83421789, 0.249999], "properties": {"magmom": 0.0}, "label": "Ho", "xyz": [1.8251747605146633, 5.246531921222657, 1.3944854382522363]}, {"species": [{"element": "Ho", "occu": 1}], "abc": [0.16578111, 0.83421889, 0.249999], "properties": {"magmom": 0.0}, "label": "Ho", "xyz": [-1.825205725479461, 5.24655411446729, 1.3944731834711954]}, {"species": [{"element": "Ho", "occu": 1}], "abc": [0.83421889, 0.66843777, 0.75], "properties": {"magmom": 0.0}, "label": "Ho", "xyz": [3.631080410395899, 4.2039043544856805, 4.183465902587763]}, {"species": [{"element": "Ho", "occu": 1}], "abc": [0.33156323, 0.16578111, 0.75], "properties": {"magmom": 0.0}, "label": "Ho", "xyz": [1.8059125127439373, 1.042618069557783, 4.183459513845993]}, {"species": [{"element": "Ho", "occu": 1}], "abc": [0.83421889, 0.16578111, 0.75], "properties": {"magmom": 0.0}, "label": "Ho", "xyz": [5.456282105460431, 1.0426021655327005, 4.183471768590985]}]}, "task_ids": null, "uncorrected_energy_per_atom": null, "energy_per_atom": -29.7243720175, "formation_energy_per_atom": 0.015036158750003002, "energy_above_hull": 0.016839302500002002, "is_stable": false, "equilibrium_reaction_energy_per_atom": null, "decomposes_to": null, "xas": null, "grain_boundaries": null, "band_gap": 0.0, "cbm": null, "vbm": null, "efermi": 2.96315728, "is_gap_direct": null, "is_metal": null, "es_source_calc_id": null, "bandstructure": null, "dos": null, "dos_energy_up": null, "dos_energy_down": null, "is_magnetic": null, "ordering": null, "total_magnetization": 3.1e-06, "total_magnetization_normalized_vol": null, "total_magnetization_normalized_formula_units": null, "num_magnetic_sites": null, "num_unique_magnetic_sites": null, "types_of_magnetic_species": null, "bulk_modulus": null, "shear_modulus": null, "universal_anisotropy": null, "homogeneous_poisson": null, "e_total": null, "e_ionic": null, "e_electronic": null, "n": null, "e_ij_max": null, "weighted_surface_energy_EV_PER_ANG2": null, "weighted_surface_energy": null, "weighted_work_function": null, "surface_anisotropy": null, "shape_factor": null, "has_reconstructed": null, "possible_species": null, "has_props": null, "theoretical": null, "database_IDs": null, "fields_not_requested": ["builder_meta", "nsites", "elements", "nelements", "composition", "composition_reduced", "chemsys", "symmetry", "property_name", "deprecated", "deprecation_reasons", "last_updated", "origins", "warnings", "task_ids", "uncorrected_energy_per_atom", "equilibrium_reaction_energy_per_atom", "decomposes_to", "xas", "grain_boundaries", "cbm", "vbm", "is_gap_direct", "is_metal", "es_source_calc_id", "bandstructure", "dos", "dos_energy_up", "dos_energy_down", "is_magnetic", "ordering", "total_magnetization_normalized_vol", "total_magnetization_normalized_formula_units", "num_magnetic_sites", "num_unique_magnetic_sites", "types_of_magnetic_species", "bulk_modulus", "shear_modulus", "universal_anisotropy", "homogeneous_poisson", "e_total", "e_ionic", "e_electronic", "n", "e_ij_max", "weighted_surface_energy_EV_PER_ANG2", "weighted_surface_energy", "weighted_work_function", "surface_anisotropy", "shape_factor", "has_reconstructed", "possible_species", "has_props", "theoretical", "database_IDs"]}