{"builder_meta": null, "nsites": null, "elements": null, "nelements": null, "composition": null, "composition_reduced": null, "formula_pretty": "YI3", "formula_anonymous": "AB3", "chemsys": null, "volume": 362.44901402796, "density": 4.303066624414245, "density_atomic": 45.306126753495, "symmetry": null, "property_name": null, "material_id": "mp-571442", "deprecated": null, "deprecation_reasons": null, "last_updated": null, "origins": null, "warnings": null, "structure": {"@module": "pymatgen.core.structure", "@class": "Structure", "charge": 0, "lattice": {"matrix": [[6.83245672, 0.03742405, 4.96430176], [2.54979039, 6.3389618500000005, 4.96429956], [0.05506753, 0.03742743, 8.44533641]], "pbc": [true, true, true], "a": 8.44559988127135, "b": 8.445598764451693, "c": 8.445598872989907, "alpha": 53.62456998815306, "beta": 53.6245715071522, "gamma": 53.624573411571276, "volume": 362.44901402796006}, "properties": {}, "sites": [{"species": [{"element": "Y", "occu": 1}], "abc": [0.16677364, 0.16677364, 0.16677364], "properties": {"magmom": -0.0}, "label": "Y", "xyz": [1.5738953143380896, 1.0696549953246213, 3.064288476365437]}, {"species": [{"element": "Y", "occu": 1}], "abc": [0.83322636, 0.83322636, 0.83322636], "properties": {"magmom": -0.0}, "label": "Y", "xyz": [7.863419325661911, 5.344158334675379, 15.309649253634563]}, {"species": [{"element": "I", "occu": 1}], "abc": [0.2313092, 0.58132759, 0.93087858], "properties": {"magmom": 0.0}, "label": "I", "xyz": [3.1139347844921916, 3.7285103353201516, 11.89575573288015]}, {"species": [{"element": "I", "occu": 1}], "abc": [0.06912142, 0.7686908, 0.41867241], "properties": {"magmom": 0.0}, "label": "I", "xyz": [2.455324780794202, 4.890958291442337, 7.694980335211195]}, {"species": [{"element": "I", "occu": 1}], "abc": [0.41867241, 0.06912142, 0.7686908], "properties": {"magmom": 0.0}, "label": "I", "xyz": [3.079136157331973, 0.48259658271193157, 8.913408017991044]}, {"species": [{"element": "I", "occu": 1}], "abc": [0.7686908, 0.41867241, 0.06912142], "properties": {"magmom": 0.0}, "label": "I", "xyz": [6.323379855507809, 2.6853029946798492, 6.478181997119849]}, {"species": [{"element": "I", "occu": 1}], "abc": [0.58132759, 0.93087858, 0.2313092], "properties": {"magmom": 0.0}, "label": "I", "xyz": [6.358178482668027, 5.931216747288069, 9.460529712008956]}, {"species": [{"element": "I", "occu": 1}], "abc": [0.93087858, 0.2313092, 0.58132759], "properties": {"magmom": 0.0}, "label": "I", "xyz": [6.9819898592057985, 1.5228550385576627, 10.678957394788803]}]}, "task_ids": null, "uncorrected_energy_per_atom": null, "energy_per_atom": -4.481248127499999, "formation_energy_per_atom": -1.710965791249998, "energy_above_hull": 0.0, "is_stable": true, "equilibrium_reaction_energy_per_atom": null, "decomposes_to": null, "xas": null, "grain_boundaries": null, "band_gap": 3.0417, "cbm": null, "vbm": null, "efermi": 0.34578238, "is_gap_direct": null, "is_metal": null, "es_source_calc_id": null, "bandstructure": null, "dos": null, "dos_energy_up": null, "dos_energy_down": null, "is_magnetic": null, "ordering": null, "total_magnetization": 0.0, "total_magnetization_normalized_vol": null, "total_magnetization_normalized_formula_units": null, "num_magnetic_sites": null, "num_unique_magnetic_sites": null, "types_of_magnetic_species": null, "bulk_modulus": null, "shear_modulus": null, "universal_anisotropy": null, "homogeneous_poisson": null, "e_total": null, "e_ionic": null, "e_electronic": null, "n": null, "e_ij_max": null, "weighted_surface_energy_EV_PER_ANG2": null, "weighted_surface_energy": null, "weighted_work_function": null, "surface_anisotropy": null, "shape_factor": null, "has_reconstructed": null, "possible_species": null, "has_props": null, "theoretical": null, "database_IDs": null, "fields_not_requested": ["builder_meta", "nsites", "elements", "nelements", "composition", "composition_reduced", "chemsys", "symmetry", "property_name", "deprecated", "deprecation_reasons", "last_updated", "origins", "warnings", "task_ids", "uncorrected_energy_per_atom", "equilibrium_reaction_energy_per_atom", "decomposes_to", "xas", "grain_boundaries", "cbm", "vbm", "is_gap_direct", "is_metal", "es_source_calc_id", "bandstructure", "dos", "dos_energy_up", "dos_energy_down", "is_magnetic", "ordering", "total_magnetization_normalized_vol", "total_magnetization_normalized_formula_units", "num_magnetic_sites", "num_unique_magnetic_sites", "types_of_magnetic_species", "bulk_modulus", "shear_modulus", "universal_anisotropy", "homogeneous_poisson", "e_total", "e_ionic", "e_electronic", "n", "e_ij_max", "weighted_surface_energy_EV_PER_ANG2", "weighted_surface_energy", "weighted_work_function", "surface_anisotropy", "shape_factor", "has_reconstructed", "possible_species", "has_props", "theoretical", "database_IDs"]}