{"builder_meta": null, "nsites": null, "elements": null, "nelements": null, "composition": null, "composition_reduced": null, "formula_pretty": "YIr3", "formula_anonymous": "AB3", "chemsys": null, "volume": 211.50236994692332, "density": 15.67618108599326, "density_atomic": 17.625197495576945, "symmetry": null, "property_name": null, "material_id": "mp-1095497", "deprecated": null, "deprecation_reasons": null, "last_updated": null, "origins": null, "warnings": null, "structure": {"@module": "pymatgen.core.structure", "@class": "Structure", "charge": 0, "lattice": {"matrix": [[-2.64211887, -4.57628365, -0.0], [2.64211887, -4.57628365, -0.0], [-0.0, -3.05085509, 8.74621108]], "pbc": [true, true, true], "a": 5.284237330823379, "b": 5.284237330823379, "c": 9.263040809372141, "alpha": 73.42726840508847, "beta": 73.42726840508847, "gamma": 60.00000512295454, "volume": 211.50236994692332}, "properties": {}, "sites": [{"species": [{"element": "Y", "occu": 1}], "abc": [0.1391808, 0.1391808, 0.5824605900000001], "properties": {"magmom": -0.0}, "label": "Y", "xyz": [0.0, -3.0508644945937435, 5.0943232659213376]}, {"species": [{"element": "Y", "occu": 1}], "abc": [0.8608192, 0.8608192, 0.41753941], "properties": {"magmom": -0.0}, "label": "Y", "xyz": [0.0, -9.152557895406257, 3.651887814078663]}, {"species": [{"element": "Y", "occu": 1}], "abc": [0.0, 0.0, 0.0], "properties": {"magmom": -0.0}, "label": "Y", "xyz": [0.0, 0.0, 0.0]}, {"species": [{"element": "Ir", "occu": 1}], "abc": [0.08361229, 0.58084197, 0.75470378], "properties": {"magmom": 0.0}, "label": "Ir", "xyz": [1.3137399202520617, -5.343223034866089, 6.600798562753883]}, {"species": [{"element": "Ir", "occu": 1}], "abc": [0.58084197, 0.58084197, 0.75470378], "properties": {"magmom": 0.0}, "label": "Ir", "xyz": [0.0, -7.618687089744821, 6.600798562753883]}, {"species": [{"element": "Ir", "occu": 1}], "abc": [0.58084197, 0.08361229, 0.75470378], "properties": {"magmom": 0.0}, "label": "Ir", "xyz": [-1.3137399202520617, -5.343223034866089, 6.600798562753883]}, {"species": [{"element": "Ir", "occu": 1}], "abc": [0.91638771, 0.41915803, 0.24529622], "properties": {"magmom": 0.0}, "label": "Ir", "xyz": [-1.3137399202520614, -6.86019935513391, 2.145412517246118]}, {"species": [{"element": "Ir", "occu": 1}], "abc": [0.41915803, 0.41915803, 0.24529622], "properties": {"magmom": 0.0}, "label": "Ir", "xyz": [0.0, -4.584735300255179, 2.145412517246118]}, {"species": [{"element": "Ir", "occu": 1}], "abc": [0.41915803, 0.91638771, 0.24529622], "properties": {"magmom": 0.0}, "label": "Ir", "xyz": [1.3137399202520614, -6.86019935513391, 2.145412517246118]}, {"species": [{"element": "Ir", "occu": 1}], "abc": [0.33240393, 0.33240393, 0.00278522], "properties": {"magmom": 0.0}, "label": "Ir", "xyz": [0.0, -3.0508466427232586, 0.024360122024237603]}, {"species": [{"element": "Ir", "occu": 1}], "abc": [0.66759607, 0.66759607, 0.99721478], "properties": {"magmom": 0.0}, "label": "Ir", "xyz": [0.0, -9.15257574727674, 8.721850957975763]}, {"species": [{"element": "Ir", "occu": 1}], "abc": [0.5, 0.5, 0.5], "properties": {"magmom": -0.0}, "label": "Ir", "xyz": [0.0, -6.101711195, 4.37310554]}]}, "task_ids": null, "uncorrected_energy_per_atom": null, "energy_per_atom": -8.840920217500004, "formation_energy_per_atom": -0.5848217075000021, "energy_above_hull": 0.015700779999995, "is_stable": false, "equilibrium_reaction_energy_per_atom": null, "decomposes_to": null, "xas": null, "grain_boundaries": null, "band_gap": 0.0, "cbm": null, "vbm": null, "efermi": 7.03862235, "is_gap_direct": null, "is_metal": null, "es_source_calc_id": null, "bandstructure": null, "dos": null, "dos_energy_up": null, "dos_energy_down": null, "is_magnetic": null, "ordering": null, "total_magnetization": 0.0, "total_magnetization_normalized_vol": null, "total_magnetization_normalized_formula_units": null, "num_magnetic_sites": null, "num_unique_magnetic_sites": null, "types_of_magnetic_species": null, "bulk_modulus": null, "shear_modulus": null, "universal_anisotropy": null, "homogeneous_poisson": null, "e_total": null, "e_ionic": null, "e_electronic": null, "n": null, "e_ij_max": null, "weighted_surface_energy_EV_PER_ANG2": null, "weighted_surface_energy": null, "weighted_work_function": null, "surface_anisotropy": null, "shape_factor": null, "has_reconstructed": null, "possible_species": null, "has_props": null, "theoretical": null, "database_IDs": null, "fields_not_requested": ["builder_meta", "nsites", "elements", "nelements", "composition", "composition_reduced", "chemsys", "symmetry", "property_name", "deprecated", "deprecation_reasons", "last_updated", "origins", "warnings", "task_ids", "uncorrected_energy_per_atom", "equilibrium_reaction_energy_per_atom", "decomposes_to", "xas", "grain_boundaries", "cbm", "vbm", "is_gap_direct", "is_metal", "es_source_calc_id", "bandstructure", "dos", "dos_energy_up", "dos_energy_down", "is_magnetic", "ordering", "total_magnetization_normalized_vol", "total_magnetization_normalized_formula_units", "num_magnetic_sites", "num_unique_magnetic_sites", "types_of_magnetic_species", "bulk_modulus", "shear_modulus", "universal_anisotropy", "homogeneous_poisson", "e_total", "e_ionic", "e_electronic", "n", "e_ij_max", "weighted_surface_energy_EV_PER_ANG2", "weighted_surface_energy", "weighted_work_function", "surface_anisotropy", "shape_factor", "has_reconstructed", "possible_species", "has_props", "theoretical", "database_IDs"]}