{
  "builder_meta": null,
  "nsites": null,
  "elements": null,
  "nelements": null,
  "composition": null,
  "composition_reduced": null,
  "formula_pretty": "YLu3",
  "formula_anonymous": "AB3",
  "chemsys": null,
  "volume": 244.3312110252046,
  "density": 8.343185051921532,
  "density_atomic": 30.541401378150574,
  "symmetry": null,
  "property_name": null,
  "material_id": "mp-865596",
  "deprecated": null,
  "deprecation_reasons": null,
  "last_updated": null,
  "origins": null,
  "warnings": null,
  "structure": {
    "@module": "pymatgen.core.structure",
    "@class": "Structure",
    "charge": 0,
    "lattice": {
      "matrix": [
        [7.04179561, 0.00029317, 0.0],
        [-3.52068765, 6.09865064, 0.0],
        [0.0, 0.0, 5.6892018]
      ],
      "pbc": [true, true, true],
      "a": 7.041795616102751,
      "b": 7.041930215334069,
      "c": 5.6892018,
      "alpha": 90.0,
      "beta": 90.0,
      "gamma": 119.99500791202149,
      "volume": 244.3312110252046
    },
    "properties": {},
    "sites": [
      {
        "species": [{ "element": "Y", "occu": 1 }],
        "abc": [0.33337104, 0.66663584, 0.749999],
        "properties": { "magmom": 0.428 },
        "label": "Y",
        "xyz": [0.000514157037758256, 4.065676826650734, 4.2668956607982]
      },
      {
        "species": [{ "element": "Y", "occu": 1 }],
        "abc": [0.66661809, 0.33338098, 0.25],
        "properties": { "magmom": 0.428 },
        "label": "Y",
        "xyz": [3.5204580406776884, 2.0333695594662724, 1.42230045]
      },
      {
        "species": [{ "element": "Lu", "occu": 1 }],
        "abc": [0.16467493, 0.32944797000000003, 0.25],
        "properties": { "magmom": 0.394 },
        "label": "Lu",
        "xyz": [-0.00027620014551343886, 2.0092363508364293, 1.42230045]
      },
      {
        "species": [{ "element": "Lu", "occu": 1 }],
        "abc": [0.67058931, 0.8353305, 0.25],
        "properties": { "magmom": 0.394 },
        "label": "Lu",
        "xyz": [1.7812150842526044, 5.094585485104532, 1.42230045]
      },
      {
        "species": [{ "element": "Lu", "occu": 1 }],
        "abc": [0.16475912, 0.83526688, 0.25],
        "properties": { "magmom": 0.394 },
        "label": "Lu",
        "xyz": [-1.7805137409465688, 5.094049194714014, 1.42230045]
      },
      {
        "species": [{ "element": "Lu", "occu": 1 }],
        "abc": [0.83539007, 0.67063999, 0.749999],
        "properties": { "magmom": 0.394 },
        "label": "Lu",
        "xyz": [3.5215321971744693, 4.090243915529915, 4.2668956607982]
      },
      {
        "species": [{ "element": "Lu", "occu": 1 }],
        "abc": [0.32932653, 0.16460214, 0.749999],
        "properties": { "magmom": 0.394 },
        "label": "Lu",
        "xyz": [1.739537391748962, 1.0039474951151697, 4.2668956607982]
      },
      {
        "species": [{ "element": "Lu", "occu": 1 }],
        "abc": [0.8352699100000001, 0.1646957, 0.749999],
        "properties": { "magmom": 0.394 },
        "label": "Lu",
        "xyz": [5.301957868404991, 1.0046664122897626, 4.2668956607982]
      }
    ]
  },
  "task_ids": null,
  "uncorrected_energy_per_atom": null,
  "energy_per_atom": -33.65325431375,
  "formation_energy_per_atom": -0.014943936249991002,
  "energy_above_hull": 0.0,
  "is_stable": true,
  "equilibrium_reaction_energy_per_atom": null,
  "decomposes_to": null,
  "xas": null,
  "grain_boundaries": null,
  "band_gap": 0.0,
  "cbm": null,
  "vbm": null,
  "efermi": 2.94636482,
  "is_gap_direct": null,
  "is_metal": null,
  "es_source_calc_id": null,
  "bandstructure": null,
  "dos": null,
  "dos_energy_up": null,
  "dos_energy_down": null,
  "is_magnetic": null,
  "ordering": null,
  "total_magnetization": 4.8907819,
  "total_magnetization_normalized_vol": null,
  "total_magnetization_normalized_formula_units": null,
  "num_magnetic_sites": null,
  "num_unique_magnetic_sites": null,
  "types_of_magnetic_species": null,
  "bulk_modulus": null,
  "shear_modulus": null,
  "universal_anisotropy": null,
  "homogeneous_poisson": null,
  "e_total": null,
  "e_ionic": null,
  "e_electronic": null,
  "n": null,
  "e_ij_max": null,
  "weighted_surface_energy_EV_PER_ANG2": null,
  "weighted_surface_energy": null,
  "weighted_work_function": null,
  "surface_anisotropy": null,
  "shape_factor": null,
  "has_reconstructed": null,
  "possible_species": null,
  "has_props": null,
  "theoretical": null,
  "database_IDs": null,
  "fields_not_requested": [
    "builder_meta",
    "nsites",
    "elements",
    "nelements",
    "composition",
    "composition_reduced",
    "chemsys",
    "symmetry",
    "property_name",
    "deprecated",
    "deprecation_reasons",
    "last_updated",
    "origins",
    "warnings",
    "task_ids",
    "uncorrected_energy_per_atom",
    "equilibrium_reaction_energy_per_atom",
    "decomposes_to",
    "xas",
    "grain_boundaries",
    "cbm",
    "vbm",
    "is_gap_direct",
    "is_metal",
    "es_source_calc_id",
    "bandstructure",
    "dos",
    "dos_energy_up",
    "dos_energy_down",
    "is_magnetic",
    "ordering",
    "total_magnetization_normalized_vol",
    "total_magnetization_normalized_formula_units",
    "num_magnetic_sites",
    "num_unique_magnetic_sites",
    "types_of_magnetic_species",
    "bulk_modulus",
    "shear_modulus",
    "universal_anisotropy",
    "homogeneous_poisson",
    "e_total",
    "e_ionic",
    "e_electronic",
    "n",
    "e_ij_max",
    "weighted_surface_energy_EV_PER_ANG2",
    "weighted_surface_energy",
    "weighted_work_function",
    "surface_anisotropy",
    "shape_factor",
    "has_reconstructed",
    "possible_species",
    "has_props",
    "theoretical",
    "database_IDs"
  ]
}
