{"builder_meta": null, "nsites": null, "elements": null, "nelements": null, "composition": null, "composition_reduced": null, "formula_pretty": "YMg2", "formula_anonymous": "AB2", "chemsys": null, "volume": 155.82546115314358, "density": 2.930848906357931, "density_atomic": 25.970910192190598, "symmetry": null, "property_name": null, "material_id": "mp-1187860", "deprecated": null, "deprecation_reasons": null, "last_updated": null, "origins": null, "warnings": null, "structure": {"@module": "pymatgen.core.structure", "@class": "Structure", "charge": 0, "lattice": {"matrix": [[4.129999999999998e-06, 4.27106668, 4.27106668], [4.27106668, 4.129999999999998e-06, 4.27106668], [4.27106668, 4.27106668, 4.129999999999998e-06]], "pbc": [true, true, true], "a": 6.04020042465724, "b": 6.04020042465724, "c": 6.04020042465724, "alpha": 59.999936025671566, "beta": 59.999936025671566, "gamma": 59.999936025671566, "volume": 155.82546115314358}, "properties": {}, "sites": [{"species": [{"element": "Y", "occu": 1}], "abc": [0.25, 0.25, 0.25], "properties": {"magmom": 0.0}, "label": "Y", "xyz": [2.1355343724999996, 2.1355343724999996, 2.1355343725]}, {"species": [{"element": "Y", "occu": 1}], "abc": [-0.0, 0.0, -0.0], "properties": {"magmom": 0.0}, "label": "Y", "xyz": [0.0, 0.0, 0.0]}, {"species": [{"element": "Mg", "occu": 1}], "abc": [0.625, 0.125, 0.625], "properties": {"magmom": 0.0}, "label": "Mg", "xyz": [3.20330259125, 5.33883386625, 3.20330259125]}, {"species": [{"element": "Mg", "occu": 1}], "abc": [0.625, 0.625, 0.625], "properties": {"magmom": 0.0}, "label": "Mg", "xyz": [5.338835931249999, 5.338835931249999, 5.33883593125]}, {"species": [{"element": "Mg", "occu": 1}], "abc": [0.125, 0.625, 0.625], "properties": {"magmom": 0.0}, "label": "Mg", "xyz": [5.33883386625, 3.20330259125, 3.20330259125]}, {"species": [{"element": "Mg", "occu": 1}], "abc": [0.625, 0.625, 0.125], "properties": {"magmom": 0.0}, "label": "Mg", "xyz": [3.20330259125, 3.20330259125, 5.33883386625]}]}, "task_ids": null, "uncorrected_energy_per_atom": null, "energy_per_atom": -3.311101968333332, "formation_energy_per_atom": -0.054424791666665, "energy_above_hull": 0.008698931666667001, "is_stable": false, "equilibrium_reaction_energy_per_atom": null, "decomposes_to": null, "xas": null, "grain_boundaries": null, "band_gap": 0.0, "cbm": null, "vbm": null, "efermi": 3.25021952, "is_gap_direct": null, "is_metal": null, "es_source_calc_id": null, "bandstructure": null, "dos": null, "dos_energy_up": null, "dos_energy_down": null, "is_magnetic": null, "ordering": null, "total_magnetization": 0.0010751, "total_magnetization_normalized_vol": null, "total_magnetization_normalized_formula_units": null, "num_magnetic_sites": null, "num_unique_magnetic_sites": null, "types_of_magnetic_species": null, "bulk_modulus": null, "shear_modulus": null, "universal_anisotropy": null, "homogeneous_poisson": null, "e_total": null, "e_ionic": null, "e_electronic": null, "n": null, "e_ij_max": null, "weighted_surface_energy_EV_PER_ANG2": null, "weighted_surface_energy": null, "weighted_work_function": null, "surface_anisotropy": null, "shape_factor": null, "has_reconstructed": null, "possible_species": null, "has_props": null, "theoretical": null, "database_IDs": null, "fields_not_requested": ["builder_meta", "nsites", "elements", "nelements", "composition", "composition_reduced", "chemsys", "symmetry", "property_name", "deprecated", "deprecation_reasons", "last_updated", "origins", "warnings", "task_ids", "uncorrected_energy_per_atom", "equilibrium_reaction_energy_per_atom", "decomposes_to", "xas", "grain_boundaries", "cbm", "vbm", "is_gap_direct", "is_metal", "es_source_calc_id", "bandstructure", "dos", "dos_energy_up", "dos_energy_down", "is_magnetic", "ordering", "total_magnetization_normalized_vol", "total_magnetization_normalized_formula_units", "num_magnetic_sites", "num_unique_magnetic_sites", "types_of_magnetic_species", "bulk_modulus", "shear_modulus", "universal_anisotropy", "homogeneous_poisson", "e_total", "e_ionic", "e_electronic", "n", "e_ij_max", "weighted_surface_energy_EV_PER_ANG2", "weighted_surface_energy", "weighted_work_function", "surface_anisotropy", "shape_factor", "has_reconstructed", "possible_species", "has_props", "theoretical", "database_IDs"]}