{
  "builder_meta": null,
  "nsites": null,
  "elements": null,
  "nelements": null,
  "composition": null,
  "composition_reduced": null,
  "formula_pretty": "YMg5",
  "formula_anonymous": "AB5",
  "chemsys": null,
  "volume": 146.5476357926055,
  "density": 2.384403169337762,
  "density_atomic": 24.42460596543425,
  "symmetry": null,
  "property_name": null,
  "material_id": "mp-981252",
  "deprecated": null,
  "deprecation_reasons": null,
  "last_updated": null,
  "origins": null,
  "warnings": null,
  "structure": {
    "@module": "pymatgen.core.structure",
    "@class": "Structure",
    "charge": 0,
    "lattice": {
      "matrix": [
        [1.83889761, 5.95245682, 0.01466648],
        [-1.83889761, 5.95245682, 0.01466648],
        [0.0, 2.14181038, 6.6994208]
      ],
      "pbc": [true, true, true],
      "a": 6.230048291920682,
      "b": 6.230048291920682,
      "c": 7.033462217098233,
      "alpha": 72.95089256088498,
      "beta": 72.95089256088498,
      "gamma": 34.3349675789095,
      "volume": 146.54763579260546
    },
    "properties": {},
    "sites": [
      {
        "species": [{ "element": "Y", "occu": 1 }],
        "abc": [0.5, 0.5, 0.5],
        "properties": { "magmom": 0.0 },
        "label": "Y",
        "xyz": [0.0, 7.02336201, 3.36437688]
      },
      {
        "species": [{ "element": "Mg", "occu": 1 }],
        "abc": [0.17599165, 0.17599165, 0.67103527],
        "properties": { "magmom": -0.0 },
        "label": "Mg",
        "xyz": [0.0, 3.5323957012432086, 4.5007100014014]
      },
      {
        "species": [{ "element": "Mg", "occu": 1 }],
        "abc": [0.82746008, 0.82746008, 0.84613128],
        "properties": { "magmom": -0.0 },
        "label": "Mg",
        "xyz": [0.0, 11.663093551294178, 5.692861350190862]
      },
      {
        "species": [{ "element": "Mg", "occu": 1 }],
        "abc": [0.5, 0.5, 0.0],
        "properties": { "magmom": 0.0 },
        "label": "Mg",
        "xyz": [0.0, 5.95245682, 0.01466648]
      },
      {
        "species": [{ "element": "Mg", "occu": 1 }],
        "abc": [0.17253992, 0.17253992, 0.15386872000000001],
        "properties": { "magmom": -0.0 },
        "label": "Mg",
        "xyz": [0.0, 2.3836304687058227, 1.0358924098091393]
      },
      {
        "species": [{ "element": "Mg", "occu": 1 }],
        "abc": [0.8240083500000001, 0.8240083500000001, 0.32896473],
        "properties": { "magmom": -0.0 },
        "label": "Mg",
        "xyz": [0.0, 10.51432831875679, 2.2280437585986]
      }
    ]
  },
  "task_ids": null,
  "uncorrected_energy_per_atom": null,
  "energy_per_atom": -2.429362261666666,
  "formation_energy_per_atom": 0.014211334166667,
  "energy_above_hull": 0.052542563333332,
  "is_stable": false,
  "equilibrium_reaction_energy_per_atom": null,
  "decomposes_to": null,
  "xas": null,
  "grain_boundaries": null,
  "band_gap": 0.0,
  "cbm": null,
  "vbm": null,
  "efermi": 3.30501423,
  "is_gap_direct": null,
  "is_metal": null,
  "es_source_calc_id": null,
  "bandstructure": null,
  "dos": null,
  "dos_energy_up": null,
  "dos_energy_down": null,
  "is_magnetic": null,
  "ordering": null,
  "total_magnetization": 4e-7,
  "total_magnetization_normalized_vol": null,
  "total_magnetization_normalized_formula_units": null,
  "num_magnetic_sites": null,
  "num_unique_magnetic_sites": null,
  "types_of_magnetic_species": null,
  "bulk_modulus": null,
  "shear_modulus": null,
  "universal_anisotropy": null,
  "homogeneous_poisson": null,
  "e_total": null,
  "e_ionic": null,
  "e_electronic": null,
  "n": null,
  "e_ij_max": null,
  "weighted_surface_energy_EV_PER_ANG2": null,
  "weighted_surface_energy": null,
  "weighted_work_function": null,
  "surface_anisotropy": null,
  "shape_factor": null,
  "has_reconstructed": null,
  "possible_species": null,
  "has_props": null,
  "theoretical": null,
  "database_IDs": null,
  "fields_not_requested": [
    "builder_meta",
    "nsites",
    "elements",
    "nelements",
    "composition",
    "composition_reduced",
    "chemsys",
    "symmetry",
    "property_name",
    "deprecated",
    "deprecation_reasons",
    "last_updated",
    "origins",
    "warnings",
    "task_ids",
    "uncorrected_energy_per_atom",
    "equilibrium_reaction_energy_per_atom",
    "decomposes_to",
    "xas",
    "grain_boundaries",
    "cbm",
    "vbm",
    "is_gap_direct",
    "is_metal",
    "es_source_calc_id",
    "bandstructure",
    "dos",
    "dos_energy_up",
    "dos_energy_down",
    "is_magnetic",
    "ordering",
    "total_magnetization_normalized_vol",
    "total_magnetization_normalized_formula_units",
    "num_magnetic_sites",
    "num_unique_magnetic_sites",
    "types_of_magnetic_species",
    "bulk_modulus",
    "shear_modulus",
    "universal_anisotropy",
    "homogeneous_poisson",
    "e_total",
    "e_ionic",
    "e_electronic",
    "n",
    "e_ij_max",
    "weighted_surface_energy_EV_PER_ANG2",
    "weighted_surface_energy",
    "weighted_work_function",
    "surface_anisotropy",
    "shape_factor",
    "has_reconstructed",
    "possible_species",
    "has_props",
    "theoretical",
    "database_IDs"
  ]
}
