{
  "builder_meta": null,
  "nsites": null,
  "elements": null,
  "nelements": null,
  "composition": null,
  "composition_reduced": null,
  "formula_pretty": "YMg7",
  "formula_anonymous": "AB7",
  "chemsys": null,
  "volume": 193.62603963605048,
  "density": 2.221537206869478,
  "density_atomic": 24.20325495450631,
  "symmetry": null,
  "property_name": null,
  "material_id": "mp-1016277",
  "deprecated": null,
  "deprecation_reasons": null,
  "last_updated": null,
  "origins": null,
  "warnings": null,
  "structure": {
    "@module": "pymatgen.core.structure",
    "@class": "Structure",
    "charge": 0,
    "lattice": {
      "matrix": [
        [6.58606412, -6.099999999999997e-6, 0.0],
        [-3.29303765, 5.70369501, -0.0],
        [0.0, -0.0, 5.15444305]
      ],
      "pbc": [true, true, true],
      "a": 6.586064120002825,
      "b": 6.586063599102002,
      "c": 5.15444305,
      "alpha": 90.0,
      "beta": 90.0,
      "gamma": 120.0001118372031,
      "volume": 193.62603963605048
    },
    "properties": {},
    "sites": [
      {
        "species": [{ "element": "Y", "occu": 1 }],
        "abc": [0.166666999999999, 0.333333, 0.25],
        "properties": { "magmom": 0.0 },
        "label": "Y",
        "xyz": [1.4297005834773557e-6, 1.90122875209963, 1.2886107625]
      },
      {
        "species": [{ "element": "Mg", "occu": 1 }],
        "abc": [0.17508025, 0.83753962, 0.25],
        "properties": { "magmom": 0.0 },
        "label": "Mg",
        "xyz": [-1.6049597493810634, 4.777069483281771, 1.2886107625]
      },
      {
        "species": [{ "element": "Mg", "occu": 1 }],
        "abc": [0.66246038, 0.32491975, 0.25],
        "properties": { "magmom": 0.0 },
        "label": "Mg",
        "xyz": [3.293033569660978, 1.8532391157171295, 1.2886107625]
      },
      {
        "species": [{ "element": "Mg", "occu": 1 }],
        "abc": [0.66246038, 0.83753862, 0.25],
        "properties": { "magmom": 0.0 },
        "label": "Mg",
        "xyz": [1.6049603306505222, 4.777060806567968, 1.2886107625]
      },
      {
        "species": [{ "element": "Mg", "occu": 1 }],
        "abc": [0.33637464, 0.16362536, 0.75],
        "properties": { "magmom": 0.0 },
        "label": "Mg",
        "xyz": [1.6765604764071127, 0.9332670974561496, 3.8658322875]
      },
      {
        "species": [{ "element": "Mg", "occu": 1 }],
        "abc": [0.33637464, 0.67275027, 0.75],
        "properties": { "magmom": 0.0 },
        "label": "Mg",
        "xyz": [-7.0207757487672495e-6, 3.8371603060898485, 3.8658322875]
      },
      {
        "species": [{ "element": "Mg", "occu": 1 }],
        "abc": [0.82724973, 0.16362536, 0.75],
        "properties": { "magmom": 0.0 },
        "label": "Mg",
        "xyz": [4.9094952940578835, 0.9332641031181006, 3.8658322875]
      },
      {
        "species": [{ "element": "Mg", "occu": 1 }],
        "abc": [0.833333, 0.666667, 0.75],
        "properties": { "magmom": -0.0 },
        "label": "Mg",
        "xyz": [3.2930250402994092, 3.80246015790037, 3.8658322875]
      }
    ]
  },
  "task_ids": null,
  "uncorrected_energy_per_atom": null,
  "energy_per_atom": -2.2115855625,
  "formation_energy_per_atom": 0.028712138124999002,
  "energy_above_hull": 0.057460559999999,
  "is_stable": false,
  "equilibrium_reaction_energy_per_atom": null,
  "decomposes_to": null,
  "xas": null,
  "grain_boundaries": null,
  "band_gap": 0.0,
  "cbm": null,
  "vbm": null,
  "efermi": 3.21155876,
  "is_gap_direct": null,
  "is_metal": null,
  "es_source_calc_id": null,
  "bandstructure": null,
  "dos": null,
  "dos_energy_up": null,
  "dos_energy_down": null,
  "is_magnetic": null,
  "ordering": null,
  "total_magnetization": 0.0007203,
  "total_magnetization_normalized_vol": null,
  "total_magnetization_normalized_formula_units": null,
  "num_magnetic_sites": null,
  "num_unique_magnetic_sites": null,
  "types_of_magnetic_species": null,
  "bulk_modulus": null,
  "shear_modulus": null,
  "universal_anisotropy": null,
  "homogeneous_poisson": null,
  "e_total": null,
  "e_ionic": null,
  "e_electronic": null,
  "n": null,
  "e_ij_max": null,
  "weighted_surface_energy_EV_PER_ANG2": null,
  "weighted_surface_energy": null,
  "weighted_work_function": null,
  "surface_anisotropy": null,
  "shape_factor": null,
  "has_reconstructed": null,
  "possible_species": null,
  "has_props": null,
  "theoretical": null,
  "database_IDs": null,
  "fields_not_requested": [
    "builder_meta",
    "nsites",
    "elements",
    "nelements",
    "composition",
    "composition_reduced",
    "chemsys",
    "symmetry",
    "property_name",
    "deprecated",
    "deprecation_reasons",
    "last_updated",
    "origins",
    "warnings",
    "task_ids",
    "uncorrected_energy_per_atom",
    "equilibrium_reaction_energy_per_atom",
    "decomposes_to",
    "xas",
    "grain_boundaries",
    "cbm",
    "vbm",
    "is_gap_direct",
    "is_metal",
    "es_source_calc_id",
    "bandstructure",
    "dos",
    "dos_energy_up",
    "dos_energy_down",
    "is_magnetic",
    "ordering",
    "total_magnetization_normalized_vol",
    "total_magnetization_normalized_formula_units",
    "num_magnetic_sites",
    "num_unique_magnetic_sites",
    "types_of_magnetic_species",
    "bulk_modulus",
    "shear_modulus",
    "universal_anisotropy",
    "homogeneous_poisson",
    "e_total",
    "e_ionic",
    "e_electronic",
    "n",
    "e_ij_max",
    "weighted_surface_energy_EV_PER_ANG2",
    "weighted_surface_energy",
    "weighted_work_function",
    "surface_anisotropy",
    "shape_factor",
    "has_reconstructed",
    "possible_species",
    "has_props",
    "theoretical",
    "database_IDs"
  ]
}
