{"builder_meta": null, "nsites": null, "elements": null, "nelements": null, "composition": null, "composition_reduced": null, "formula_pretty": "YMn2", "formula_anonymous": "AB2", "chemsys": null, "volume": 190.02980488069147, "density": 6.948071694580295, "density_atomic": 15.835817073390956, "symmetry": null, "property_name": null, "material_id": "mp-1103127", "deprecated": null, "deprecation_reasons": null, "last_updated": null, "origins": null, "warnings": null, "structure": {"@module": "pymatgen.core.structure", "@class": "Structure", "charge": 0, "lattice": {"matrix": [[-2.572799, -4.441452, 0.0], [-2.572799, 4.441452, 0.0], [0.0, 0.0, -8.314974]], "pbc": [true, true, true], "a": 5.1328150719371335, "b": 5.1328150719371335, "c": 8.314974, "alpha": 90.0, "beta": 90.0, "gamma": 119.83516582690272, "volume": 190.02980488069147}, "properties": {}, "sites": [{"species": [{"element": "Y", "occu": 1}], "abc": [0.6667000000000001, 0.33330000000000004, 0.562863999999999], "properties": {"magmom": -0.014}, "label": "Y", "xyz": [-2.5727990000000003, -1.4807800968, -4.680199525535992]}, {"species": [{"element": "Y", "occu": 1}], "abc": [0.33330000000000004, 0.6667000000000001, 0.437135999999999], "properties": {"magmom": -0.014}, "label": "Y", "xyz": [-2.5727990000000003, 1.4807800968, -3.634774474463992]}, {"species": [{"element": "Y", "occu": 1}], "abc": [0.33330000000000004, 0.6667000000000001, 0.062864], "properties": {"magmom": -0.012}, "label": "Y", "xyz": [-2.5727990000000003, 1.4807800968, -0.522712525536]}, {"species": [{"element": "Y", "occu": 1}], "abc": [0.6667000000000001, 0.33330000000000004, 0.937136], "properties": {"magmom": -0.012}, "label": "Y", "xyz": [-2.5727990000000003, -1.4807800968, -7.7922614744639995]}, {"species": [{"element": "Mn", "occu": 1}], "abc": [0.0, 0.0, 0.5], "properties": {"magmom": -1.988}, "label": "Mn", "xyz": [0.0, 0.0, -4.157487]}, {"species": [{"element": "Mn", "occu": 1}], "abc": [0.0, 0.0, 0.0], "properties": {"magmom": -2.021}, "label": "Mn", "xyz": [0.0, 0.0, 0.0]}, {"species": [{"element": "Mn", "occu": 1}], "abc": [0.167298, 0.335155, 0.75], "properties": {"magmom": 2.118}, "label": "Mn", "xyz": [-1.292710575947, 0.7455288083639998, -6.2362305]}, {"species": [{"element": "Mn", "occu": 1}], "abc": [0.167720999999999, 0.832279, 0.75], "properties": {"magmom": -2.032}, "label": "Mn", "xyz": [-2.5727989999999976, 2.951602458216004, -6.2362305]}, {"species": [{"element": "Mn", "occu": 1}], "abc": [0.664845, 0.832701999999999, 0.75], "properties": {"magmom": 2.072}, "label": "Mn", "xyz": [-3.852887424052997, 0.7455288083639959, -6.2362305]}, {"species": [{"element": "Mn", "occu": 1}], "abc": [0.832701999999999, 0.664845, 0.25], "properties": {"magmom": 2.118}, "label": "Mn", "xyz": [-3.852887424052997, -0.7455288083639959, -2.0787435]}, {"species": [{"element": "Mn", "occu": 1}], "abc": [0.832279, 0.167720999999999, 0.25], "properties": {"magmom": -2.032}, "label": "Mn", "xyz": [-2.5727989999999976, -2.951602458216004, -2.0787435]}, {"species": [{"element": "Mn", "occu": 1}], "abc": [0.335155, 0.167298, 0.25], "properties": {"magmom": 2.072}, "label": "Mn", "xyz": [-1.292710575947, -0.7455288083639998, -2.0787435]}]}, "task_ids": null, "uncorrected_energy_per_atom": null, "energy_per_atom": -16.454335276641128, "formation_energy_per_atom": 0.10575482703703401, "energy_above_hull": 0.10575482703703501, "is_stable": false, "equilibrium_reaction_energy_per_atom": null, "decomposes_to": null, "xas": null, "grain_boundaries": null, "band_gap": 0.0, "cbm": null, "vbm": null, "efermi": 5.12864851, "is_gap_direct": null, "is_metal": null, "es_source_calc_id": null, "bandstructure": null, "dos": null, "dos_energy_up": null, "dos_energy_down": null, "is_magnetic": null, "ordering": null, "total_magnetization": 0.267814899999999, "total_magnetization_normalized_vol": null, "total_magnetization_normalized_formula_units": null, "num_magnetic_sites": null, "num_unique_magnetic_sites": null, "types_of_magnetic_species": null, "bulk_modulus": null, "shear_modulus": null, "universal_anisotropy": null, "homogeneous_poisson": null, "e_total": null, "e_ionic": null, "e_electronic": null, "n": null, "e_ij_max": null, "weighted_surface_energy_EV_PER_ANG2": null, "weighted_surface_energy": null, "weighted_work_function": null, "surface_anisotropy": null, "shape_factor": null, "has_reconstructed": null, "possible_species": null, "has_props": null, "theoretical": null, "database_IDs": null, "fields_not_requested": ["builder_meta", "nsites", "elements", "nelements", "composition", "composition_reduced", "chemsys", "symmetry", "property_name", "deprecated", "deprecation_reasons", "last_updated", "origins", "warnings", "task_ids", "uncorrected_energy_per_atom", "equilibrium_reaction_energy_per_atom", "decomposes_to", "xas", "grain_boundaries", "cbm", "vbm", "is_gap_direct", "is_metal", "es_source_calc_id", "bandstructure", "dos", "dos_energy_up", "dos_energy_down", "is_magnetic", "ordering", "total_magnetization_normalized_vol", "total_magnetization_normalized_formula_units", "num_magnetic_sites", "num_unique_magnetic_sites", "types_of_magnetic_species", "bulk_modulus", "shear_modulus", "universal_anisotropy", "homogeneous_poisson", "e_total", "e_ionic", "e_electronic", "n", "e_ij_max", "weighted_surface_energy_EV_PER_ANG2", "weighted_surface_energy", "weighted_work_function", "surface_anisotropy", "shape_factor", "has_reconstructed", "possible_species", "has_props", "theoretical", "database_IDs"]}