{"builder_meta": null, "nsites": null, "elements": null, "nelements": null, "composition": null, "composition_reduced": null, "formula_pretty": "YNi", "formula_anonymous": "AB", "chemsys": null, "volume": 160.34471812251934, "density": 6.1141850806356715, "density_atomic": 20.043089765314917, "symmetry": null, "property_name": null, "material_id": "mp-1364", "deprecated": null, "deprecation_reasons": null, "last_updated": null, "origins": null, "warnings": null, "structure": {"@module": "pymatgen.core.structure", "@class": "Structure", "charge": 0, "lattice": {"matrix": [[4.10365526, -3.061e-05, -0.0019431700000000001], [-2.2910000000000003e-05, 5.45058588, -6.367e-05], [0.00354411, -6.201e-05, 7.16870156]], "pbc": [true, true, true], "a": 4.103655720180762, "b": 5.4505858804200225, "c": 7.168702436348392, "alpha": 90.00116502319563, "beta": 89.99880452838264, "gamma": 90.00066789052991, "volume": 160.3447181225193}, "properties": {}, "sites": [{"species": [{"element": "Y", "occu": 1}], "abc": [0.74999104, 0.8677519300000001, 0.8196328700000001], "properties": {"magmom": -0.0}, "label": "Y", "xyz": [3.0805896651030498, 4.729682634340746, 5.874190823941698]}, {"species": [{"element": "Y", "occu": 1}], "abc": [0.24999386, 0.36777589, 0.68030283], "properties": {"magmom": -0.0}, "label": "Y", "xyz": [1.028291260873895, 2.00454423514789, 4.876378761833562]}, {"species": [{"element": "Y", "occu": 1}], "abc": [0.25000896, 0.13224807, 0.18036713000000001], "properties": {"magmom": -0.0}, "label": "Y", "xyz": [1.0265867948969503, 0.7208106256592547, 1.2925038960583028]}, {"species": [{"element": "Y", "occu": 1}], "abc": [0.75000614, 0.63222411, 0.31969717000000003], "properties": {"magmom": -0.0}, "label": "Y", "xyz": [3.078885199126105, 3.4459490248521103, 2.290315958166438]}, {"species": [{"element": "Ni", "occu": 1}], "abc": [0.75000603, 0.38044186, 0.96444355], "properties": {"magmom": 0.0}, "label": "Ni", "xyz": [3.0811755681481956, 2.0735482674478236, 6.912326369466397]}, {"species": [{"element": "Ni", "occu": 1}], "abc": [0.2499929, 0.88038992, 0.5354614400000001], "properties": {"magmom": -0.0}, "label": "Ni", "xyz": [1.027762243558705, 4.798600010599766, 3.838021427118147]}, {"species": [{"element": "Ni", "occu": 1}], "abc": [0.24999397, 0.61955814, 0.03555645], "properties": {"magmom": 0.0}, "label": "Ni", "xyz": [1.0260008918518044, 3.376944992552177, 0.2543683505336033]}, {"species": [{"element": "Ni", "occu": 1}], "abc": [0.750007099999999, 0.11961008000000001, 0.46453856], "properties": {"magmom": -0.0}, "label": "Ni", "xyz": [3.0794142164412905, 0.651893249400234, 3.328673292881853]}]}, "task_ids": null, "uncorrected_energy_per_atom": null, "energy_per_atom": -6.555128798750001, "formation_energy_per_atom": -0.410514708749999, "energy_above_hull": 0.0, "is_stable": true, "equilibrium_reaction_energy_per_atom": null, "decomposes_to": null, "xas": null, "grain_boundaries": null, "band_gap": 0.0, "cbm": null, "vbm": null, "efermi": 4.79436289, "is_gap_direct": null, "is_metal": null, "es_source_calc_id": null, "bandstructure": null, "dos": null, "dos_energy_up": null, "dos_energy_down": null, "is_magnetic": null, "ordering": null, "total_magnetization": 4e-07, "total_magnetization_normalized_vol": null, "total_magnetization_normalized_formula_units": null, "num_magnetic_sites": null, "num_unique_magnetic_sites": null, "types_of_magnetic_species": null, "bulk_modulus": null, "shear_modulus": null, "universal_anisotropy": null, "homogeneous_poisson": null, "e_total": null, "e_ionic": null, "e_electronic": null, "n": null, "e_ij_max": null, "weighted_surface_energy_EV_PER_ANG2": null, "weighted_surface_energy": null, "weighted_work_function": null, "surface_anisotropy": null, "shape_factor": null, "has_reconstructed": null, "possible_species": null, "has_props": null, "theoretical": null, "database_IDs": null, "fields_not_requested": ["builder_meta", "nsites", "elements", "nelements", "composition", "composition_reduced", "chemsys", "symmetry", "property_name", "deprecated", "deprecation_reasons", "last_updated", "origins", "warnings", "task_ids", "uncorrected_energy_per_atom", "equilibrium_reaction_energy_per_atom", "decomposes_to", "xas", "grain_boundaries", "cbm", "vbm", "is_gap_direct", "is_metal", "es_source_calc_id", "bandstructure", "dos", "dos_energy_up", "dos_energy_down", "is_magnetic", "ordering", "total_magnetization_normalized_vol", "total_magnetization_normalized_formula_units", "num_magnetic_sites", "num_unique_magnetic_sites", "types_of_magnetic_species", "bulk_modulus", "shear_modulus", "universal_anisotropy", "homogeneous_poisson", "e_total", "e_ionic", "e_electronic", "n", "e_ij_max", "weighted_surface_energy_EV_PER_ANG2", "weighted_surface_energy", "weighted_work_function", "surface_anisotropy", "shape_factor", "has_reconstructed", "possible_species", "has_props", "theoretical", "database_IDs"]}