{"builder_meta": null, "nsites": null, "elements": null, "nelements": null, "composition": null, "composition_reduced": null, "formula_pretty": "YNi2", "formula_anonymous": "AB2", "chemsys": null, "volume": 90.26602651002197, "density": 7.58994314299206, "density_atomic": 15.044337751670328, "symmetry": null, "property_name": null, "material_id": "mp-1019", "deprecated": null, "deprecation_reasons": null, "last_updated": null, "origins": null, "warnings": null, "structure": {"@module": "pymatgen.core.structure", "@class": "Structure", "charge": 0, "lattice": {"matrix": [[4.36057502, 0.0, 2.5175791800000002], [1.45352501, 4.11118886, 2.5175791800000002], [-0.0, -0.0, 5.03515837]], "pbc": [true, true, true], "a": 5.035158332427836, "b": 5.035157765636851, "c": 5.03515837, "alpha": 59.999996095181906, "beta": 59.999999818857766, "gamma": 59.9999961176322, "volume": 90.26602651002197}, "properties": {}, "sites": [{"species": [{"element": "Y", "occu": 1}], "abc": [0.875, 0.875, 0.875], "properties": {"magmom": -0.0}, "label": "Y", "xyz": [5.08733752625, 3.5972902525000006, 8.811527138750002]}, {"species": [{"element": "Y", "occu": 1}], "abc": [0.125, 0.125, 0.125], "properties": {"magmom": -0.0}, "label": "Y", "xyz": [0.72676250375, 0.5138986075, 1.2587895912500002]}, {"species": [{"element": "Ni", "occu": 1}], "abc": [0.5, 0.0, 0.5], "properties": {"magmom": 0.0}, "label": "Ni", "xyz": [2.18028751, 0.0, 3.7763687750000003]}, {"species": [{"element": "Ni", "occu": 1}], "abc": [-0.0, 0.5, 0.5], "properties": {"magmom": 0.0}, "label": "Ni", "xyz": [0.726762505, 2.05559443, 3.7763687750000003]}, {"species": [{"element": "Ni", "occu": 1}], "abc": [0.5, 0.5, 0.5], "properties": {"magmom": 0.0}, "label": "Ni", "xyz": [2.907050015, 2.05559443, 5.035158365000001]}, {"species": [{"element": "Ni", "occu": 1}], "abc": [0.5, 0.5, 0.0], "properties": {"magmom": 0.0}, "label": "Ni", "xyz": [2.907050015, 2.05559443, 2.5175791800000002]}]}, "task_ids": null, "uncorrected_energy_per_atom": null, "energy_per_atom": -6.426280541666666, "formation_energy_per_atom": -0.403158921666666, "energy_above_hull": 0.005393703529413, "is_stable": false, "equilibrium_reaction_energy_per_atom": null, "decomposes_to": null, "xas": null, "grain_boundaries": null, "band_gap": 0.0, "cbm": null, "vbm": null, "efermi": 5.99512864, "is_gap_direct": null, "is_metal": null, "es_source_calc_id": null, "bandstructure": null, "dos": null, "dos_energy_up": null, "dos_energy_down": null, "is_magnetic": null, "ordering": null, "total_magnetization": 5.2100000000000006e-05, "total_magnetization_normalized_vol": null, "total_magnetization_normalized_formula_units": null, "num_magnetic_sites": null, "num_unique_magnetic_sites": null, "types_of_magnetic_species": null, "bulk_modulus": null, "shear_modulus": null, "universal_anisotropy": null, "homogeneous_poisson": null, "e_total": null, "e_ionic": null, "e_electronic": null, "n": null, "e_ij_max": null, "weighted_surface_energy_EV_PER_ANG2": null, "weighted_surface_energy": null, "weighted_work_function": null, "surface_anisotropy": null, "shape_factor": null, "has_reconstructed": null, "possible_species": null, "has_props": null, "theoretical": null, "database_IDs": null, "fields_not_requested": ["builder_meta", "nsites", "elements", "nelements", "composition", "composition_reduced", "chemsys", "symmetry", "property_name", "deprecated", "deprecation_reasons", "last_updated", "origins", "warnings", "task_ids", "uncorrected_energy_per_atom", "equilibrium_reaction_energy_per_atom", "decomposes_to", "xas", "grain_boundaries", "cbm", "vbm", "is_gap_direct", "is_metal", "es_source_calc_id", "bandstructure", "dos", "dos_energy_up", "dos_energy_down", "is_magnetic", "ordering", "total_magnetization_normalized_vol", "total_magnetization_normalized_formula_units", "num_magnetic_sites", "num_unique_magnetic_sites", "types_of_magnetic_species", "bulk_modulus", "shear_modulus", "universal_anisotropy", "homogeneous_poisson", "e_total", "e_ionic", "e_electronic", "n", "e_ij_max", "weighted_surface_energy_EV_PER_ANG2", "weighted_surface_energy", "weighted_work_function", "surface_anisotropy", "shape_factor", "has_reconstructed", "possible_species", "has_props", "theoretical", "database_IDs"]}