{"builder_meta": null, "nsites": null, "elements": null, "nelements": null, "composition": null, "composition_reduced": null, "formula_pretty": "YNi3", "formula_anonymous": "AB3", "chemsys": null, "volume": 169.48154134841906, "density": 7.788807287711017, "density_atomic": 14.12346177903492, "symmetry": null, "property_name": null, "material_id": "mp-569196", "deprecated": null, "deprecation_reasons": null, "last_updated": null, "origins": null, "warnings": null, "structure": {"@module": "pymatgen.core.structure", "@class": "Structure", "charge": 0, "lattice": {"matrix": [[8.15687261, -2.46813973, -0.00726592], [8.15687057, 2.46813259, -0.00726591], [7.41380374, -3.06e-06, 4.20259703]], "pbc": [true, true, true], "a": 8.52210873529352, "b": 8.522104714857733, "c": 8.522106998378522, "alpha": 33.669909470219885, "beta": 33.66990709063875, "gamma": 33.669903477109585, "volume": 169.48154134841906}, "properties": {}, "sites": [{"species": [{"element": "Y", "occu": 1}], "abc": [0.86119329, 0.86119329, 0.86119329], "properties": {"magmom": -0.099}, "label": "Y", "xyz": [20.434004195664166, -8.784171557831886e-06, 3.606733648322508]}, {"species": [{"element": "Y", "occu": 1}], "abc": [0.13880671, 0.13880671, 0.13880671], "properties": {"magmom": -0.099}, "label": "Y", "xyz": [3.2935427243358335, -1.4158284419626466e-06, 0.581331551677492]}, {"species": [{"element": "Y", "occu": 1}], "abc": [0.0, 0.0, -0.0], "properties": {"magmom": -0.097}, "label": "Y", "xyz": [0.0, 0.0, 0.0]}, {"species": [{"element": "Ni", "occu": 1}], "abc": [0.41826318, 0.41826318, 0.91987797], "properties": {"magmom": 0.304}, "label": "Ni", "xyz": [13.64323283449972, -5.801225693098397e-06, 3.8597982952574097]}, {"species": [{"element": "Ni", "occu": 1}], "abc": [0.91987797, 0.41826318, 0.41826318], "properties": {"magmom": 0.304}, "label": "Ni", "xyz": [14.015967169680309, -1.2380596586390424, 1.7480687756643791]}, {"species": [{"element": "Ni", "occu": 1}], "abc": [0.5, 0.5, 0.5], "properties": {"magmom": 0.131}, "label": "Ni", "xyz": [11.86377346, -5.099999999841755e-06, 2.0940326]}, {"species": [{"element": "Ni", "occu": 1}], "abc": [0.58173682, 0.08012103, 0.58173682], "properties": {"magmom": 0.304}, "label": "Ni", "xyz": [9.711572616743295, -1.2380602126731601, 2.439996426585383]}, {"species": [{"element": "Ni", "occu": 1}], "abc": [0.58173682, 0.58173682, 0.08012203], "properties": {"magmom": 0.304}, "label": "Ni", "xyz": [10.084314085500282, -4.3987743063630696e-06, 0.32826690474259024]}, {"species": [{"element": "Ni", "occu": 1}], "abc": [0.3332218, 0.3332188, 0.3332188], "properties": {"magmom": 0.404}, "label": "Ni", "xyz": [7.906489182243925, -1.0803250949897715e-05, 1.3955420384679997]}, {"species": [{"element": "Ni", "occu": 1}], "abc": [0.41826318, 0.9198789700000001, 0.41826318], "properties": {"magmom": 0.304}, "label": "Ni", "xyz": [14.015974303256707, 1.2380500126731604, 1.7480687734146172]}, {"species": [{"element": "Ni", "occu": 1}], "abc": [0.6667782, 0.6667812, 0.6667812], "properties": {"magmom": 0.404}, "label": "Ni", "xyz": [15.821057737756075, 6.032509502142036e-07, 2.7925231615319994]}, {"species": [{"element": "Ni", "occu": 1}], "abc": [0.08012203, 0.58173682, 0.58173682], "properties": {"magmom": 0.304}, "label": "Ni", "xyz": [9.711579750319693, 1.238049458639043, 2.4399964243356207]}]}, "task_ids": null, "uncorrected_energy_per_atom": null, "energy_per_atom": -6.346820701666665, "formation_energy_per_atom": -0.38444531666666504, "energy_above_hull": 0.0, "is_stable": true, "equilibrium_reaction_energy_per_atom": null, "decomposes_to": null, "xas": null, "grain_boundaries": null, "band_gap": 0.0, "cbm": null, "vbm": null, "efermi": 6.29827414, "is_gap_direct": null, "is_metal": null, "es_source_calc_id": null, "bandstructure": null, "dos": null, "dos_energy_up": null, "dos_energy_down": null, "is_magnetic": null, "ordering": null, "total_magnetization": 2.1304714, "total_magnetization_normalized_vol": null, "total_magnetization_normalized_formula_units": null, "num_magnetic_sites": null, "num_unique_magnetic_sites": null, "types_of_magnetic_species": null, "bulk_modulus": null, "shear_modulus": null, "universal_anisotropy": null, "homogeneous_poisson": null, "e_total": null, "e_ionic": null, "e_electronic": null, "n": null, "e_ij_max": null, "weighted_surface_energy_EV_PER_ANG2": null, "weighted_surface_energy": null, "weighted_work_function": null, "surface_anisotropy": null, "shape_factor": null, "has_reconstructed": null, "possible_species": null, "has_props": null, "theoretical": null, "database_IDs": null, "fields_not_requested": ["builder_meta", "nsites", "elements", "nelements", "composition", "composition_reduced", "chemsys", "symmetry", "property_name", "deprecated", "deprecation_reasons", "last_updated", "origins", "warnings", "task_ids", "uncorrected_energy_per_atom", "equilibrium_reaction_energy_per_atom", "decomposes_to", "xas", "grain_boundaries", "cbm", "vbm", "is_gap_direct", "is_metal", "es_source_calc_id", "bandstructure", "dos", "dos_energy_up", "dos_energy_down", "is_magnetic", "ordering", "total_magnetization_normalized_vol", "total_magnetization_normalized_formula_units", "num_magnetic_sites", "num_unique_magnetic_sites", "types_of_magnetic_species", "bulk_modulus", "shear_modulus", "universal_anisotropy", "homogeneous_poisson", "e_total", "e_ionic", "e_electronic", "n", "e_ij_max", "weighted_surface_energy_EV_PER_ANG2", "weighted_surface_energy", "weighted_work_function", "surface_anisotropy", "shape_factor", "has_reconstructed", "possible_species", "has_props", "theoretical", "database_IDs"]}