{
  "builder_meta": null,
  "nsites": null,
  "elements": null,
  "nelements": null,
  "composition": null,
  "composition_reduced": null,
  "formula_pretty": "YNi5",
  "formula_anonymous": "AB5",
  "chemsys": null,
  "volume": 79.34076485400149,
  "density": 8.002759446554021,
  "density_atomic": 13.22346080900025,
  "symmetry": null,
  "property_name": null,
  "material_id": "mp-2152",
  "deprecated": null,
  "deprecation_reasons": null,
  "last_updated": null,
  "origins": null,
  "warnings": null,
  "structure": {
    "@module": "pymatgen.core.structure",
    "@class": "Structure",
    "charge": 0,
    "lattice": {
      "matrix": [
        [4.84287833, -1.126e-5, 0.0],
        [-2.4214493900000003, 4.19404119, -0.0],
        [0.0, -0.0, 3.90625613]
      ],
      "pbc": [true, true, true],
      "a": 4.84287833001309,
      "b": 4.842870910085049,
      "c": 3.90625613,
      "alpha": 90.0,
      "beta": 90.0,
      "gamma": 120.00032358486685,
      "volume": 79.34076485400149
    },
    "properties": {},
    "sites": [
      {
        "species": [{ "element": "Y", "occu": 1 }],
        "abc": [-0.0, -0.0, -0.0],
        "properties": { "magmom": -0.135 },
        "label": "Y",
        "xyz": [0.0, 0.0, 0.0]
      },
      {
        "species": [{ "element": "Ni", "occu": 1 }],
        "abc": [-0.0, 0.5, 0.5],
        "properties": { "magmom": 0.494 },
        "label": "Ni",
        "xyz": [-1.2107246950000001, 2.097020595, 1.953128065]
      },
      {
        "species": [{ "element": "Ni", "occu": 1 }],
        "abc": [0.333333999999999, 0.666667, 0.0],
        "properties": { "magmom": 0.395 },
        "label": "Ni",
        "xyz": [-4.3952309152217595e-6, 2.79602510467289, 0.0]
      },
      {
        "species": [{ "element": "Ni", "occu": 1 }],
        "abc": [0.666666, 0.333333, -0.0],
        "properties": { "magmom": 0.395 },
        "label": "Ni",
        "xyz": [2.4214333352309096, 1.39800482532711, 0.0]
      },
      {
        "species": [{ "element": "Ni", "occu": 1 }],
        "abc": [0.5, -0.0, 0.5],
        "properties": { "magmom": 0.494 },
        "label": "Ni",
        "xyz": [2.421439165, -5.63e-6, 1.953128065]
      },
      {
        "species": [{ "element": "Ni", "occu": 1 }],
        "abc": [0.5, 0.5, 0.5],
        "properties": { "magmom": 0.494 },
        "label": "Ni",
        "xyz": [1.2107144699999997, 2.097014965, 1.953128065]
      }
    ]
  },
  "task_ids": null,
  "uncorrected_energy_per_atom": null,
  "energy_per_atom": -6.213235151666667,
  "formation_energy_per_atom": -0.311606001666666,
  "energy_above_hull": 0.0,
  "is_stable": true,
  "equilibrium_reaction_energy_per_atom": null,
  "decomposes_to": null,
  "xas": null,
  "grain_boundaries": null,
  "band_gap": 0.0,
  "cbm": null,
  "vbm": null,
  "efermi": 6.50155335,
  "is_gap_direct": null,
  "is_metal": null,
  "es_source_calc_id": null,
  "bandstructure": null,
  "dos": null,
  "dos_energy_up": null,
  "dos_energy_down": null,
  "is_magnetic": null,
  "ordering": null,
  "total_magnetization": 1.8905516,
  "total_magnetization_normalized_vol": null,
  "total_magnetization_normalized_formula_units": null,
  "num_magnetic_sites": null,
  "num_unique_magnetic_sites": null,
  "types_of_magnetic_species": null,
  "bulk_modulus": null,
  "shear_modulus": null,
  "universal_anisotropy": null,
  "homogeneous_poisson": null,
  "e_total": null,
  "e_ionic": null,
  "e_electronic": null,
  "n": null,
  "e_ij_max": null,
  "weighted_surface_energy_EV_PER_ANG2": null,
  "weighted_surface_energy": null,
  "weighted_work_function": null,
  "surface_anisotropy": null,
  "shape_factor": null,
  "has_reconstructed": null,
  "possible_species": null,
  "has_props": null,
  "theoretical": null,
  "database_IDs": null,
  "fields_not_requested": [
    "builder_meta",
    "nsites",
    "elements",
    "nelements",
    "composition",
    "composition_reduced",
    "chemsys",
    "symmetry",
    "property_name",
    "deprecated",
    "deprecation_reasons",
    "last_updated",
    "origins",
    "warnings",
    "task_ids",
    "uncorrected_energy_per_atom",
    "equilibrium_reaction_energy_per_atom",
    "decomposes_to",
    "xas",
    "grain_boundaries",
    "cbm",
    "vbm",
    "is_gap_direct",
    "is_metal",
    "es_source_calc_id",
    "bandstructure",
    "dos",
    "dos_energy_up",
    "dos_energy_down",
    "is_magnetic",
    "ordering",
    "total_magnetization_normalized_vol",
    "total_magnetization_normalized_formula_units",
    "num_magnetic_sites",
    "num_unique_magnetic_sites",
    "types_of_magnetic_species",
    "bulk_modulus",
    "shear_modulus",
    "universal_anisotropy",
    "homogeneous_poisson",
    "e_total",
    "e_ionic",
    "e_electronic",
    "n",
    "e_ij_max",
    "weighted_surface_energy_EV_PER_ANG2",
    "weighted_surface_energy",
    "weighted_work_function",
    "surface_anisotropy",
    "shape_factor",
    "has_reconstructed",
    "possible_species",
    "has_props",
    "theoretical",
    "database_IDs"
  ]
}
