{
  "builder_meta": null,
  "nsites": null,
  "elements": null,
  "nelements": null,
  "composition": null,
  "composition_reduced": null,
  "formula_pretty": "YO2",
  "formula_anonymous": "AB2",
  "chemsys": null,
  "volume": 89.18241628377099,
  "density": 4.502387421748615,
  "density_atomic": 14.863736047295165,
  "symmetry": null,
  "property_name": null,
  "material_id": "mp-1206610",
  "deprecated": null,
  "deprecation_reasons": null,
  "last_updated": null,
  "origins": null,
  "warnings": null,
  "structure": {
    "@module": "pymatgen.core.structure",
    "@class": "Structure",
    "charge": 0.0,
    "lattice": {
      "matrix": [
        [3.61061841, 0.0, 0.0],
        [0.0, 4.18780147, 0.00501452],
        [0.0, 1.84359, 5.90029974]
      ],
      "pbc": [true, true, true],
      "a": 3.61061841,
      "b": 4.1878044722198995,
      "c": 6.181614765572509,
      "alpha": 72.57961295713721,
      "beta": 90.0,
      "gamma": 90.0,
      "volume": 89.18241628377099
    },
    "properties": {},
    "sites": [
      {
        "species": [{ "element": "Y", "occu": 1 }],
        "abc": [0.25, 0.170139799999999, 0.18406976],
        "properties": { "magmom": 0.018000000000000002 },
        "label": "Y",
        "xyz": [0.9026546025, 1.0518608733839019, 1.0869199264997587]
      },
      {
        "species": [{ "element": "Y", "occu": 1 }],
        "abc": [0.75, 0.829860199999999, 0.81593024],
        "properties": { "magmom": 0.018000000000000002 },
        "label": "Y",
        "xyz": [2.7079638074999997, 4.97953059661609, 4.818394333500242]
      },
      {
        "species": [{ "element": "O", "occu": 1 }],
        "abc": [0.25, 0.81853593, 0.55293952],
        "properties": { "magmom": -0.843 },
        "label": "O",
        "xyz": [0.9026546025, 4.447259740578618, 3.2666134708834287]
      },
      {
        "species": [{ "element": "O", "occu": 1 }],
        "abc": [0.75, 0.18146407, 0.44706048],
        "properties": { "magmom": -0.843 },
        "label": "O",
        "xyz": [2.7079638074999997, 1.584131729421383, 2.6387007891165717]
      },
      {
        "species": [{ "element": "O", "occu": 1 }],
        "abc": [0.25, 0.7324108300000001, 0.047248820000000004],
        "properties": { "magmom": -0.031 },
        "label": "O",
        "xyz": [0.9026546025, 3.154298602581721, 0.28245488911655847]
      },
      {
        "species": [{ "element": "O", "occu": 1 }],
        "abc": [0.75, 0.26758917, 0.95275118],
        "properties": { "magmom": -0.031 },
        "label": "O",
        "xyz": [2.7079638074999997, 2.8770928674182796, 5.622859370883442]
      }
    ]
  },
  "task_ids": null,
  "uncorrected_energy_per_atom": null,
  "energy_per_atom": -8.580876374999999,
  "formation_energy_per_atom": -3.112538538333332,
  "energy_above_hull": 0.18235473062500002,
  "is_stable": false,
  "equilibrium_reaction_energy_per_atom": null,
  "decomposes_to": null,
  "xas": null,
  "grain_boundaries": null,
  "band_gap": 0.0,
  "cbm": null,
  "vbm": null,
  "efermi": 0.76344649,
  "is_gap_direct": null,
  "is_metal": null,
  "es_source_calc_id": null,
  "bandstructure": null,
  "dos": null,
  "dos_energy_up": null,
  "dos_energy_down": null,
  "is_magnetic": null,
  "ordering": null,
  "total_magnetization": 2.0029873,
  "total_magnetization_normalized_vol": null,
  "total_magnetization_normalized_formula_units": null,
  "num_magnetic_sites": null,
  "num_unique_magnetic_sites": null,
  "types_of_magnetic_species": null,
  "bulk_modulus": null,
  "shear_modulus": null,
  "universal_anisotropy": null,
  "homogeneous_poisson": null,
  "e_total": null,
  "e_ionic": null,
  "e_electronic": null,
  "n": null,
  "e_ij_max": null,
  "weighted_surface_energy_EV_PER_ANG2": null,
  "weighted_surface_energy": null,
  "weighted_work_function": null,
  "surface_anisotropy": null,
  "shape_factor": null,
  "has_reconstructed": null,
  "possible_species": null,
  "has_props": null,
  "theoretical": null,
  "database_IDs": null,
  "fields_not_requested": [
    "builder_meta",
    "nsites",
    "elements",
    "nelements",
    "composition",
    "composition_reduced",
    "chemsys",
    "symmetry",
    "property_name",
    "deprecated",
    "deprecation_reasons",
    "last_updated",
    "origins",
    "warnings",
    "task_ids",
    "uncorrected_energy_per_atom",
    "equilibrium_reaction_energy_per_atom",
    "decomposes_to",
    "xas",
    "grain_boundaries",
    "cbm",
    "vbm",
    "is_gap_direct",
    "is_metal",
    "es_source_calc_id",
    "bandstructure",
    "dos",
    "dos_energy_up",
    "dos_energy_down",
    "is_magnetic",
    "ordering",
    "total_magnetization_normalized_vol",
    "total_magnetization_normalized_formula_units",
    "num_magnetic_sites",
    "num_unique_magnetic_sites",
    "types_of_magnetic_species",
    "bulk_modulus",
    "shear_modulus",
    "universal_anisotropy",
    "homogeneous_poisson",
    "e_total",
    "e_ionic",
    "e_electronic",
    "n",
    "e_ij_max",
    "weighted_surface_energy_EV_PER_ANG2",
    "weighted_surface_energy",
    "weighted_work_function",
    "surface_anisotropy",
    "shape_factor",
    "has_reconstructed",
    "possible_species",
    "has_props",
    "theoretical",
    "database_IDs"
  ]
}
