{
  "builder_meta": null,
  "nsites": null,
  "elements": null,
  "nelements": null,
  "composition": null,
  "composition_reduced": null,
  "formula_pretty": "YO3",
  "formula_anonymous": "AB3",
  "chemsys": null,
  "volume": 125.17917758407711,
  "density": 3.63214598127663,
  "density_atomic": 15.647397198009639,
  "symmetry": null,
  "property_name": null,
  "material_id": "mp-1206099",
  "deprecated": null,
  "deprecation_reasons": null,
  "last_updated": null,
  "origins": null,
  "warnings": null,
  "structure": {
    "@module": "pymatgen.core.structure",
    "@class": "Structure",
    "charge": 0,
    "lattice": {
      "matrix": [
        [0.0, 0.0, -3.423774],
        [-3.248764, -5.627025, 0.0],
        [-3.248764, 5.627025, 0.0]
      ],
      "pbc": [true, true, true],
      "a": 3.423774,
      "b": 6.49752859773014,
      "c": 6.49752859773014,
      "alpha": 120.00000608623827,
      "beta": 90.0,
      "gamma": 90.0,
      "volume": 125.17917758407711
    },
    "properties": {},
    "sites": [
      {
        "species": [{ "element": "Y", "occu": 1 }],
        "abc": [0.25, 0.333333, 0.666667],
        "properties": { "magmom": -0.032 },
        "label": "Y",
        "xyz": [-3.2487639999999995, 1.87567875135, -0.8559435]
      },
      {
        "species": [{ "element": "Y", "occu": 1 }],
        "abc": [0.75, 0.666667, 0.333333],
        "properties": { "magmom": -0.032 },
        "label": "Y",
        "xyz": [-3.2487639999999995, -1.87567875135, -2.5678305]
      },
      {
        "species": [{ "element": "O", "occu": 1 }],
        "abc": [0.25, 0.421826, 0.057111999999999004],
        "properties": { "magmom": 0.8300000000000001 },
        "label": "O",
        "xyz": [-1.5559565326319968, -2.0522547958500055, -0.8559435]
      },
      {
        "species": [{ "element": "O", "occu": 1 }],
        "abc": [0.75, 0.578174, 0.942888],
        "properties": { "magmom": 0.8300000000000001 },
        "label": "O",
        "xyz": [-4.941571467368, 2.0522547958499997, -2.5678305]
      },
      {
        "species": [{ "element": "O", "occu": 1 }],
        "abc": [0.25, 0.942888, 0.364714],
        "properties": { "magmom": 0.846 },
        "label": "O",
        "xyz": [-4.2480903039280005, -3.2533995523499994, -0.8559435]
      },
      {
        "species": [{ "element": "O", "occu": 1 }],
        "abc": [0.75, 0.057111999999999004, 0.635286],
        "properties": { "magmom": 0.846 },
        "label": "O",
        "xyz": [-2.249437696071997, 3.2533995523500057, -2.5678305]
      },
      {
        "species": [{ "element": "O", "occu": 1 }],
        "abc": [0.25, 0.635286, 0.578174],
        "properties": { "magmom": 0.841 },
        "label": "O",
        "xyz": [-3.94224516344, -0.3213706518000006, -0.8559435]
      },
      {
        "species": [{ "element": "O", "occu": 1 }],
        "abc": [0.75, 0.364714, 0.421826],
        "properties": { "magmom": 0.841 },
        "label": "O",
        "xyz": [-2.55528283656, 0.32137065180000013, -2.5678305]
      }
    ]
  },
  "task_ids": null,
  "uncorrected_energy_per_atom": null,
  "energy_per_atom": -7.34868166625,
  "formation_energy_per_atom": -2.0104380375,
  "energy_above_hull": 0.46073191421874904,
  "is_stable": false,
  "equilibrium_reaction_energy_per_atom": null,
  "decomposes_to": null,
  "xas": null,
  "grain_boundaries": null,
  "band_gap": 0.194799999999999,
  "cbm": null,
  "vbm": null,
  "efermi": -0.38940905000000003,
  "is_gap_direct": null,
  "is_metal": null,
  "es_source_calc_id": null,
  "bandstructure": null,
  "dos": null,
  "dos_energy_up": null,
  "dos_energy_down": null,
  "is_magnetic": null,
  "ordering": null,
  "total_magnetization": 6.0004833,
  "total_magnetization_normalized_vol": null,
  "total_magnetization_normalized_formula_units": null,
  "num_magnetic_sites": null,
  "num_unique_magnetic_sites": null,
  "types_of_magnetic_species": null,
  "bulk_modulus": null,
  "shear_modulus": null,
  "universal_anisotropy": null,
  "homogeneous_poisson": null,
  "e_total": null,
  "e_ionic": null,
  "e_electronic": null,
  "n": null,
  "e_ij_max": null,
  "weighted_surface_energy_EV_PER_ANG2": null,
  "weighted_surface_energy": null,
  "weighted_work_function": null,
  "surface_anisotropy": null,
  "shape_factor": null,
  "has_reconstructed": null,
  "possible_species": null,
  "has_props": null,
  "theoretical": null,
  "database_IDs": null,
  "fields_not_requested": [
    "builder_meta",
    "nsites",
    "elements",
    "nelements",
    "composition",
    "composition_reduced",
    "chemsys",
    "symmetry",
    "property_name",
    "deprecated",
    "deprecation_reasons",
    "last_updated",
    "origins",
    "warnings",
    "task_ids",
    "uncorrected_energy_per_atom",
    "equilibrium_reaction_energy_per_atom",
    "decomposes_to",
    "xas",
    "grain_boundaries",
    "cbm",
    "vbm",
    "is_gap_direct",
    "is_metal",
    "es_source_calc_id",
    "bandstructure",
    "dos",
    "dos_energy_up",
    "dos_energy_down",
    "is_magnetic",
    "ordering",
    "total_magnetization_normalized_vol",
    "total_magnetization_normalized_formula_units",
    "num_magnetic_sites",
    "num_unique_magnetic_sites",
    "types_of_magnetic_species",
    "bulk_modulus",
    "shear_modulus",
    "universal_anisotropy",
    "homogeneous_poisson",
    "e_total",
    "e_ionic",
    "e_electronic",
    "n",
    "e_ij_max",
    "weighted_surface_energy_EV_PER_ANG2",
    "weighted_surface_energy",
    "weighted_work_function",
    "surface_anisotropy",
    "shape_factor",
    "has_reconstructed",
    "possible_species",
    "has_props",
    "theoretical",
    "database_IDs"
  ]
}
