{
  "builder_meta": null,
  "nsites": null,
  "elements": null,
  "nelements": null,
  "composition": null,
  "composition_reduced": null,
  "formula_pretty": "YP5",
  "formula_anonymous": "AB5",
  "chemsys": null,
  "volume": 244.7058683423263,
  "density": 3.308440039622174,
  "density_atomic": 20.39215569519386,
  "symmetry": null,
  "property_name": null,
  "material_id": "mp-9854",
  "deprecated": null,
  "deprecation_reasons": null,
  "last_updated": null,
  "origins": null,
  "warnings": null,
  "structure": {
    "@module": "pymatgen.core.structure",
    "@class": "Structure",
    "charge": 0,
    "lattice": {
      "matrix": [
        [4.96862491, 0.01371212, 0.0],
        [-1.15367667, 5.23347307, 0.0],
        [0.0, 0.0, 9.40489714]
      ],
      "pbc": [true, true, true],
      "a": 4.968643830916783,
      "b": 5.359124017348125,
      "c": 9.40489714,
      "alpha": 90.0,
      "beta": 90.0,
      "gamma": 102.2734444846292,
      "volume": 244.7058683423263
    },
    "properties": {},
    "sites": [
      {
        "species": [{ "element": "Y", "occu": 1 }],
        "abc": [0.00329184, 0.34737855, 0.25],
        "properties": { "magmom": 0.0 },
        "label": "Y",
        "xyz": [-0.38440661056969416, 1.8180414246257492, 2.351224285]
      },
      {
        "species": [{ "element": "Y", "occu": 1 }],
        "abc": [0.9967081600000001, 0.65262145, 0.75],
        "properties": { "magmom": 0.0 },
        "label": "Y",
        "xyz": [4.199354850569694, 3.429143765374251, 7.053672854999999]
      },
      {
        "species": [{ "element": "P", "occu": 1 }],
        "abc": [0.28115598, 0.89361493, 0.25],
        "properties": { "magmom": -0.0 },
        "label": "P",
        "xyz": [0.3660159091187787, 4.680564915641413, 2.351224285]
      },
      {
        "species": [{ "element": "P", "occu": 1 }],
        "abc": [0.71884402, 0.10638507, 0.75],
        "properties": { "magmom": -0.0 },
        "label": "P",
        "xyz": [3.448932330881221, 0.5666202743585873, 7.053672854999999]
      },
      {
        "species": [{ "element": "P", "occu": 1 }],
        "abc": [0.6143353500000001, 0.9542246400000001, 0.40804044],
        "properties": { "magmom": -0.0 },
        "label": "P",
        "xyz": [1.9515352179964198, 5.0023327962098865, 3.8375783671603414]
      },
      {
        "species": [{ "element": "P", "occu": 1 }],
        "abc": [0.38566465, 0.04577536, 0.9080404400000001],
        "properties": { "magmom": -0.0 },
        "label": "P",
        "xyz": [1.8634130220035803, 0.2448523937901132, 8.540026937160341]
      },
      {
        "species": [{ "element": "P", "occu": 1 }],
        "abc": [0.38566465, 0.04577536, 0.59195956],
        "properties": { "magmom": -0.0 },
        "label": "P",
        "xyz": [1.8634130220035803, 0.2448523937901132, 5.567318772839658]
      },
      {
        "species": [{ "element": "P", "occu": 1 }],
        "abc": [0.6143353500000001, 0.9542246400000001, 0.09195956],
        "properties": { "magmom": -0.0 },
        "label": "P",
        "xyz": [1.9515352179964198, 5.0023327962098865, 0.8648702028396583]
      },
      {
        "species": [{ "element": "P", "occu": 1 }],
        "abc": [0.71114191, 0.59724149, 0.47107397],
        "properties": { "magmom": 0.0 },
        "label": "P",
        "xyz": [2.8443738352019396, 3.1353985174086234, 4.430402233181446]
      },
      {
        "species": [{ "element": "P", "occu": 1 }],
        "abc": [0.28885809, 0.40275951, 0.9710739700000001],
        "properties": { "magmom": 0.0 },
        "label": "P",
        "xyz": [0.9705732511213903, 2.1117919060644463, 9.132850803181446]
      },
      {
        "species": [{ "element": "P", "occu": 1 }],
        "abc": [0.28885809, 0.40275951, 0.52892603],
        "properties": { "magmom": 0.0 },
        "label": "P",
        "xyz": [0.9705732511213903, 2.1117919060644463, 4.974494906818554]
      },
      {
        "species": [{ "element": "P", "occu": 1 }],
        "abc": [0.71114191, 0.59724149, 0.028926030000000002],
        "properties": { "magmom": 0.0 },
        "label": "P",
        "xyz": [2.8443738352019396, 3.1353985174086234, 0.27204633681855417]
      }
    ]
  },
  "task_ids": null,
  "uncorrected_energy_per_atom": null,
  "energy_per_atom": -11.526529035000001,
  "formation_energy_per_atom": -0.6391986149801591,
  "energy_above_hull": 0.0,
  "is_stable": true,
  "equilibrium_reaction_energy_per_atom": null,
  "decomposes_to": null,
  "xas": null,
  "grain_boundaries": null,
  "band_gap": 0.1371,
  "cbm": null,
  "vbm": null,
  "efermi": 5.55217995,
  "is_gap_direct": null,
  "is_metal": null,
  "es_source_calc_id": null,
  "bandstructure": null,
  "dos": null,
  "dos_energy_up": null,
  "dos_energy_down": null,
  "is_magnetic": null,
  "ordering": null,
  "total_magnetization": 0.0,
  "total_magnetization_normalized_vol": null,
  "total_magnetization_normalized_formula_units": null,
  "num_magnetic_sites": null,
  "num_unique_magnetic_sites": null,
  "types_of_magnetic_species": null,
  "bulk_modulus": null,
  "shear_modulus": null,
  "universal_anisotropy": null,
  "homogeneous_poisson": null,
  "e_total": null,
  "e_ionic": null,
  "e_electronic": null,
  "n": null,
  "e_ij_max": null,
  "weighted_surface_energy_EV_PER_ANG2": null,
  "weighted_surface_energy": null,
  "weighted_work_function": null,
  "surface_anisotropy": null,
  "shape_factor": null,
  "has_reconstructed": null,
  "possible_species": null,
  "has_props": null,
  "theoretical": null,
  "database_IDs": null,
  "fields_not_requested": [
    "builder_meta",
    "nsites",
    "elements",
    "nelements",
    "composition",
    "composition_reduced",
    "chemsys",
    "symmetry",
    "property_name",
    "deprecated",
    "deprecation_reasons",
    "last_updated",
    "origins",
    "warnings",
    "task_ids",
    "uncorrected_energy_per_atom",
    "equilibrium_reaction_energy_per_atom",
    "decomposes_to",
    "xas",
    "grain_boundaries",
    "cbm",
    "vbm",
    "is_gap_direct",
    "is_metal",
    "es_source_calc_id",
    "bandstructure",
    "dos",
    "dos_energy_up",
    "dos_energy_down",
    "is_magnetic",
    "ordering",
    "total_magnetization_normalized_vol",
    "total_magnetization_normalized_formula_units",
    "num_magnetic_sites",
    "num_unique_magnetic_sites",
    "types_of_magnetic_species",
    "bulk_modulus",
    "shear_modulus",
    "universal_anisotropy",
    "homogeneous_poisson",
    "e_total",
    "e_ionic",
    "e_electronic",
    "n",
    "e_ij_max",
    "weighted_surface_energy_EV_PER_ANG2",
    "weighted_surface_energy",
    "weighted_work_function",
    "surface_anisotropy",
    "shape_factor",
    "has_reconstructed",
    "possible_species",
    "has_props",
    "theoretical",
    "database_IDs"
  ]
}
