{"builder_meta": null, "nsites": null, "elements": null, "nelements": null, "composition": null, "composition_reduced": null, "formula_pretty": "YPb2", "formula_anonymous": "AB2", "chemsys": null, "volume": 171.1651325781476, "density": 9.76552892268223, "density_atomic": 28.52752209635793, "symmetry": null, "property_name": null, "material_id": "mp-636614", "deprecated": null, "deprecation_reasons": null, "last_updated": null, "origins": null, "warnings": null, "structure": {"@module": "pymatgen.core.structure", "@class": "Structure", "charge": 0, "lattice": {"matrix": [[4.48446322, -0.0, -0.0], [0.0, 4.37643858, -1.20977012], [-0.0, 0.05146465, 8.70712937]], "pbc": [true, true, true], "a": 4.48446322, "b": 4.54056806883866, "c": 8.70728146301222, "alpha": 105.11363839438445, "beta": 90.0, "gamma": 90.0, "volume": 171.1651325781476}, "properties": {}, "sites": [{"species": [{"element": "Y", "occu": 1}], "abc": [0.25, 0.90254734, 0.8050946800000001], "properties": {"magmom": 0.0}, "label": "Y", "xyz": [1.121115805, 3.9913769149754397, 5.918188730041272]}, {"species": [{"element": "Y", "occu": 1}], "abc": [0.75, 0.09745266, 0.19490532], "properties": {"magmom": 0.0}, "label": "Y", "xyz": [3.3633474150000002, 0.4365263150245608, 1.5791705199587294]}, {"species": [{"element": "Pb", "occu": 1}], "abc": [0.75, 0.43430508, 0.86861015], "properties": {"magmom": -0.0}, "label": "Pb", "xyz": [3.3633474150000002, 1.9454122249581842, 7.037691639396896]}, {"species": [{"element": "Pb", "occu": 1}], "abc": [0.25, 0.56569492, 0.13138985], "properties": {"magmom": -0.0}, "label": "Pb", "xyz": [1.121115805, 2.4824910050418163, 0.45966761060310424]}, {"species": [{"element": "Pb", "occu": 1}], "abc": [0.75, 0.7479201600000001, 0.49584231], "properties": {"magmom": -0.0}, "label": "Pb", "xyz": [3.3633474150000002, 3.2987449939231146, 3.4125516785760257]}, {"species": [{"element": "Pb", "occu": 1}], "abc": [0.25, 0.25207984, 0.50415669], "properties": {"magmom": -0.0}, "label": "Pb", "xyz": [1.121115805, 1.1291581846122356, 4.084798864294604]}]}, "task_ids": null, "uncorrected_energy_per_atom": null, "energy_per_atom": -44.79864772, "formation_energy_per_atom": -0.504024659999998, "energy_above_hull": 0.0, "is_stable": true, "equilibrium_reaction_energy_per_atom": null, "decomposes_to": null, "xas": null, "grain_boundaries": null, "band_gap": 0.0, "cbm": null, "vbm": null, "efermi": 6.07322155, "is_gap_direct": null, "is_metal": null, "es_source_calc_id": null, "bandstructure": null, "dos": null, "dos_energy_up": null, "dos_energy_down": null, "is_magnetic": null, "ordering": null, "total_magnetization": 5e-07, "total_magnetization_normalized_vol": null, "total_magnetization_normalized_formula_units": null, "num_magnetic_sites": null, "num_unique_magnetic_sites": null, "types_of_magnetic_species": null, "bulk_modulus": null, "shear_modulus": null, "universal_anisotropy": null, "homogeneous_poisson": null, "e_total": null, "e_ionic": null, "e_electronic": null, "n": null, "e_ij_max": null, "weighted_surface_energy_EV_PER_ANG2": null, "weighted_surface_energy": null, "weighted_work_function": null, "surface_anisotropy": null, "shape_factor": null, "has_reconstructed": null, "possible_species": null, "has_props": null, "theoretical": null, "database_IDs": null, "fields_not_requested": ["builder_meta", "nsites", "elements", "nelements", "composition", "composition_reduced", "chemsys", "symmetry", "property_name", "deprecated", "deprecation_reasons", "last_updated", "origins", "warnings", "task_ids", "uncorrected_energy_per_atom", "equilibrium_reaction_energy_per_atom", "decomposes_to", "xas", "grain_boundaries", "cbm", "vbm", "is_gap_direct", "is_metal", "es_source_calc_id", "bandstructure", "dos", "dos_energy_up", "dos_energy_down", "is_magnetic", "ordering", "total_magnetization_normalized_vol", "total_magnetization_normalized_formula_units", "num_magnetic_sites", "num_unique_magnetic_sites", "types_of_magnetic_species", "bulk_modulus", "shear_modulus", "universal_anisotropy", "homogeneous_poisson", "e_total", "e_ionic", "e_electronic", "n", "e_ij_max", "weighted_surface_energy_EV_PER_ANG2", "weighted_surface_energy", "weighted_work_function", "surface_anisotropy", "shape_factor", "has_reconstructed", "possible_species", "has_props", "theoretical", "database_IDs"]}