{
  "builder_meta": null,
  "nsites": null,
  "elements": null,
  "nelements": null,
  "composition": null,
  "composition_reduced": null,
  "formula_pretty": "YPt",
  "formula_anonymous": "AB",
  "chemsys": null,
  "volume": 176.5829946823056,
  "density": 10.682257174113447,
  "density_atomic": 22.0728743352882,
  "symmetry": null,
  "property_name": null,
  "material_id": "mp-1025448",
  "deprecated": null,
  "deprecation_reasons": null,
  "last_updated": null,
  "origins": null,
  "warnings": null,
  "structure": {
    "@module": "pymatgen.core.structure",
    "@class": "Structure",
    "charge": 0,
    "lattice": {
      "matrix": [
        [0.0, -4.51369334, -0.0],
        [-7.04623405, 0.0, 0.0],
        [0.0, -0.0, -5.55213175]
      ],
      "pbc": [true, true, true],
      "a": 4.51369334,
      "b": 7.04623405,
      "c": 5.55213175,
      "alpha": 90.0,
      "beta": 90.0,
      "gamma": 90.0,
      "volume": 176.5829946823056
    },
    "properties": {},
    "sites": [
      {
        "species": [{ "element": "Y", "occu": 1 }],
        "abc": [0.75, 0.81802001, 0.36036647],
        "properties": { "magmom": -0.0 },
        "label": "Y",
        "xyz": [-5.76396044804334, -3.3852700049999997, -2.0008021197224224]
      },
      {
        "species": [{ "element": "Y", "occu": 1 }],
        "abc": [0.25, 0.18197999, 0.63963353],
        "properties": { "magmom": -0.0 },
        "label": "Y",
        "xyz": [-1.2822736019566596, -1.128423335, -3.5513296302775776]
      },
      {
        "species": [{ "element": "Y", "occu": 1 }],
        "abc": [0.25, 0.68197999, 0.86036647],
        "properties": { "magmom": -0.0 },
        "label": "Y",
        "xyz": [-4.805390626956659, -1.128423335, -4.776867994722423]
      },
      {
        "species": [{ "element": "Y", "occu": 1 }],
        "abc": [0.75, 0.31802001, 0.13963353],
        "properties": { "magmom": -0.0 },
        "label": "Y",
        "xyz": [-2.2408434230433407, -3.3852700049999997, -0.7752637552775775]
      },
      {
        "species": [{ "element": "Pt", "occu": 1 }],
        "abc": [0.75, 0.95716119, 0.84711896],
        "properties": { "magmom": 0.0 },
        "label": "Pt",
        "xyz": [-6.7443817683165195, -3.3852700049999997, -4.70331607384298]
      },
      {
        "species": [{ "element": "Pt", "occu": 1 }],
        "abc": [0.25, 0.04283881, 0.15288104],
        "properties": { "magmom": 0.0 },
        "label": "Pt",
        "xyz": [-0.3018522816834805, -1.128423335, -0.84881567615702]
      },
      {
        "species": [{ "element": "Pt", "occu": 1 }],
        "abc": [0.25, 0.54283881, 0.34711896000000003],
        "properties": { "magmom": 0.0 },
        "label": "Pt",
        "xyz": [-3.8249693066834802, -1.128423335, -1.9272501988429802]
      },
      {
        "species": [{ "element": "Pt", "occu": 1 }],
        "abc": [0.75, 0.45716119, 0.65288104],
        "properties": { "magmom": 0.0 },
        "label": "Pt",
        "xyz": [-3.2212647433165196, -3.3852700049999997, -3.6248815511570203]
      }
    ]
  },
  "task_ids": null,
  "uncorrected_energy_per_atom": null,
  "energy_per_atom": -37.2668753225,
  "formation_energy_per_atom": -1.3662163925000002,
  "energy_above_hull": 0.0,
  "is_stable": true,
  "equilibrium_reaction_energy_per_atom": null,
  "decomposes_to": null,
  "xas": null,
  "grain_boundaries": null,
  "band_gap": 0.0,
  "cbm": null,
  "vbm": null,
  "efermi": 5.02901066,
  "is_gap_direct": null,
  "is_metal": null,
  "es_source_calc_id": null,
  "bandstructure": null,
  "dos": null,
  "dos_energy_up": null,
  "dos_energy_down": null,
  "is_magnetic": null,
  "ordering": null,
  "total_magnetization": 0.0,
  "total_magnetization_normalized_vol": null,
  "total_magnetization_normalized_formula_units": null,
  "num_magnetic_sites": null,
  "num_unique_magnetic_sites": null,
  "types_of_magnetic_species": null,
  "bulk_modulus": null,
  "shear_modulus": null,
  "universal_anisotropy": null,
  "homogeneous_poisson": null,
  "e_total": null,
  "e_ionic": null,
  "e_electronic": null,
  "n": null,
  "e_ij_max": null,
  "weighted_surface_energy_EV_PER_ANG2": null,
  "weighted_surface_energy": null,
  "weighted_work_function": null,
  "surface_anisotropy": null,
  "shape_factor": null,
  "has_reconstructed": null,
  "possible_species": null,
  "has_props": null,
  "theoretical": null,
  "database_IDs": null,
  "fields_not_requested": [
    "builder_meta",
    "nsites",
    "elements",
    "nelements",
    "composition",
    "composition_reduced",
    "chemsys",
    "symmetry",
    "property_name",
    "deprecated",
    "deprecation_reasons",
    "last_updated",
    "origins",
    "warnings",
    "task_ids",
    "uncorrected_energy_per_atom",
    "equilibrium_reaction_energy_per_atom",
    "decomposes_to",
    "xas",
    "grain_boundaries",
    "cbm",
    "vbm",
    "is_gap_direct",
    "is_metal",
    "es_source_calc_id",
    "bandstructure",
    "dos",
    "dos_energy_up",
    "dos_energy_down",
    "is_magnetic",
    "ordering",
    "total_magnetization_normalized_vol",
    "total_magnetization_normalized_formula_units",
    "num_magnetic_sites",
    "num_unique_magnetic_sites",
    "types_of_magnetic_species",
    "bulk_modulus",
    "shear_modulus",
    "universal_anisotropy",
    "homogeneous_poisson",
    "e_total",
    "e_ionic",
    "e_electronic",
    "n",
    "e_ij_max",
    "weighted_surface_energy_EV_PER_ANG2",
    "weighted_surface_energy",
    "weighted_work_function",
    "surface_anisotropy",
    "shape_factor",
    "has_reconstructed",
    "possible_species",
    "has_props",
    "theoretical",
    "database_IDs"
  ]
}
