{
  "builder_meta": null,
  "nsites": null,
  "elements": null,
  "nelements": null,
  "composition": null,
  "composition_reduced": null,
  "formula_pretty": "YPu3",
  "formula_anonymous": "AB3",
  "chemsys": null,
  "volume": 227.89638028668656,
  "density": 11.962859894577385,
  "density_atomic": 28.48704753583582,
  "symmetry": null,
  "property_name": null,
  "material_id": "mp-1187959",
  "deprecated": null,
  "deprecation_reasons": null,
  "last_updated": null,
  "origins": null,
  "warnings": null,
  "structure": {
    "@module": "pymatgen.core.structure",
    "@class": "Structure",
    "charge": 0,
    "lattice": {
      "matrix": [
        [3.432344999999999, -5.944996, 0.0],
        [3.432344999999999, 5.944996, 0.0],
        [0.0, 0.0, 5.584251]
      ],
      "pbc": [true, true, true],
      "a": 6.864690061396872,
      "b": 6.864690061396872,
      "c": 5.584251,
      "alpha": 90.0,
      "beta": 90.0,
      "gamma": 120.00000059172147,
      "volume": 227.89638028668648
    },
    "properties": {},
    "sites": [
      {
        "species": [{ "element": "Y", "occu": 1 }],
        "abc": [0.333333, 0.666667, 0.75],
        "properties": { "magmom": 0.185 },
        "label": "Y",
        "xyz": [3.432344999999999, 1.9816692966640002, 4.18818825]
      },
      {
        "species": [{ "element": "Y", "occu": 1 }],
        "abc": [0.666667, 0.333333, 0.25],
        "properties": { "magmom": 0.185 },
        "label": "Y",
        "xyz": [3.432344999999999, -1.9816692966640002, 1.39606275]
      },
      {
        "species": [{ "element": "Pu", "occu": 1 }],
        "abc": [0.162736, 0.325473, 0.25],
        "properties": { "magmom": 5.516 },
        "label": "Pu",
        "xyz": [1.6757017201049995, 0.9674708140520001, 1.39606275]
      },
      {
        "species": [{ "element": "Pu", "occu": 1 }],
        "abc": [0.674527, 0.837264, 0.25],
        "properties": { "magmom": 5.517 },
        "label": "Pu",
        "xyz": [5.188988279894998, 0.9674708140519996, 1.39606275]
      },
      {
        "species": [{ "element": "Pu", "occu": 1 }],
        "abc": [0.162736, 0.837264, 0.25],
        "properties": { "magmom": 5.514 },
        "label": "Pu",
        "xyz": [3.432344999999999, 4.010066261887999, 1.39606275]
      },
      {
        "species": [{ "element": "Pu", "occu": 1 }],
        "abc": [0.837264, 0.674527, 0.75],
        "properties": { "magmom": 5.517 },
        "label": "Pu",
        "xyz": [5.188988279894998, -0.9674708140519996, 4.18818825]
      },
      {
        "species": [{ "element": "Pu", "occu": 1 }],
        "abc": [0.325473, 0.162736, 0.75],
        "properties": { "magmom": 5.517 },
        "label": "Pu",
        "xyz": [1.6757017201049995, -0.9674708140520001, 4.18818825]
      },
      {
        "species": [{ "element": "Pu", "occu": 1 }],
        "abc": [0.837264, 0.162736, 0.75],
        "properties": { "magmom": 5.515 },
        "label": "Pu",
        "xyz": [3.432344999999999, -4.010066261887999, 4.18818825]
      }
    ]
  },
  "task_ids": null,
  "uncorrected_energy_per_atom": null,
  "energy_per_atom": -69.63395064510416,
  "formation_energy_per_atom": 0.21171070833332803,
  "energy_above_hull": 0.21171070833332803,
  "is_stable": false,
  "equilibrium_reaction_energy_per_atom": null,
  "decomposes_to": null,
  "xas": null,
  "grain_boundaries": null,
  "band_gap": 0.0,
  "cbm": null,
  "vbm": null,
  "efermi": 9.12812152,
  "is_gap_direct": null,
  "is_metal": null,
  "es_source_calc_id": null,
  "bandstructure": null,
  "dos": null,
  "dos_energy_up": null,
  "dos_energy_down": null,
  "is_magnetic": null,
  "ordering": null,
  "total_magnetization": 36.1687277,
  "total_magnetization_normalized_vol": null,
  "total_magnetization_normalized_formula_units": null,
  "num_magnetic_sites": null,
  "num_unique_magnetic_sites": null,
  "types_of_magnetic_species": null,
  "bulk_modulus": null,
  "shear_modulus": null,
  "universal_anisotropy": null,
  "homogeneous_poisson": null,
  "e_total": null,
  "e_ionic": null,
  "e_electronic": null,
  "n": null,
  "e_ij_max": null,
  "weighted_surface_energy_EV_PER_ANG2": null,
  "weighted_surface_energy": null,
  "weighted_work_function": null,
  "surface_anisotropy": null,
  "shape_factor": null,
  "has_reconstructed": null,
  "possible_species": null,
  "has_props": null,
  "theoretical": null,
  "database_IDs": null,
  "fields_not_requested": [
    "builder_meta",
    "nsites",
    "elements",
    "nelements",
    "composition",
    "composition_reduced",
    "chemsys",
    "symmetry",
    "property_name",
    "deprecated",
    "deprecation_reasons",
    "last_updated",
    "origins",
    "warnings",
    "task_ids",
    "uncorrected_energy_per_atom",
    "equilibrium_reaction_energy_per_atom",
    "decomposes_to",
    "xas",
    "grain_boundaries",
    "cbm",
    "vbm",
    "is_gap_direct",
    "is_metal",
    "es_source_calc_id",
    "bandstructure",
    "dos",
    "dos_energy_up",
    "dos_energy_down",
    "is_magnetic",
    "ordering",
    "total_magnetization_normalized_vol",
    "total_magnetization_normalized_formula_units",
    "num_magnetic_sites",
    "num_unique_magnetic_sites",
    "types_of_magnetic_species",
    "bulk_modulus",
    "shear_modulus",
    "universal_anisotropy",
    "homogeneous_poisson",
    "e_total",
    "e_ionic",
    "e_electronic",
    "n",
    "e_ij_max",
    "weighted_surface_energy_EV_PER_ANG2",
    "weighted_surface_energy",
    "weighted_work_function",
    "surface_anisotropy",
    "shape_factor",
    "has_reconstructed",
    "possible_species",
    "has_props",
    "theoretical",
    "database_IDs"
  ]
}
