{"builder_meta": null, "nsites": null, "elements": null, "nelements": null, "composition": null, "composition_reduced": null, "formula_pretty": "YRe2", "formula_anonymous": "AB2", "chemsys": null, "volume": 223.78193914054674, "density": 13.69260872553149, "density_atomic": 18.648494928378895, "symmetry": null, "property_name": null, "material_id": "mp-570923", "deprecated": null, "deprecation_reasons": null, "last_updated": null, "origins": null, "warnings": null, "structure": {"@module": "pymatgen.core.structure", "@class": "Structure", "charge": 0, "lattice": {"matrix": [[5.41226486, -0.0, 0.0], [-2.7061324300000003, 4.68715891, -0.0], [0.0, 0.0, 8.82137559]], "pbc": [true, true, true], "a": 5.41226486, "b": 5.412264902634579, "c": 8.82137559, "alpha": 90.0, "beta": 90.0, "gamma": 119.9999997394177, "volume": 223.78193914054674}, "properties": {}, "sites": [{"species": [{"element": "Y", "occu": 1}], "abc": [0.333333, 0.666667, 0.43748843], "properties": {"magmom": -0.0}, "label": "Y", "xyz": [-2.7061324303634393e-06, 3.1247741690529702, 3.8592497573094238]}, {"species": [{"element": "Y", "occu": 1}], "abc": [0.666667, 0.333333, 0.56251157], "properties": {"magmom": -0.0}, "label": "Y", "xyz": [2.7061351361324295, 1.56238474094703, 4.962125832690576]}, {"species": [{"element": "Y", "occu": 1}], "abc": [0.666667, 0.333333, 0.93748843], "properties": {"magmom": -0.0}, "label": "Y", "xyz": [2.7061351361324295, 1.56238474094703, 8.269937552309425]}, {"species": [{"element": "Y", "occu": 1}], "abc": [0.333333, 0.666667, 0.06251157], "properties": {"magmom": -0.0}, "label": "Y", "xyz": [-2.7061324303634393e-06, 3.1247741690529702, 0.5514380376905763]}, {"species": [{"element": "Re", "occu": 1}], "abc": [0.17085627, 0.34171354, 0.75], "properties": {"magmom": 0.0}, "label": "Re", "xyz": [-2.7061324300303724e-06, 1.6016656636786413, 6.6160316925]}, {"species": [{"element": "Re", "occu": 1}], "abc": [0.17085627, 0.82914373, 0.75], "properties": {"magmom": 0.0}, "label": "Re", "xyz": [-1.3190533506524922, 3.886328421740134, 6.6160316925]}, {"species": [{"element": "Re", "occu": 1}], "abc": [0.34171354, 0.17085627, 0.25], "properties": {"magmom": 0.0}, "label": "Re", "xyz": [1.387084491612368, 0.8008304882598657, 2.2053438975]}, {"species": [{"element": "Re", "occu": 1}], "abc": [0.82914373, 0.65828646, 0.25], "properties": {"magmom": 0.0}, "label": "Re", "xyz": [2.7061351361324295, 3.0854932463213585, 2.2053438975]}, {"species": [{"element": "Re", "occu": 1}], "abc": [0.65828646, 0.82914373, 0.75], "properties": {"magmom": 0.0}, "label": "Re", "xyz": [1.319047938387631, 3.886328421740134, 6.6160316925]}, {"species": [{"element": "Re", "occu": 1}], "abc": [0.0, 0.0, 0.0], "properties": {"magmom": -0.0}, "label": "Re", "xyz": [0.0, 0.0, 0.0]}, {"species": [{"element": "Re", "occu": 1}], "abc": [0.82914373, 0.17085627, 0.25], "properties": {"magmom": 0.0}, "label": "Re", "xyz": [4.0251857806524916, 0.8008304882598657, 2.2053438975]}, {"species": [{"element": "Re", "occu": 1}], "abc": [0.0, 0.0, 0.5], "properties": {"magmom": -0.0}, "label": "Re", "xyz": [0.0, 0.0, 4.410687795]}]}, "task_ids": null, "uncorrected_energy_per_atom": null, "energy_per_atom": -41.967109095, "formation_energy_per_atom": -0.255498969999995, "energy_above_hull": 0.0, "is_stable": true, "equilibrium_reaction_energy_per_atom": null, "decomposes_to": null, "xas": null, "grain_boundaries": null, "band_gap": 0.0, "cbm": null, "vbm": null, "efermi": 5.70255127, "is_gap_direct": null, "is_metal": null, "es_source_calc_id": null, "bandstructure": null, "dos": null, "dos_energy_up": null, "dos_energy_down": null, "is_magnetic": null, "ordering": null, "total_magnetization": 1e-07, "total_magnetization_normalized_vol": null, "total_magnetization_normalized_formula_units": null, "num_magnetic_sites": null, "num_unique_magnetic_sites": null, "types_of_magnetic_species": null, "bulk_modulus": null, "shear_modulus": null, "universal_anisotropy": null, "homogeneous_poisson": null, "e_total": null, "e_ionic": null, "e_electronic": null, "n": null, "e_ij_max": null, "weighted_surface_energy_EV_PER_ANG2": null, "weighted_surface_energy": null, "weighted_work_function": null, "surface_anisotropy": null, "shape_factor": null, "has_reconstructed": null, "possible_species": null, "has_props": null, "theoretical": null, "database_IDs": null, "fields_not_requested": ["builder_meta", "nsites", "elements", "nelements", "composition", "composition_reduced", "chemsys", "symmetry", "property_name", "deprecated", "deprecation_reasons", "last_updated", "origins", "warnings", "task_ids", "uncorrected_energy_per_atom", "equilibrium_reaction_energy_per_atom", "decomposes_to", "xas", "grain_boundaries", "cbm", "vbm", "is_gap_direct", "is_metal", "es_source_calc_id", "bandstructure", "dos", "dos_energy_up", "dos_energy_down", "is_magnetic", "ordering", "total_magnetization_normalized_vol", "total_magnetization_normalized_formula_units", "num_magnetic_sites", "num_unique_magnetic_sites", "types_of_magnetic_species", "bulk_modulus", "shear_modulus", "universal_anisotropy", "homogeneous_poisson", "e_total", "e_ionic", "e_electronic", "n", "e_ij_max", "weighted_surface_energy_EV_PER_ANG2", "weighted_surface_energy", "weighted_work_function", "surface_anisotropy", "shape_factor", "has_reconstructed", "possible_species", "has_props", "theoretical", "database_IDs"]}