{
  "builder_meta": null,
  "nsites": null,
  "elements": null,
  "nelements": null,
  "composition": null,
  "composition_reduced": null,
  "formula_pretty": "YRh3",
  "formula_anonymous": "AB3",
  "chemsys": null,
  "volume": 411.62850105865607,
  "density": 9.624223457270448,
  "density_atomic": 17.15118754411067,
  "symmetry": null,
  "property_name": null,
  "material_id": "mp-1191413",
  "deprecated": null,
  "deprecation_reasons": null,
  "last_updated": null,
  "origins": null,
  "warnings": null,
  "structure": {
    "@module": "pymatgen.core.structure",
    "@class": "Structure",
    "charge": 0,
    "lattice": {
      "matrix": [
        [-2.61468311, -4.52876424, 0.0],
        [-2.61468311, 4.52876424, -0.0],
        [0.0, -0.0, -17.38107637]
      ],
      "pbc": [true, true, true],
      "a": 5.229366434590528,
      "b": 5.229366434590528,
      "c": 17.38107637,
      "alpha": 90.0,
      "beta": 90.0,
      "gamma": 120.00000271489773,
      "volume": 411.62850105865607
    },
    "properties": {},
    "sites": [
      {
        "species": [{ "element": "Y", "occu": 1 }],
        "abc": [0.66666654, 0.33333346, 0.04219392],
        "properties": { "magmom": 0.0 },
        "label": "Y",
        "xyz": [-2.61468311, -1.509586932713059, -0.7333757458696704]
      },
      {
        "species": [{ "element": "Y", "occu": 1 }],
        "abc": [0.33333346, 0.66666654, 0.95780608],
        "properties": { "magmom": 0.0 },
        "label": "Y",
        "xyz": [-2.61468311, 1.509586932713059, -16.64770062413033]
      },
      {
        "species": [{ "element": "Y", "occu": 1 }],
        "abc": [0.33333346, 0.66666654, 0.54219392],
        "properties": { "magmom": 0.0 },
        "label": "Y",
        "xyz": [-2.61468311, 1.509586932713059, -9.42391393086967]
      },
      {
        "species": [{ "element": "Y", "occu": 1 }],
        "abc": [0.66666654, 0.33333346, 0.45780608],
        "properties": { "magmom": 0.0 },
        "label": "Y",
        "xyz": [-2.61468311, -1.509586932713059, -7.957162439130329]
      },
      {
        "species": [{ "element": "Y", "occu": 1 }],
        "abc": [0.6666745, 0.3333255, 0.25],
        "properties": { "magmom": 0.0 },
        "label": "Y",
        "xyz": [-2.6146831099999996, -1.5096590306397597, -4.3452690925]
      },
      {
        "species": [{ "element": "Y", "occu": 1 }],
        "abc": [0.3333255, 0.6666745, 0.75],
        "properties": { "magmom": 0.0 },
        "label": "Y",
        "xyz": [-2.6146831099999996, 1.5096590306397597, -13.035807277499998]
      },
      {
        "species": [{ "element": "Rh", "occu": 1 }],
        "abc": [0.8327900300000001, 0.66557909, 0.62646921],
        "properties": { "magmom": -0.0 },
        "label": "Rh",
        "xyz": [-3.9177604306095635, -0.7572589256087858, -10.888709182463566]
      },
      {
        "species": [{ "element": "Rh", "occu": 1 }],
        "abc": [0.8327926800000001, 0.16720732, 0.62647564],
        "properties": { "magmom": -0.0 },
        "label": "Rh",
        "xyz": [-2.61468311, -3.014279177035527, -10.888820942784626]
      },
      {
        "species": [{ "element": "Rh", "occu": 1 }],
        "abc": [0.33442091, 0.16720997, 0.62646921],
        "properties": { "magmom": -0.0 },
        "label": "Rh",
        "xyz": [-1.311605789390437, -0.7572589256087856, -10.888709182463566]
      },
      {
        "species": [{ "element": "Rh", "occu": 1 }],
        "abc": [0.16720997, 0.33442091, 0.37353079],
        "properties": { "magmom": -0.0 },
        "label": "Rh",
        "xyz": [-1.311605789390437, 0.7572589256087856, -6.4923671875364315]
      },
      {
        "species": [{ "element": "Rh", "occu": 1 }],
        "abc": [0.16720732, 0.8327926800000001, 0.37352436],
        "properties": { "magmom": -0.0 },
        "label": "Rh",
        "xyz": [-2.61468311, 3.014279177035527, -6.4922554272153725]
      },
      {
        "species": [{ "element": "Rh", "occu": 1 }],
        "abc": [0.66557909, 0.8327900300000001, 0.37353079],
        "properties": { "magmom": -0.0 },
        "label": "Rh",
        "xyz": [-3.9177604306095635, 0.7572589256087858, -6.4923671875364315]
      },
      {
        "species": [{ "element": "Rh", "occu": 1 }],
        "abc": [0.16720997, 0.33442091, 0.12646921],
        "properties": { "magmom": -0.0 },
        "label": "Rh",
        "xyz": [-1.311605789390437, 0.7572589256087856, -2.1981709974635675]
      },
      {
        "species": [{ "element": "Rh", "occu": 1 }],
        "abc": [0.16720732, 0.8327926800000001, 0.12647564],
        "properties": { "magmom": -0.0 },
        "label": "Rh",
        "xyz": [-2.61468311, 3.014279177035527, -2.1982827577846265]
      },
      {
        "species": [{ "element": "Rh", "occu": 1 }],
        "abc": [0.66557909, 0.8327900300000001, 0.12646921],
        "properties": { "magmom": -0.0 },
        "label": "Rh",
        "xyz": [-3.9177604306095635, 0.7572589256087858, -2.1981709974635675]
      },
      {
        "species": [{ "element": "Rh", "occu": 1 }],
        "abc": [0.8327900300000001, 0.66557909, 0.87353079],
        "properties": { "magmom": -0.0 },
        "label": "Rh",
        "xyz": [-3.9177604306095635, -0.7572589256087858, -15.182905372536432]
      },
      {
        "species": [{ "element": "Rh", "occu": 1 }],
        "abc": [0.8327926800000001, 0.16720732, 0.87352436],
        "properties": { "magmom": -0.0 },
        "label": "Rh",
        "xyz": [-2.61468311, -3.014279177035527, -15.182793612215372]
      },
      {
        "species": [{ "element": "Rh", "occu": 1 }],
        "abc": [0.33442091, 0.16720997, 0.87353079],
        "properties": { "magmom": -0.0 },
        "label": "Rh",
        "xyz": [-1.311605789390437, -0.7572589256087856, -15.182905372536432]
      },
      {
        "species": [{ "element": "Rh", "occu": 1 }],
        "abc": [0.66664394, 0.33335606, 0.75],
        "properties": { "magmom": -0.0 },
        "label": "Rh",
        "xyz": [-2.61468311, -1.5093822325694113, -13.035807277499998]
      },
      {
        "species": [{ "element": "Rh", "occu": 1 }],
        "abc": [0.33335606, 0.66664394, 0.25],
        "properties": { "magmom": -0.0 },
        "label": "Rh",
        "xyz": [-2.61468311, 1.5093822325694113, -4.3452690925]
      },
      {
        "species": [{ "element": "Rh", "occu": 1 }],
        "abc": [1.9020000000000004e-5, 0.99998098, 0.75],
        "properties": { "magmom": -0.0 },
        "label": "Rh",
        "xyz": [-2.61468311, 4.528591965808311, -13.035807277499998]
      },
      {
        "species": [{ "element": "Rh", "occu": 1 }],
        "abc": [0.99998098, 1.9020000000000004e-5, 0.25],
        "properties": { "magmom": -0.0 },
        "label": "Rh",
        "xyz": [-2.61468311, -4.528591965808311, -4.3452690925]
      },
      {
        "species": [{ "element": "Rh", "occu": 1 }],
        "abc": [-0.0, -0.0, 0.5],
        "properties": { "magmom": 0.0 },
        "label": "Rh",
        "xyz": [0.0, 0.0, -8.690538185]
      },
      {
        "species": [{ "element": "Rh", "occu": 1 }],
        "abc": [-0.0, -0.0, -0.0],
        "properties": { "magmom": 0.0 },
        "label": "Rh",
        "xyz": [0.0, 0.0, 0.0]
      }
    ]
  },
  "task_ids": null,
  "uncorrected_energy_per_atom": null,
  "energy_per_atom": -7.702896643333332,
  "formation_energy_per_atom": -0.55239286583333,
  "energy_above_hull": 0.0,
  "is_stable": true,
  "equilibrium_reaction_energy_per_atom": null,
  "decomposes_to": null,
  "xas": null,
  "grain_boundaries": null,
  "band_gap": 0.0,
  "cbm": null,
  "vbm": null,
  "efermi": 5.42754847,
  "is_gap_direct": null,
  "is_metal": null,
  "es_source_calc_id": null,
  "bandstructure": null,
  "dos": null,
  "dos_energy_up": null,
  "dos_energy_down": null,
  "is_magnetic": null,
  "ordering": null,
  "total_magnetization": 1e-6,
  "total_magnetization_normalized_vol": null,
  "total_magnetization_normalized_formula_units": null,
  "num_magnetic_sites": null,
  "num_unique_magnetic_sites": null,
  "types_of_magnetic_species": null,
  "bulk_modulus": null,
  "shear_modulus": null,
  "universal_anisotropy": null,
  "homogeneous_poisson": null,
  "e_total": null,
  "e_ionic": null,
  "e_electronic": null,
  "n": null,
  "e_ij_max": null,
  "weighted_surface_energy_EV_PER_ANG2": null,
  "weighted_surface_energy": null,
  "weighted_work_function": null,
  "surface_anisotropy": null,
  "shape_factor": null,
  "has_reconstructed": null,
  "possible_species": null,
  "has_props": null,
  "theoretical": null,
  "database_IDs": null,
  "fields_not_requested": [
    "builder_meta",
    "nsites",
    "elements",
    "nelements",
    "composition",
    "composition_reduced",
    "chemsys",
    "symmetry",
    "property_name",
    "deprecated",
    "deprecation_reasons",
    "last_updated",
    "origins",
    "warnings",
    "task_ids",
    "uncorrected_energy_per_atom",
    "equilibrium_reaction_energy_per_atom",
    "decomposes_to",
    "xas",
    "grain_boundaries",
    "cbm",
    "vbm",
    "is_gap_direct",
    "is_metal",
    "es_source_calc_id",
    "bandstructure",
    "dos",
    "dos_energy_up",
    "dos_energy_down",
    "is_magnetic",
    "ordering",
    "total_magnetization_normalized_vol",
    "total_magnetization_normalized_formula_units",
    "num_magnetic_sites",
    "num_unique_magnetic_sites",
    "types_of_magnetic_species",
    "bulk_modulus",
    "shear_modulus",
    "universal_anisotropy",
    "homogeneous_poisson",
    "e_total",
    "e_ionic",
    "e_electronic",
    "n",
    "e_ij_max",
    "weighted_surface_energy_EV_PER_ANG2",
    "weighted_surface_energy",
    "weighted_work_function",
    "surface_anisotropy",
    "shape_factor",
    "has_reconstructed",
    "possible_species",
    "has_props",
    "theoretical",
    "database_IDs"
  ]
}
