{"builder_meta": null, "nsites": null, "elements": null, "nelements": null, "composition": null, "composition_reduced": null, "formula_pretty": "YRu2", "formula_anonymous": "AB2", "chemsys": null, "volume": 212.01859482785738, "density": 9.11793617893185, "density_atomic": 17.668216235654782, "symmetry": null, "property_name": null, "material_id": "mp-568186", "deprecated": null, "deprecation_reasons": null, "last_updated": null, "origins": null, "warnings": null, "structure": {"@module": "pymatgen.core.structure", "@class": "Structure", "charge": 0, "lattice": {"matrix": [[5.23064359, 1.02e-06, -0.0], [-2.61532128, 4.52985717, -0.0], [-0.0, 0.0, 8.94817081]], "pbc": [true, true, true], "a": 5.230643590000099, "b": 5.230632024738621, "c": 8.94817081, "alpha": 90.0, "beta": 90.0, "gamma": 120.00005545452079, "volume": 212.01859482785738}, "properties": {}, "sites": [{"species": [{"element": "Y", "occu": 1}], "abc": [0.333333, 0.666667, 0.43245845], "properties": {"magmom": 0.0}, "label": "Y", "xyz": [-2.2719882901700572e-06, 3.01990662995205, 3.8697120788278445]}, {"species": [{"element": "Y", "occu": 1}], "abc": [0.666667, 0.333333, 0.56754255], "properties": {"magmom": 0.0}, "label": "Y", "xyz": [2.6153245819882898, 1.5099515600479498, 5.078467679342966]}, {"species": [{"element": "Y", "occu": 1}], "abc": [0.666667, 0.333333, 0.93245745], "properties": {"magmom": 0.0}, "label": "Y", "xyz": [2.6153245819882898, 1.5099515600479498, 8.343788535657035]}, {"species": [{"element": "Y", "occu": 1}], "abc": [0.333333, 0.666667, 0.06754255], "properties": {"magmom": 0.0}, "label": "Y", "xyz": [-2.2719882901700572e-06, 3.01990662995205, 0.6043822743429657]}, {"species": [{"element": "Ru", "occu": 1}], "abc": [0.17015189, 0.34030178, 0.75], "properties": {"magmom": -0.0}, "label": "Ru", "xyz": [5.405899006660775e-06, 1.5415186316516902, 6.7111281075]}, {"species": [{"element": "Ru", "occu": 1}], "abc": [0.17015189, 0.82984811, 0.75], "properties": {"magmom": -0.0}, "label": "Ru", "xyz": [-1.2803155284958956, 3.7590935846493765, 6.7111281075]}, {"species": [{"element": "Ru", "occu": 1}], "abc": [0.34030178, 0.17015189, 0.25], "properties": {"magmom": -0.0}, "label": "Ru", "xyz": [1.3349954654733711, 0.7707641060133669, 2.2370427025]}, {"species": [{"element": "Ru", "occu": 1}], "abc": [0.82984811, 0.65969822, 0.25], "properties": {"magmom": -0.0}, "label": "Ru", "xyz": [2.615316904100993, 2.988339558348309, 2.2370427025]}, {"species": [{"element": "Ru", "occu": 1}], "abc": [0.65969822, 0.82984811, 0.75], "properties": {"magmom": -0.0}, "label": "Ru", "xyz": [1.2803268445266291, 3.759094083986633, 6.7111281075]}, {"species": [{"element": "Ru", "occu": 1}], "abc": [-0.0, 0.0, -0.0], "properties": {"magmom": -0.0}, "label": "Ru", "xyz": [0.0, 0.0, 0.0]}, {"species": [{"element": "Ru", "occu": 1}], "abc": [0.82984811, 0.17015189, 0.25], "properties": {"magmom": -0.0}, "label": "Ru", "xyz": [3.895637838495895, 0.7707646053506234, 2.2370427025]}, {"species": [{"element": "Ru", "occu": 1}], "abc": [-0.0, 0.0, 0.5], "properties": {"magmom": -0.0}, "label": "Ru", "xyz": [0.0, 0.0, 4.474085405]}]}, "task_ids": null, "uncorrected_energy_per_atom": null, "energy_per_atom": -8.652847321666664, "formation_energy_per_atom": -0.300215128333331, "energy_above_hull": 0.0, "is_stable": true, "equilibrium_reaction_energy_per_atom": null, "decomposes_to": null, "xas": null, "grain_boundaries": null, "band_gap": 0.0, "cbm": null, "vbm": null, "efermi": 5.95432707, "is_gap_direct": null, "is_metal": null, "es_source_calc_id": null, "bandstructure": null, "dos": null, "dos_energy_up": null, "dos_energy_down": null, "is_magnetic": null, "ordering": null, "total_magnetization": 2.54e-05, "total_magnetization_normalized_vol": null, "total_magnetization_normalized_formula_units": null, "num_magnetic_sites": null, "num_unique_magnetic_sites": null, "types_of_magnetic_species": null, "bulk_modulus": null, "shear_modulus": null, "universal_anisotropy": null, "homogeneous_poisson": null, "e_total": null, "e_ionic": null, "e_electronic": null, "n": null, "e_ij_max": null, "weighted_surface_energy_EV_PER_ANG2": null, "weighted_surface_energy": null, "weighted_work_function": null, "surface_anisotropy": null, "shape_factor": null, "has_reconstructed": null, "possible_species": null, "has_props": null, "theoretical": null, "database_IDs": null, "fields_not_requested": ["builder_meta", "nsites", "elements", "nelements", "composition", "composition_reduced", "chemsys", "symmetry", "property_name", "deprecated", "deprecation_reasons", "last_updated", "origins", "warnings", "task_ids", "uncorrected_energy_per_atom", "equilibrium_reaction_energy_per_atom", "decomposes_to", "xas", "grain_boundaries", "cbm", "vbm", "is_gap_direct", "is_metal", "es_source_calc_id", "bandstructure", "dos", "dos_energy_up", "dos_energy_down", "is_magnetic", "ordering", "total_magnetization_normalized_vol", "total_magnetization_normalized_formula_units", "num_magnetic_sites", "num_unique_magnetic_sites", "types_of_magnetic_species", "bulk_modulus", "shear_modulus", "universal_anisotropy", "homogeneous_poisson", "e_total", "e_ionic", "e_electronic", "n", "e_ij_max", "weighted_surface_energy_EV_PER_ANG2", "weighted_surface_energy", "weighted_work_function", "surface_anisotropy", "shape_factor", "has_reconstructed", "possible_species", "has_props", "theoretical", "database_IDs"]}