{
  "builder_meta": null,
  "nsites": null,
  "elements": null,
  "nelements": null,
  "composition": null,
  "composition_reduced": null,
  "formula_pretty": "YS2",
  "formula_anonymous": "AB2",
  "chemsys": null,
  "volume": 119.98614800319528,
  "density": 4.235855750758332,
  "density_atomic": 19.99769133386588,
  "symmetry": null,
  "property_name": null,
  "material_id": "mp-16228",
  "deprecated": null,
  "deprecation_reasons": null,
  "last_updated": null,
  "origins": null,
  "warnings": null,
  "structure": {
    "@module": "pymatgen.core.structure",
    "@class": "Structure",
    "charge": 0,
    "lattice": {
      "matrix": [
        [0.0, 3.914717, 3.914717],
        [3.914717, 0.0, 3.914717],
        [3.914717, 3.914717, 0.0]
      ],
      "pbc": [true, true, true],
      "a": 5.536245874252516,
      "b": 5.536245874252516,
      "c": 5.536245874252516,
      "alpha": 60.00000000000001,
      "beta": 60.00000000000001,
      "gamma": 60.00000000000001,
      "volume": 119.98614800319528
    },
    "properties": {},
    "sites": [
      {
        "species": [{ "element": "Y", "occu": 1 }],
        "abc": [0.5, 0.5, 0.5],
        "properties": { "magmom": 0.17200000000000001 },
        "label": "Y",
        "xyz": [3.914717, 3.914717, 3.914717]
      },
      {
        "species": [{ "element": "Y", "occu": 1 }],
        "abc": [0.75, 0.75, 0.75],
        "properties": { "magmom": 0.17200000000000001 },
        "label": "Y",
        "xyz": [5.8720755, 5.8720755, 5.8720755]
      },
      {
        "species": [{ "element": "S", "occu": 1 }],
        "abc": [0.125, 0.125, 0.125],
        "properties": { "magmom": -0.009000000000000001 },
        "label": "S",
        "xyz": [0.97867925, 0.97867925, 0.97867925]
      },
      {
        "species": [{ "element": "S", "occu": 1 }],
        "abc": [0.625, 0.125, 0.125],
        "properties": { "magmom": -0.009000000000000001 },
        "label": "S",
        "xyz": [0.97867925, 2.93603775, 2.93603775]
      },
      {
        "species": [{ "element": "S", "occu": 1 }],
        "abc": [0.125, 0.625, 0.125],
        "properties": { "magmom": -0.009000000000000001 },
        "label": "S",
        "xyz": [2.93603775, 0.97867925, 2.93603775]
      },
      {
        "species": [{ "element": "S", "occu": 1 }],
        "abc": [0.125, 0.125, 0.625],
        "properties": { "magmom": -0.009000000000000001 },
        "label": "S",
        "xyz": [2.93603775, 2.93603775, 0.97867925]
      }
    ]
  },
  "task_ids": null,
  "uncorrected_energy_per_atom": null,
  "energy_per_atom": -12.523471700885416,
  "formation_energy_per_atom": -0.39560532609375004,
  "energy_above_hull": 1.5894532219791682,
  "is_stable": false,
  "equilibrium_reaction_energy_per_atom": null,
  "decomposes_to": null,
  "xas": null,
  "grain_boundaries": null,
  "band_gap": 0.0,
  "cbm": null,
  "vbm": null,
  "efermi": 6.7103132,
  "is_gap_direct": null,
  "is_metal": null,
  "es_source_calc_id": null,
  "bandstructure": null,
  "dos": null,
  "dos_energy_up": null,
  "dos_energy_down": null,
  "is_magnetic": null,
  "ordering": null,
  "total_magnetization": 0.5265556,
  "total_magnetization_normalized_vol": null,
  "total_magnetization_normalized_formula_units": null,
  "num_magnetic_sites": null,
  "num_unique_magnetic_sites": null,
  "types_of_magnetic_species": null,
  "bulk_modulus": null,
  "shear_modulus": null,
  "universal_anisotropy": null,
  "homogeneous_poisson": null,
  "e_total": null,
  "e_ionic": null,
  "e_electronic": null,
  "n": null,
  "e_ij_max": null,
  "weighted_surface_energy_EV_PER_ANG2": null,
  "weighted_surface_energy": null,
  "weighted_work_function": null,
  "surface_anisotropy": null,
  "shape_factor": null,
  "has_reconstructed": null,
  "possible_species": null,
  "has_props": null,
  "theoretical": null,
  "database_IDs": null,
  "fields_not_requested": [
    "builder_meta",
    "nsites",
    "elements",
    "nelements",
    "composition",
    "composition_reduced",
    "chemsys",
    "symmetry",
    "property_name",
    "deprecated",
    "deprecation_reasons",
    "last_updated",
    "origins",
    "warnings",
    "task_ids",
    "uncorrected_energy_per_atom",
    "equilibrium_reaction_energy_per_atom",
    "decomposes_to",
    "xas",
    "grain_boundaries",
    "cbm",
    "vbm",
    "is_gap_direct",
    "is_metal",
    "es_source_calc_id",
    "bandstructure",
    "dos",
    "dos_energy_up",
    "dos_energy_down",
    "is_magnetic",
    "ordering",
    "total_magnetization_normalized_vol",
    "total_magnetization_normalized_formula_units",
    "num_magnetic_sites",
    "num_unique_magnetic_sites",
    "types_of_magnetic_species",
    "bulk_modulus",
    "shear_modulus",
    "universal_anisotropy",
    "homogeneous_poisson",
    "e_total",
    "e_ionic",
    "e_electronic",
    "n",
    "e_ij_max",
    "weighted_surface_energy_EV_PER_ANG2",
    "weighted_surface_energy",
    "weighted_work_function",
    "surface_anisotropy",
    "shape_factor",
    "has_reconstructed",
    "possible_species",
    "has_props",
    "theoretical",
    "database_IDs"
  ]
}
