{"builder_meta": null, "nsites": null, "elements": null, "nelements": null, "composition": null, "composition_reduced": null, "formula_pretty": "YSi2", "formula_anonymous": "AB2", "chemsys": null, "volume": 115.20707728270955, "density": 4.182135034866017, "density_atomic": 19.201179547118258, "symmetry": null, "property_name": null, "material_id": "mp-12769", "deprecated": null, "deprecation_reasons": null, "last_updated": null, "origins": null, "warnings": null, "structure": {"@module": "pymatgen.core.structure", "@class": "Structure", "charge": 0, "lattice": {"matrix": [[-0.0008037999999990001, -3.96805764, 0.01944676], [-3.96940966, -0.00080473, 0.01946614], [2.02256723, 2.02185906, -7.33416584]], "pbc": [true, true, true], "a": 3.9681053737182066, "b": 3.9694574726400824, "c": 7.872018853318179, "alpha": 105.16199949873827, "beta": 105.1564804964959, "gamma": 89.9754015434053, "volume": 115.20707728270955}, "properties": {}, "sites": [{"species": [{"element": "Y", "occu": 1}], "abc": [0.62446535, 0.37579336, 0.75025064], "properties": {"magmom": -0.0}, "label": "Y", "xyz": [0.025252620154339933, -0.9613158614185686, -5.48300354137954]}, {"species": [{"element": "Y", "occu": 1}], "abc": [0.37553254, 0.62420709, 0.24974661], "properties": {"magmom": -0.0}, "label": "Y", "xyz": [-1.972906196752551, -0.9856846364543549, -1.8122292619372993]}, {"species": [{"element": "Si", "occu": 1}], "abc": [0.04214484, 0.79397731, 0.58538281], "properties": {"magmom": 0.0}, "label": "Si", "xyz": [-1.9676789916458906, 1.0156894462575048, -4.277019354363208]}, {"species": [{"element": "Si", "occu": 1}], "abc": [0.95787329, 0.20603922, 0.41465641000000003], "properties": {"magmom": 0.0}, "label": "Si", "xyz": [0.020046457818078123, -2.9626854131323714, -3.0185205572759832]}, {"species": [{"element": "Si", "occu": 1}], "abc": [0.20598826, 0.95785167, 0.91451565], "properties": {"magmom": 0.0}, "label": "Si", "xyz": [-1.9526018600963708, 1.0308776516465836, -6.684557961412905]}, {"species": [{"element": "Si", "occu": 1}], "abc": [0.7939957200000001, 0.04213136, 0.08544787], "properties": {"magmom": 0.0}, "label": "Si", "xyz": [0.004949220602627258, -2.977891137125432, -0.6104280700947432]}]}, "task_ids": null, "uncorrected_energy_per_atom": null, "energy_per_atom": -13.180664890000001, "formation_energy_per_atom": -0.560288173333335, "energy_above_hull": 0.038530698333332, "is_stable": false, "equilibrium_reaction_energy_per_atom": null, "decomposes_to": null, "xas": null, "grain_boundaries": null, "band_gap": 0.0, "cbm": null, "vbm": null, "efermi": 6.99298746, "is_gap_direct": null, "is_metal": null, "es_source_calc_id": null, "bandstructure": null, "dos": null, "dos_energy_up": null, "dos_energy_down": null, "is_magnetic": null, "ordering": null, "total_magnetization": 0.0, "total_magnetization_normalized_vol": null, "total_magnetization_normalized_formula_units": null, "num_magnetic_sites": null, "num_unique_magnetic_sites": null, "types_of_magnetic_species": null, "bulk_modulus": null, "shear_modulus": null, "universal_anisotropy": null, "homogeneous_poisson": null, "e_total": null, "e_ionic": null, "e_electronic": null, "n": null, "e_ij_max": null, "weighted_surface_energy_EV_PER_ANG2": null, "weighted_surface_energy": null, "weighted_work_function": null, "surface_anisotropy": null, "shape_factor": null, "has_reconstructed": null, "possible_species": null, "has_props": null, "theoretical": null, "database_IDs": null, "fields_not_requested": ["builder_meta", "nsites", "elements", "nelements", "composition", "composition_reduced", "chemsys", "symmetry", "property_name", "deprecated", "deprecation_reasons", "last_updated", "origins", "warnings", "task_ids", "uncorrected_energy_per_atom", "equilibrium_reaction_energy_per_atom", "decomposes_to", "xas", "grain_boundaries", "cbm", "vbm", "is_gap_direct", "is_metal", "es_source_calc_id", "bandstructure", "dos", "dos_energy_up", "dos_energy_down", "is_magnetic", "ordering", "total_magnetization_normalized_vol", "total_magnetization_normalized_formula_units", "num_magnetic_sites", "num_unique_magnetic_sites", "types_of_magnetic_species", "bulk_modulus", "shear_modulus", "universal_anisotropy", "homogeneous_poisson", "e_total", "e_ionic", "e_electronic", "n", "e_ij_max", "weighted_surface_energy_EV_PER_ANG2", "weighted_surface_energy", "weighted_work_function", "surface_anisotropy", "shape_factor", "has_reconstructed", "possible_species", "has_props", "theoretical", "database_IDs"]}