{"builder_meta": null, "nsites": null, "elements": null, "nelements": null, "composition": null, "composition_reduced": null, "formula_pretty": "YSi3", "formula_anonymous": "AB3", "chemsys": null, "volume": 283.9210364143151, "density": 4.05102560445239, "density_atomic": 17.745064775894694, "symmetry": null, "property_name": null, "material_id": "mp-1189560", "deprecated": null, "deprecation_reasons": null, "last_updated": null, "origins": null, "warnings": null, "structure": {"@module": "pymatgen.core.structure", "@class": "Structure", "charge": 0, "lattice": {"matrix": [[-3.616768, 3.616768, 5.426206], [3.616768, -3.616768, 5.426206], [3.616768, 3.616768, -5.426206]], "pbc": [true, true, true], "a": 7.456925176376923, "b": 7.456925176376923, "c": 7.456925176376923, "alpha": 121.97225609792353, "beta": 121.97225609792353, "gamma": 86.61660229508855, "volume": 283.9210364143151}, "properties": {}, "sites": [{"species": [{"element": "Y", "occu": 1}], "abc": [0.829023, 0.829023, 0.0], "properties": {"magmom": -0.0}, "label": "Y", "xyz": [0.0, 0.0, 8.996899153475999]}, {"species": [{"element": "Y", "occu": 1}], "abc": [0.170977, 0.170977, 0.0], "properties": {"magmom": -0.0}, "label": "Y", "xyz": [0.0, 0.0, 1.8555128465239998]}, {"species": [{"element": "Y", "occu": 1}], "abc": [0.25, 0.75, 0.5], "properties": {"magmom": -0.0}, "label": "Y", "xyz": [3.6167679999999995, 2.220446049250313e-16, 2.713103]}, {"species": [{"element": "Y", "occu": 1}], "abc": [0.75, 0.25, 0.5], "properties": {"magmom": -0.0}, "label": "Y", "xyz": [2.220446049250313e-16, 3.6167679999999995, 2.713103]}, {"species": [{"element": "Si", "occu": 1}], "abc": [0.328275, 0.0, 0.328275], "properties": {"magmom": 0.0}, "label": "Si", "xyz": [0.0, 2.3745890303999997, 0.0]}, {"species": [{"element": "Si", "occu": 1}], "abc": [0.671725, 0.0, 0.671725], "properties": {"magmom": 0.0}, "label": "Si", "xyz": [0.0, 4.8589469696, 0.0]}, {"species": [{"element": "Si", "occu": 1}], "abc": [0.0, 0.671725, 0.671725], "properties": {"magmom": 0.0}, "label": "Si", "xyz": [4.8589469696, 0.0, 0.0]}, {"species": [{"element": "Si", "occu": 1}], "abc": [0.0, 0.328275, 0.328275], "properties": {"magmom": 0.0}, "label": "Si", "xyz": [2.3745890303999997, 0.0, 0.0]}, {"species": [{"element": "Si", "occu": 1}], "abc": [0.201587, 0.201587, 0.627456], "properties": {"magmom": 0.0}, "label": "Si", "xyz": [2.2693627822080003, 2.2693627822080003, -1.217000334092]}, {"species": [{"element": "Si", "occu": 1}], "abc": [0.574131, 0.574131, 0.372544], "properties": {"magmom": 0.0}, "label": "Si", "xyz": [1.347405217792, 1.347405217792, 4.209205665908]}, {"species": [{"element": "Si", "occu": 1}], "abc": [0.201587, 0.574131, 0.0], "properties": {"magmom": 0.0}, "label": "Si", "xyz": [1.3474052177919997, -1.3474052177919997, 4.209205665908]}, {"species": [{"element": "Si", "occu": 1}], "abc": [0.574131, 0.201587, 0.0], "properties": {"magmom": 0.0}, "label": "Si", "xyz": [-1.3474052177919997, 1.3474052177919997, 4.209205665908]}, {"species": [{"element": "Si", "occu": 1}], "abc": [0.798412999999999, 0.798412999999999, 0.372544], "properties": {"magmom": 0.0}, "label": "Si", "xyz": [1.347405217792, 1.347405217792, 6.643206334091989]}, {"species": [{"element": "Si", "occu": 1}], "abc": [0.425869, 0.425869, 0.627456], "properties": {"magmom": 0.0}, "label": "Si", "xyz": [2.2693627822080003, 2.2693627822080003, 1.2170003340920004]}, {"species": [{"element": "Si", "occu": 1}], "abc": [0.798412999999999, 0.425869, 0.0], "properties": {"magmom": 0.0}, "label": "Si", "xyz": [-1.3474052177919964, 1.3474052177919964, 6.643206334091994]}, {"species": [{"element": "Si", "occu": 1}], "abc": [0.425869, 0.798412999999999, 0.0], "properties": {"magmom": 0.0}, "label": "Si", "xyz": [1.3474052177919964, -1.3474052177919964, 6.643206334091994]}]}, "task_ids": null, "uncorrected_energy_per_atom": null, "energy_per_atom": -11.999032503749998, "formation_energy_per_atom": -0.34030881749999803, "energy_above_hull": 0.10880533625000001, "is_stable": false, "equilibrium_reaction_energy_per_atom": null, "decomposes_to": null, "xas": null, "grain_boundaries": null, "band_gap": 0.0, "cbm": null, "vbm": null, "efermi": 7.82218234, "is_gap_direct": null, "is_metal": null, "es_source_calc_id": null, "bandstructure": null, "dos": null, "dos_energy_up": null, "dos_energy_down": null, "is_magnetic": null, "ordering": null, "total_magnetization": 0.0001775, "total_magnetization_normalized_vol": null, "total_magnetization_normalized_formula_units": null, "num_magnetic_sites": null, "num_unique_magnetic_sites": null, "types_of_magnetic_species": null, "bulk_modulus": null, "shear_modulus": null, "universal_anisotropy": null, "homogeneous_poisson": null, "e_total": null, "e_ionic": null, "e_electronic": null, "n": null, "e_ij_max": null, "weighted_surface_energy_EV_PER_ANG2": null, "weighted_surface_energy": null, "weighted_work_function": null, "surface_anisotropy": null, "shape_factor": null, "has_reconstructed": null, "possible_species": null, "has_props": null, "theoretical": null, "database_IDs": null, "fields_not_requested": ["builder_meta", "nsites", "elements", "nelements", "composition", "composition_reduced", "chemsys", "symmetry", "property_name", "deprecated", "deprecation_reasons", "last_updated", "origins", "warnings", "task_ids", "uncorrected_energy_per_atom", "equilibrium_reaction_energy_per_atom", "decomposes_to", "xas", "grain_boundaries", "cbm", "vbm", "is_gap_direct", "is_metal", "es_source_calc_id", "bandstructure", "dos", "dos_energy_up", "dos_energy_down", "is_magnetic", "ordering", "total_magnetization_normalized_vol", "total_magnetization_normalized_formula_units", "num_magnetic_sites", "num_unique_magnetic_sites", "types_of_magnetic_species", "bulk_modulus", "shear_modulus", "universal_anisotropy", "homogeneous_poisson", "e_total", "e_ionic", "e_electronic", "n", "e_ij_max", "weighted_surface_energy_EV_PER_ANG2", "weighted_surface_energy", "weighted_work_function", "surface_anisotropy", "shape_factor", "has_reconstructed", "possible_species", "has_props", "theoretical", "database_IDs"]}