{
  "builder_meta": null,
  "nsites": null,
  "elements": null,
  "nelements": null,
  "composition": null,
  "composition_reduced": null,
  "formula_pretty": "YSn2",
  "formula_anonymous": "AB2",
  "chemsys": null,
  "volume": 158.1998765761154,
  "density": 6.850534072392098,
  "density_atomic": 26.366646096019235,
  "symmetry": null,
  "property_name": null,
  "material_id": "mp-13010",
  "deprecated": null,
  "deprecation_reasons": null,
  "last_updated": null,
  "origins": null,
  "warnings": null,
  "structure": {
    "@module": "pymatgen.core.structure",
    "@class": "Structure",
    "charge": 0,
    "lattice": {
      "matrix": [
        [4.32142642, 0.0, 0.0],
        [0.0, 4.25139075, -1.14089736],
        [0.0, 0.03686152, 8.60099696]
      ],
      "pbc": [true, true, true],
      "a": 4.32142642,
      "b": 4.401814409449872,
      "c": 8.60107594883256,
      "alpha": 104.77633234371028,
      "beta": 90.0,
      "gamma": 90.0,
      "volume": 158.1998765761154
    },
    "properties": {},
    "sites": [
      {
        "species": [{ "element": "Y", "occu": 1 }],
        "abc": [0.75, 0.10132552, 0.20149148],
        "properties": { "magmom": 0.0 },
        "label": "Y",
        "xyz": [3.241069815, 0.4382016606867896, 1.6174255886772735]
      },
      {
        "species": [{ "element": "Y", "occu": 1 }],
        "abc": [0.25, 0.8986735, 0.79851849],
        "properties": { "magmom": 0.0 },
        "label": "Y",
        "xyz": [1.080356605, 3.8500468104596295, 5.84276088134183]
      },
      {
        "species": [{ "element": "Sn", "occu": 1 }],
        "abc": [0.75, 0.43861289000000003, 0.87901041],
        "properties": { "magmom": -0.0 },
        "label": "Sn",
        "xyz": [3.241069815, 1.8971164431851906, 7.059953575955383]
      },
      {
        "species": [{ "element": "Sn", "occu": 1 }],
        "abc": [0.25, 0.56132846, 0.12087387000000001],
        "properties": { "magmom": 0.0 },
        "label": "Sn",
        "xyz": [1.080356605, 2.3908822171322273, 0.39921763030656965]
      },
      {
        "species": [{ "element": "Sn", "occu": 1 }],
        "abc": [0.75, 0.74727921, 0.49633553],
        "properties": { "magmom": -0.0 },
        "label": "Sn",
        "xyz": [3.241069815, 3.195271603127113, 3.4164115067981036]
      },
      {
        "species": [{ "element": "Sn", "occu": 1 }],
        "abc": [0.25, 0.25277942000000003, 0.50376921],
        "properties": { "magmom": 0.0 },
        "label": "Sn",
        "xyz": [1.080356605, 1.0932337867881643, 4.0445220708112695]
      }
    ]
  },
  "task_ids": null,
  "uncorrected_energy_per_atom": null,
  "energy_per_atom": -5.438637684999999,
  "formation_energy_per_atom": -0.595892614999998,
  "energy_above_hull": 0.0,
  "is_stable": true,
  "equilibrium_reaction_energy_per_atom": null,
  "decomposes_to": null,
  "xas": null,
  "grain_boundaries": null,
  "band_gap": 0.0,
  "cbm": null,
  "vbm": null,
  "efermi": 6.85905415,
  "is_gap_direct": null,
  "is_metal": null,
  "es_source_calc_id": null,
  "bandstructure": null,
  "dos": null,
  "dos_energy_up": null,
  "dos_energy_down": null,
  "is_magnetic": null,
  "ordering": null,
  "total_magnetization": 0.0,
  "total_magnetization_normalized_vol": null,
  "total_magnetization_normalized_formula_units": null,
  "num_magnetic_sites": null,
  "num_unique_magnetic_sites": null,
  "types_of_magnetic_species": null,
  "bulk_modulus": null,
  "shear_modulus": null,
  "universal_anisotropy": null,
  "homogeneous_poisson": null,
  "e_total": null,
  "e_ionic": null,
  "e_electronic": null,
  "n": null,
  "e_ij_max": null,
  "weighted_surface_energy_EV_PER_ANG2": null,
  "weighted_surface_energy": null,
  "weighted_work_function": null,
  "surface_anisotropy": null,
  "shape_factor": null,
  "has_reconstructed": null,
  "possible_species": null,
  "has_props": null,
  "theoretical": null,
  "database_IDs": null,
  "fields_not_requested": [
    "builder_meta",
    "nsites",
    "elements",
    "nelements",
    "composition",
    "composition_reduced",
    "chemsys",
    "symmetry",
    "property_name",
    "deprecated",
    "deprecation_reasons",
    "last_updated",
    "origins",
    "warnings",
    "task_ids",
    "uncorrected_energy_per_atom",
    "equilibrium_reaction_energy_per_atom",
    "decomposes_to",
    "xas",
    "grain_boundaries",
    "cbm",
    "vbm",
    "is_gap_direct",
    "is_metal",
    "es_source_calc_id",
    "bandstructure",
    "dos",
    "dos_energy_up",
    "dos_energy_down",
    "is_magnetic",
    "ordering",
    "total_magnetization_normalized_vol",
    "total_magnetization_normalized_formula_units",
    "num_magnetic_sites",
    "num_unique_magnetic_sites",
    "types_of_magnetic_species",
    "bulk_modulus",
    "shear_modulus",
    "universal_anisotropy",
    "homogeneous_poisson",
    "e_total",
    "e_ionic",
    "e_electronic",
    "n",
    "e_ij_max",
    "weighted_surface_energy_EV_PER_ANG2",
    "weighted_surface_energy",
    "weighted_work_function",
    "surface_anisotropy",
    "shape_factor",
    "has_reconstructed",
    "possible_species",
    "has_props",
    "theoretical",
    "database_IDs"
  ]
}
