{"builder_meta": null, "nsites": null, "elements": null, "nelements": null, "composition": null, "composition_reduced": null, "formula_pretty": "YTc2", "formula_anonymous": "AB2", "chemsys": null, "volume": 220.01606383186768, "density": 8.601140952860822, "density_atomic": 18.334671985988972, "symmetry": null, "property_name": null, "material_id": "mp-1102030", "deprecated": null, "deprecation_reasons": null, "last_updated": null, "origins": null, "warnings": null, "structure": {"@module": "pymatgen.core.structure", "@class": "Structure", "charge": 0, "lattice": {"matrix": [[-2.6760002800000002, -4.6347907, 1.87e-06], [-2.67600439, 4.63479377, 3.28e-06], [8.23e-06, -1.28e-06, -8.86967356]], "pbc": [true, true, true], "a": 5.351846628162103, "b": 5.351851341894769, "c": 8.869673560003912, "alpha": 90.00006885822197, "beta": 90.00003944179774, "gamma": 119.99807541563756, "volume": 220.0160638318677}, "properties": {}, "sites": [{"species": [{"element": "Y", "occu": 1}], "abc": [0.66667189, 0.33332811, 0.56298115], "properties": {"magmom": 0.0}, "label": "Y", "xyz": [-2.675997016643668, -1.5449783487454205, -4.99345668094076]}, {"species": [{"element": "Y", "occu": 1}], "abc": [0.33332866, 0.6666713400000001, 0.43701567], "properties": {"magmom": 0.0}, "label": "Y", "xyz": [-2.6759994233802438, 1.5449750404780325, -3.8761835234980966]}, {"species": [{"element": "Y", "occu": 1}], "abc": [0.33332869, 0.66667131, 0.06298058000000001], "properties": {"magmom": -0.0}, "label": "Y", "xyz": [-2.676002501688911, 1.5449752411554136, -0.5586143752129178]}, {"species": [{"element": "Y", "occu": 1}], "abc": [0.66667187, 0.33332813, 0.93702252], "properties": {"magmom": -0.0}, "label": "Y", "xyz": [-2.675993938283275, -1.544978642126685, -8.311081530775908]}, {"species": [{"element": "Tc", "occu": 1}], "abc": [-2.2e-07, 0.99999922, 0.50001436], "properties": {"magmom": 0.0}, "label": "Tc", "xyz": [-2.6759975988783316, 4.634790534496433, -4.434960868515291]}, {"species": [{"element": "Tc", "occu": 1}], "abc": [-2.299999999999999e-07, 0.99999923, 0.999985599999999], "properties": {"magmom": 0.0}, "label": "Tc", "xyz": [-2.6759934841150677, 4.63478998722909, -8.869542556703685]}, {"species": [{"element": "Tc", "occu": 1}], "abc": [0.171228599999999, 0.34244119, 0.750001199999999], "properties": {"magmom": 0.0}, "label": "Tc", "xyz": [-1.3745757367909537, 0.793534611147835, -6.652264370203679]}, {"species": [{"element": "Tc", "occu": 1}], "abc": [0.17121787, 0.82878313, 0.75000115], "properties": {"magmom": 0.0}, "label": "Tc", "xyz": [-2.6760001897894803, 3.0476789360538192, -6.652262331538512]}, {"species": [{"element": "Tc", "occu": 1}], "abc": [0.65755881, 0.828771399999999, 0.750001199999999], "properties": {"magmom": 0.0}, "label": "Tc", "xyz": [-3.9774172918730346, 0.7935361041815701, -6.652261865603098]}, {"species": [{"element": "Tc", "occu": 1}], "abc": [0.82877742, 0.65757057, 0.24999879], "properties": {"magmom": 0.0}, "label": "Tc", "xyz": [-3.977468282542438, -0.7935062174130961, -2.2174039510497474]}, {"species": [{"element": "Tc", "occu": 1}], "abc": [0.82878822, 0.17121278, 0.24999899], "properties": {"magmom": 0.0}, "label": "Tc", "xyz": [-2.6760016021931183, -3.0477243282358804, -2.217407320217815]}, {"species": [{"element": "Tc", "occu": 1}], "abc": [0.34243043, 0.17122158, 0.24999879], "properties": {"magmom": 0.0}, "label": "Tc", "xyz": [-1.3745315688132151, -0.7935169800858956, -2.2174064557433057]}]}, "task_ids": null, "uncorrected_energy_per_atom": null, "energy_per_atom": -24.256457004166666, "formation_energy_per_atom": -0.17548198416666502, "energy_above_hull": 0.0, "is_stable": true, "equilibrium_reaction_energy_per_atom": null, "decomposes_to": null, "xas": null, "grain_boundaries": null, "band_gap": 0.0, "cbm": null, "vbm": null, "efermi": 6.17188966, "is_gap_direct": null, "is_metal": null, "es_source_calc_id": null, "bandstructure": null, "dos": null, "dos_energy_up": null, "dos_energy_down": null, "is_magnetic": null, "ordering": null, "total_magnetization": 0.0001723, "total_magnetization_normalized_vol": null, "total_magnetization_normalized_formula_units": null, "num_magnetic_sites": null, "num_unique_magnetic_sites": null, "types_of_magnetic_species": null, "bulk_modulus": null, "shear_modulus": null, "universal_anisotropy": null, "homogeneous_poisson": null, "e_total": null, "e_ionic": null, "e_electronic": null, "n": null, "e_ij_max": null, "weighted_surface_energy_EV_PER_ANG2": null, "weighted_surface_energy": null, "weighted_work_function": null, "surface_anisotropy": null, "shape_factor": null, "has_reconstructed": null, "possible_species": null, "has_props": null, "theoretical": null, "database_IDs": null, "fields_not_requested": ["builder_meta", "nsites", "elements", "nelements", "composition", "composition_reduced", "chemsys", "symmetry", "property_name", "deprecated", "deprecation_reasons", "last_updated", "origins", "warnings", "task_ids", "uncorrected_energy_per_atom", "equilibrium_reaction_energy_per_atom", "decomposes_to", "xas", "grain_boundaries", "cbm", "vbm", "is_gap_direct", "is_metal", "es_source_calc_id", "bandstructure", "dos", "dos_energy_up", "dos_energy_down", "is_magnetic", "ordering", "total_magnetization_normalized_vol", "total_magnetization_normalized_formula_units", "num_magnetic_sites", "num_unique_magnetic_sites", "types_of_magnetic_species", "bulk_modulus", "shear_modulus", "universal_anisotropy", "homogeneous_poisson", "e_total", "e_ionic", "e_electronic", "n", "e_ij_max", "weighted_surface_energy_EV_PER_ANG2", "weighted_surface_energy", "weighted_work_function", "surface_anisotropy", "shape_factor", "has_reconstructed", "possible_species", "has_props", "theoretical", "database_IDs"]}