{"builder_meta": null, "nsites": null, "elements": null, "nelements": null, "composition": null, "composition_reduced": null, "formula_pretty": "YTe", "formula_anonymous": "AB", "chemsys": null, "volume": 59.39180146539537, "density": 6.053300509530963, "density_atomic": 29.695900732697684, "symmetry": null, "property_name": null, "material_id": "mp-865430", "deprecated": null, "deprecation_reasons": null, "last_updated": null, "origins": null, "warnings": null, "structure": {"@module": "pymatgen.core.structure", "@class": "Structure", "charge": 0, "lattice": {"matrix": [[4.10909513, -3.119999999999999e-06, 0.0], [-2.05455016, 3.5585763200000002, -0.0], [-0.0, 0.0, 4.06166601]], "pbc": [true, true, true], "a": 4.109095130001185, "b": 4.109092574428175, "c": 4.06166601, "alpha": 90.0, "beta": 90.0, "gamma": 120.0001058589572, "volume": 59.391801465395375}, "properties": {}, "sites": [{"species": [{"element": "Y", "occu": 1}], "abc": [0.333333999999999, 0.666667, 0.25], "properties": {"magmom": 0.434}, "label": "Y", "xyz": [3.2454669618431353e-07, 2.3723843595233602, 1.0154165025]}, {"species": [{"element": "Te", "occu": 1}], "abc": [0.666669, 0.333335, 0.749999], "properties": {"magmom": -0.008}, "label": "Te", "xyz": [2.05455286363837, 1.1861959576199201, 3.0462454458339896]}]}, "task_ids": null, "uncorrected_energy_per_atom": null, "energy_per_atom": -6.336784475000002, "formation_energy_per_atom": -1.510585778333334, "energy_above_hull": 0.0, "is_stable": true, "equilibrium_reaction_energy_per_atom": null, "decomposes_to": null, "xas": null, "grain_boundaries": null, "band_gap": 0.0, "cbm": null, "vbm": null, "efermi": 5.95178922, "is_gap_direct": null, "is_metal": null, "es_source_calc_id": null, "bandstructure": null, "dos": null, "dos_energy_up": null, "dos_energy_down": null, "is_magnetic": null, "ordering": null, "total_magnetization": 0.843869299999999, "total_magnetization_normalized_vol": null, "total_magnetization_normalized_formula_units": null, "num_magnetic_sites": null, "num_unique_magnetic_sites": null, "types_of_magnetic_species": null, "bulk_modulus": null, "shear_modulus": null, "universal_anisotropy": null, "homogeneous_poisson": null, "e_total": null, "e_ionic": null, "e_electronic": null, "n": null, "e_ij_max": null, "weighted_surface_energy_EV_PER_ANG2": null, "weighted_surface_energy": null, "weighted_work_function": null, "surface_anisotropy": null, "shape_factor": null, "has_reconstructed": null, "possible_species": null, "has_props": null, "theoretical": null, "database_IDs": null, "fields_not_requested": ["builder_meta", "nsites", "elements", "nelements", "composition", "composition_reduced", "chemsys", "symmetry", "property_name", "deprecated", "deprecation_reasons", "last_updated", "origins", "warnings", "task_ids", "uncorrected_energy_per_atom", "equilibrium_reaction_energy_per_atom", "decomposes_to", "xas", "grain_boundaries", "cbm", "vbm", "is_gap_direct", "is_metal", "es_source_calc_id", "bandstructure", "dos", "dos_energy_up", "dos_energy_down", "is_magnetic", "ordering", "total_magnetization_normalized_vol", "total_magnetization_normalized_formula_units", "num_magnetic_sites", "num_unique_magnetic_sites", "types_of_magnetic_species", "bulk_modulus", "shear_modulus", "universal_anisotropy", "homogeneous_poisson", "e_total", "e_ionic", "e_electronic", "n", "e_ij_max", "weighted_surface_energy_EV_PER_ANG2", "weighted_surface_energy", "weighted_work_function", "surface_anisotropy", "shape_factor", "has_reconstructed", "possible_species", "has_props", "theoretical", "database_IDs"]}