{
  "builder_meta": null,
  "nsites": null,
  "elements": null,
  "nelements": null,
  "composition": null,
  "composition_reduced": null,
  "formula_pretty": "YZn3",
  "formula_anonymous": "AB3",
  "chemsys": null,
  "volume": 288.7399470469347,
  "density": 6.559178824245396,
  "density_atomic": 18.046246690433417,
  "symmetry": null,
  "property_name": null,
  "material_id": "mp-30884",
  "deprecated": null,
  "deprecation_reasons": null,
  "last_updated": null,
  "origins": null,
  "warnings": null,
  "structure": {
    "@module": "pymatgen.core.structure",
    "@class": "Structure",
    "charge": 0,
    "lattice": {
      "matrix": [
        [4.34964261, -0.0, 0.0],
        [-0.0, 6.60907061, 0.0],
        [0.0, 0.0, 10.04414344]
      ],
      "pbc": [true, true, true],
      "a": 4.34964261,
      "b": 6.60907061,
      "c": 10.04414344,
      "alpha": 90.0,
      "beta": 90.0,
      "gamma": 90.0,
      "volume": 288.7399470469347
    },
    "properties": {},
    "sites": [
      {
        "species": [{ "element": "Y", "occu": 1 }],
        "abc": [0.25, 0.7758253700000001, 0.15922172],
        "properties": { "magmom": -0.0 },
        "label": "Y",
        "xyz": [1.0874106525, 5.127484651359376, 1.5992457944435168]
      },
      {
        "species": [{ "element": "Y", "occu": 1 }],
        "abc": [0.75, 0.22417463, 0.84077828],
        "properties": { "magmom": -0.0 },
        "label": "Y",
        "xyz": [3.2622319575, 1.4815859586406244, 8.444897645556482]
      },
      {
        "species": [{ "element": "Y", "occu": 1 }],
        "abc": [0.25, 0.27582537, 0.34077828],
        "properties": { "magmom": -0.0 },
        "label": "Y",
        "xyz": [1.0874106525, 1.8229493463593758, 3.422825925556483]
      },
      {
        "species": [{ "element": "Y", "occu": 1 }],
        "abc": [0.75, 0.72417463, 0.65922172],
        "properties": { "magmom": -0.0 },
        "label": "Y",
        "xyz": [3.2622319575, 4.7861212636406245, 6.621317514443517]
      },
      {
        "species": [{ "element": "Zn", "occu": 1 }],
        "abc": [0.25, 0.03903293, 0.60926181],
        "properties": { "magmom": 0.0 },
        "label": "Zn",
        "xyz": [1.0874106525, 0.2579713904851873, 6.119513012154026]
      },
      {
        "species": [{ "element": "Zn", "occu": 1 }],
        "abc": [0.75, 0.96096707, 0.39073819],
        "properties": { "magmom": 0.0 },
        "label": "Zn",
        "xyz": [3.2622319575, 6.351099219514813, 3.924630427845973]
      },
      {
        "species": [{ "element": "Zn", "occu": 1 }],
        "abc": [0.25, 0.53903293, 0.89073819],
        "properties": { "magmom": 0.0 },
        "label": "Zn",
        "xyz": [1.0874106525, 3.562506695485187, 8.946702147845972]
      },
      {
        "species": [{ "element": "Zn", "occu": 1 }],
        "abc": [0.75, 0.46096707000000003, 0.10926181],
        "properties": { "magmom": 0.0 },
        "label": "Zn",
        "xyz": [3.2622319575, 3.0465639145148127, 1.0974412921540264]
      },
      {
        "species": [{ "element": "Zn", "occu": 1 }],
        "abc": [0.75, 0.77292213, 0.95447862],
        "properties": { "magmom": -0.0 },
        "label": "Zn",
        "xyz": [3.2622319575, 5.108296933201599, 9.586920169693252]
      },
      {
        "species": [{ "element": "Zn", "occu": 1 }],
        "abc": [0.25, 0.22707787000000001, 0.04552138],
        "properties": { "magmom": -0.0 },
        "label": "Zn",
        "xyz": [1.0874106525, 1.5007736767984008, 0.45722327030674714]
      },
      {
        "species": [{ "element": "Zn", "occu": 1 }],
        "abc": [0.75, 0.27292213, 0.5455213800000001],
        "properties": { "magmom": -0.0 },
        "label": "Zn",
        "xyz": [3.2622319575, 1.8037616282015991, 5.479294990306747]
      },
      {
        "species": [{ "element": "Zn", "occu": 1 }],
        "abc": [0.25, 0.72707787, 0.45447862],
        "properties": { "magmom": -0.0 },
        "label": "Zn",
        "xyz": [1.0874106525, 4.805308981798401, 4.564848449693252]
      },
      {
        "species": [{ "element": "Zn", "occu": 1 }],
        "abc": [0.75, 0.08066849, 0.14393011],
        "properties": { "magmom": 0.0 },
        "label": "Zn",
        "xyz": [3.2622319575, 0.5331437464120788, 1.4456546701749782]
      },
      {
        "species": [{ "element": "Zn", "occu": 1 }],
        "abc": [0.25, 0.91933151, 0.85606989],
        "properties": { "magmom": 0.0 },
        "label": "Zn",
        "xyz": [1.0874106525, 6.075926863587921, 8.598488769825021]
      },
      {
        "species": [{ "element": "Zn", "occu": 1 }],
        "abc": [0.75, 0.58066849, 0.35606989],
        "properties": { "magmom": 0.0 },
        "label": "Zn",
        "xyz": [3.2622319575, 3.8376790514120787, 3.576417049825021]
      },
      {
        "species": [{ "element": "Zn", "occu": 1 }],
        "abc": [0.25, 0.41933151, 0.64393011],
        "properties": { "magmom": 0.0 },
        "label": "Zn",
        "xyz": [1.0874106525, 2.771391558587921, 6.4677263901749775]
      }
    ]
  },
  "task_ids": null,
  "uncorrected_energy_per_atom": null,
  "energy_per_atom": -12.1622273,
  "formation_energy_per_atom": -0.40087510625,
  "energy_above_hull": 0.0,
  "is_stable": true,
  "equilibrium_reaction_energy_per_atom": null,
  "decomposes_to": null,
  "xas": null,
  "grain_boundaries": null,
  "band_gap": 0.0,
  "cbm": null,
  "vbm": null,
  "efermi": 3.03128515,
  "is_gap_direct": null,
  "is_metal": null,
  "es_source_calc_id": null,
  "bandstructure": null,
  "dos": null,
  "dos_energy_up": null,
  "dos_energy_down": null,
  "is_magnetic": null,
  "ordering": null,
  "total_magnetization": 1.2e-6,
  "total_magnetization_normalized_vol": null,
  "total_magnetization_normalized_formula_units": null,
  "num_magnetic_sites": null,
  "num_unique_magnetic_sites": null,
  "types_of_magnetic_species": null,
  "bulk_modulus": null,
  "shear_modulus": null,
  "universal_anisotropy": null,
  "homogeneous_poisson": null,
  "e_total": null,
  "e_ionic": null,
  "e_electronic": null,
  "n": null,
  "e_ij_max": null,
  "weighted_surface_energy_EV_PER_ANG2": null,
  "weighted_surface_energy": null,
  "weighted_work_function": null,
  "surface_anisotropy": null,
  "shape_factor": null,
  "has_reconstructed": null,
  "possible_species": null,
  "has_props": null,
  "theoretical": null,
  "database_IDs": null,
  "fields_not_requested": [
    "builder_meta",
    "nsites",
    "elements",
    "nelements",
    "composition",
    "composition_reduced",
    "chemsys",
    "symmetry",
    "property_name",
    "deprecated",
    "deprecation_reasons",
    "last_updated",
    "origins",
    "warnings",
    "task_ids",
    "uncorrected_energy_per_atom",
    "equilibrium_reaction_energy_per_atom",
    "decomposes_to",
    "xas",
    "grain_boundaries",
    "cbm",
    "vbm",
    "is_gap_direct",
    "is_metal",
    "es_source_calc_id",
    "bandstructure",
    "dos",
    "dos_energy_up",
    "dos_energy_down",
    "is_magnetic",
    "ordering",
    "total_magnetization_normalized_vol",
    "total_magnetization_normalized_formula_units",
    "num_magnetic_sites",
    "num_unique_magnetic_sites",
    "types_of_magnetic_species",
    "bulk_modulus",
    "shear_modulus",
    "universal_anisotropy",
    "homogeneous_poisson",
    "e_total",
    "e_ionic",
    "e_electronic",
    "n",
    "e_ij_max",
    "weighted_surface_energy_EV_PER_ANG2",
    "weighted_surface_energy",
    "weighted_work_function",
    "surface_anisotropy",
    "shape_factor",
    "has_reconstructed",
    "possible_species",
    "has_props",
    "theoretical",
    "database_IDs"
  ]
}
