{
  "builder_meta": null,
  "nsites": null,
  "elements": null,
  "nelements": null,
  "composition": null,
  "composition_reduced": null,
  "formula_pretty": "Zn2Ag",
  "formula_anonymous": "AB2",
  "chemsys": null,
  "volume": 180.91885783171742,
  "density": 8.762994958258375,
  "density_atomic": 15.076571485976451,
  "symmetry": null,
  "property_name": null,
  "material_id": "mp-1093999",
  "deprecated": null,
  "deprecation_reasons": null,
  "last_updated": null,
  "origins": null,
  "warnings": null,
  "structure": {
    "@module": "pymatgen.core.structure",
    "@class": "Structure",
    "charge": 0,
    "lattice": {
      "matrix": [
        [-2.54737173, -4.4121763, -0.0],
        [-2.54737173, 4.4121763, 0.0],
        [0.0, -0.0, -8.04838345]
      ],
      "pbc": [true, true, true],
      "a": 5.094742626775653,
      "b": 5.094742626775653,
      "c": 8.04838345,
      "alpha": 90.0,
      "beta": 90.0,
      "gamma": 119.99998917988904,
      "volume": 180.91885783171742
    },
    "properties": {},
    "sites": [
      {
        "species": [{ "element": "Zn", "occu": 1 }],
        "abc": [0.0, -0.0, -0.0],
        "properties": { "magmom": 0.0 },
        "label": "Zn",
        "xyz": [0.0, 0.0, 0.0]
      },
      {
        "species": [{ "element": "Zn", "occu": 1 }],
        "abc": [0.0, -0.0, 0.5],
        "properties": { "magmom": 0.0 },
        "label": "Zn",
        "xyz": [0.0, 0.0, -4.024191725]
      },
      {
        "species": [{ "element": "Zn", "occu": 1 }],
        "abc": [0.8283647, 0.1716353, 0.25],
        "properties": { "magmom": -0.0 },
        "label": "Zn",
        "xyz": [-2.5473717299999996, -2.8976058941932195, -2.0120958625]
      },
      {
        "species": [{ "element": "Zn", "occu": 1 }],
        "abc": [0.1716353, 0.34327161, 0.75],
        "properties": { "magmom": -0.0 },
        "label": "Zn",
        "xyz": [-1.3116593061156543, 0.7572896592014531, -6.0362875874999995]
      },
      {
        "species": [{ "element": "Zn", "occu": 1 }],
        "abc": [0.65672839, 0.8283647, 0.75],
        "properties": { "magmom": -0.0 },
        "label": "Zn",
        "xyz": [-3.783084153884346, 0.7572896592014526, -6.0362875874999995]
      },
      {
        "species": [{ "element": "Zn", "occu": 1 }],
        "abc": [0.34327161, 0.1716353, 0.25],
        "properties": { "magmom": -0.0 },
        "label": "Zn",
        "xyz": [-1.3116593061156543, -0.7572896592014531, -2.0120958625]
      },
      {
        "species": [{ "element": "Zn", "occu": 1 }],
        "abc": [0.8283647, 0.65672839, 0.25],
        "properties": { "magmom": -0.0 },
        "label": "Zn",
        "xyz": [-3.783084153884346, -0.7572896592014526, -2.0120958625]
      },
      {
        "species": [{ "element": "Zn", "occu": 1 }],
        "abc": [0.1716353, 0.8283647, 0.75],
        "properties": { "magmom": -0.0 },
        "label": "Zn",
        "xyz": [-2.5473717299999996, 2.8976058941932195, -6.0362875874999995]
      },
      {
        "species": [{ "element": "Ag", "occu": 1 }],
        "abc": [0.666667, 0.333333999999999, 0.93822206],
        "properties": { "magmom": 0.0 },
        "label": "Ag",
        "xyz": [-2.547374277371728, -1.4707239626079045, -7.5511709001289065]
      },
      {
        "species": [{ "element": "Ag", "occu": 1 }],
        "abc": [0.333333, 0.666666, 0.43822206],
        "properties": { "magmom": 0.0 },
        "label": "Ag",
        "xyz": [-2.54736918262827, 1.4707239626078998, -3.526979175128907]
      },
      {
        "species": [{ "element": "Ag", "occu": 1 }],
        "abc": [0.333333, 0.666666, 0.06177794],
        "properties": { "magmom": 0.0 },
        "label": "Ag",
        "xyz": [-2.54736918262827, 1.4707239626078998, -0.497212549871093]
      },
      {
        "species": [{ "element": "Ag", "occu": 1 }],
        "abc": [0.666667, 0.333333999999999, 0.56177794],
        "properties": { "magmom": 0.0 },
        "label": "Ag",
        "xyz": [-2.547374277371728, -1.4707239626079045, -4.5214042748710925]
      }
    ]
  },
  "task_ids": null,
  "uncorrected_energy_per_atom": null,
  "energy_per_atom": -13.085508533333334,
  "formation_energy_per_atom": -0.026481081666669,
  "energy_above_hull": 0.0,
  "is_stable": true,
  "equilibrium_reaction_energy_per_atom": null,
  "decomposes_to": null,
  "xas": null,
  "grain_boundaries": null,
  "band_gap": 0.0,
  "cbm": null,
  "vbm": null,
  "efermi": 3.32965812,
  "is_gap_direct": null,
  "is_metal": null,
  "es_source_calc_id": null,
  "bandstructure": null,
  "dos": null,
  "dos_energy_up": null,
  "dos_energy_down": null,
  "is_magnetic": null,
  "ordering": null,
  "total_magnetization": 1e-7,
  "total_magnetization_normalized_vol": null,
  "total_magnetization_normalized_formula_units": null,
  "num_magnetic_sites": null,
  "num_unique_magnetic_sites": null,
  "types_of_magnetic_species": null,
  "bulk_modulus": null,
  "shear_modulus": null,
  "universal_anisotropy": null,
  "homogeneous_poisson": null,
  "e_total": null,
  "e_ionic": null,
  "e_electronic": null,
  "n": null,
  "e_ij_max": null,
  "weighted_surface_energy_EV_PER_ANG2": null,
  "weighted_surface_energy": null,
  "weighted_work_function": null,
  "surface_anisotropy": null,
  "shape_factor": null,
  "has_reconstructed": null,
  "possible_species": null,
  "has_props": null,
  "theoretical": null,
  "database_IDs": null,
  "fields_not_requested": [
    "builder_meta",
    "nsites",
    "elements",
    "nelements",
    "composition",
    "composition_reduced",
    "chemsys",
    "symmetry",
    "property_name",
    "deprecated",
    "deprecation_reasons",
    "last_updated",
    "origins",
    "warnings",
    "task_ids",
    "uncorrected_energy_per_atom",
    "equilibrium_reaction_energy_per_atom",
    "decomposes_to",
    "xas",
    "grain_boundaries",
    "cbm",
    "vbm",
    "is_gap_direct",
    "is_metal",
    "es_source_calc_id",
    "bandstructure",
    "dos",
    "dos_energy_up",
    "dos_energy_down",
    "is_magnetic",
    "ordering",
    "total_magnetization_normalized_vol",
    "total_magnetization_normalized_formula_units",
    "num_magnetic_sites",
    "num_unique_magnetic_sites",
    "types_of_magnetic_species",
    "bulk_modulus",
    "shear_modulus",
    "universal_anisotropy",
    "homogeneous_poisson",
    "e_total",
    "e_ionic",
    "e_electronic",
    "n",
    "e_ij_max",
    "weighted_surface_energy_EV_PER_ANG2",
    "weighted_surface_energy",
    "weighted_work_function",
    "surface_anisotropy",
    "shape_factor",
    "has_reconstructed",
    "possible_species",
    "has_props",
    "theoretical",
    "database_IDs"
  ]
}
