{
  "builder_meta": null,
  "nsites": null,
  "elements": null,
  "nelements": null,
  "composition": null,
  "composition_reduced": null,
  "formula_pretty": "Zn2Pd",
  "formula_anonymous": "AB2",
  "chemsys": null,
  "volume": 336.9921415910341,
  "density": 9.351979906050886,
  "density_atomic": 14.041339232959755,
  "symmetry": null,
  "property_name": null,
  "material_id": "mp-1215714",
  "deprecated": null,
  "deprecation_reasons": null,
  "last_updated": null,
  "origins": null,
  "warnings": null,
  "structure": {
    "@module": "pymatgen.core.structure",
    "@class": "Structure",
    "charge": 0,
    "lattice": {
      "matrix": [
        [3.74612093, 3.6724955, 0.0],
        [-3.74612093, 3.6724955, 0.0],
        [0.0, 0.0, 12.24747926]
      ],
      "pbc": [true, true, true],
      "a": 5.246012316007685,
      "b": 5.246012316007685,
      "c": 12.24747926,
      "alpha": 90.0,
      "beta": 90.0,
      "gamma": 91.13721688005678,
      "volume": 336.9921415910341
    },
    "properties": {},
    "sites": [
      {
        "species": [{ "element": "Zn", "occu": 1 }],
        "abc": [0.27687737, 0.72312263, 0.0055216],
        "properties": { "magmom": -0.0 },
        "label": "Zn",
        "xyz": [-1.6716887083992917, 3.6724955, 0.067625681482016]
      },
      {
        "species": [{ "element": "Zn", "occu": 1 }],
        "abc": [0.72312263, 0.27687737, 0.0055216],
        "properties": { "magmom": -0.0 },
        "label": "Zn",
        "xyz": [1.6716887083992917, 3.6724955, 0.067625681482016]
      },
      {
        "species": [{ "element": "Zn", "occu": 1 }],
        "abc": [-0.0, 0.5, 0.16694746],
        "properties": { "magmom": -0.0 },
        "label": "Zn",
        "xyz": [-1.873060465, 1.83624775, 2.0446855538596798]
      },
      {
        "species": [{ "element": "Zn", "occu": 1 }],
        "abc": [0.5, 0.0, 0.83312153],
        "properties": { "magmom": 0.0 },
        "label": "Zn",
        "xyz": [1.873060465, 1.83624775, 10.203638659734468]
      },
      {
        "species": [{ "element": "Zn", "occu": 1 }],
        "abc": [-0.0, 0.5, 0.83312153],
        "properties": { "magmom": 0.0 },
        "label": "Zn",
        "xyz": [-1.873060465, 1.83624775, 10.203638659734468]
      },
      {
        "species": [{ "element": "Zn", "occu": 1 }],
        "abc": [0.5, 0.0, 0.16694746],
        "properties": { "magmom": -0.0 },
        "label": "Zn",
        "xyz": [1.873060465, 1.83624775, 2.0446855538596798]
      },
      {
        "species": [{ "element": "Zn", "occu": 1 }],
        "abc": [-0.0, 0.0, 0.1659014],
        "properties": { "magmom": 0.0 },
        "label": "Zn",
        "xyz": [0.0, 0.0, 2.031873955704964]
      },
      {
        "species": [{ "element": "Zn", "occu": 1 }],
        "abc": [-0.0, 0.0, 0.82942179],
        "properties": { "magmom": -0.0 },
        "label": "Zn",
        "xyz": [0.0, 0.0, 10.158326170817077]
      },
      {
        "species": [{ "element": "Zn", "occu": 1 }],
        "abc": [0.72347386, 0.72347386, 0.666949399999999],
        "properties": { "magmom": 0.0 },
        "label": "Zn",
        "xyz": [0.0, 5.3139089904352605, 8.168448943969432]
      },
      {
        "species": [{ "element": "Zn", "occu": 1 }],
        "abc": [0.27652614000000003, 0.27652614000000003, 0.666949399999999],
        "properties": { "magmom": 0.0 },
        "label": "Zn",
        "xyz": [0.0, 2.03108200956474, 8.168448943969432]
      },
      {
        "species": [{ "element": "Zn", "occu": 1 }],
        "abc": [0.28204034, 0.28204034, 0.33037436000000003],
        "properties": { "magmom": 0.0 },
        "label": "Zn",
        "xyz": [0.0, 2.07158375893694, 4.0462531221357745]
      },
      {
        "species": [{ "element": "Zn", "occu": 1 }],
        "abc": [0.71795966, 0.71795966, 0.33037436000000003],
        "properties": { "magmom": 0.0 },
        "label": "Zn",
        "xyz": [0.0, 5.27340724106306, 4.0462531221357745]
      },
      {
        "species": [{ "element": "Zn", "occu": 1 }],
        "abc": [-0.0, 0.0, 0.50240558],
        "properties": { "magmom": 0.0 },
        "label": "Zn",
        "xyz": [0.0, 0.0, 6.153201921158272]
      },
      {
        "species": [{ "element": "Zn", "occu": 1 }],
        "abc": [-0.0, 0.5, 0.50016175],
        "properties": { "magmom": -0.0 },
        "label": "Zn",
        "xyz": [-1.873060465, 1.83624775, 6.125720659770304]
      },
      {
        "species": [{ "element": "Zn", "occu": 1 }],
        "abc": [0.5, 0.0, 0.50016175],
        "properties": { "magmom": -0.0 },
        "label": "Zn",
        "xyz": [1.873060465, 1.83624775, 6.125720659770304]
      },
      {
        "species": [{ "element": "Zn", "occu": 1 }],
        "abc": [0.5, 0.5, 0.83592364],
        "properties": { "magmom": 0.0 },
        "label": "Zn",
        "xyz": [0.0, 3.6724955, 10.237957443843706]
      },
      {
        "species": [{ "element": "Pd", "occu": 1 }],
        "abc": [0.21329525, 0.7867047500000001, 0.33815672],
        "properties": { "magmom": -0.0 },
        "label": "Pd",
        "xyz": [-2.1480613294108353, 3.6724955, 4.141567414829628]
      },
      {
        "species": [{ "element": "Pd", "occu": 1 }],
        "abc": [0.7867047500000001, 0.21329525, 0.33815672],
        "properties": { "magmom": -0.0 },
        "label": "Pd",
        "xyz": [2.1480613294108353, 3.6724955, 4.141567414829628]
      },
      {
        "species": [{ "element": "Pd", "occu": 1 }],
        "abc": [0.22449381000000002, 0.77550619, 0.66590616],
        "properties": { "magmom": -0.0 },
        "label": "Pd",
        "xyz": [-2.0641590094071134, 3.6724955, 8.155671883706242]
      },
      {
        "species": [{ "element": "Pd", "occu": 1 }],
        "abc": [0.77550619, 0.22449381000000002, 0.66590616],
        "properties": { "magmom": -0.0 },
        "label": "Pd",
        "xyz": [2.0641590094071134, 3.6724955, 8.155671883706242]
      },
      {
        "species": [{ "element": "Pd", "occu": 1 }],
        "abc": [0.5, 0.5, 0.49809394],
        "properties": { "magmom": -0.0 },
        "label": "Pd",
        "xyz": [0.0, 3.6724955, 6.100395199681685]
      },
      {
        "species": [{ "element": "Pd", "occu": 1 }],
        "abc": [0.5, 0.5, 0.16821098],
        "properties": { "magmom": 0.0 },
        "label": "Pd",
        "xyz": [0.0, 3.6724955, 2.060160488854275]
      },
      {
        "species": [{ "element": "Pd", "occu": 1 }],
        "abc": [0.77963423, 0.77963423, 0.99288387],
        "properties": { "magmom": -0.0 },
        "label": "Pd",
        "xyz": [0.0, 5.72640640264193, 12.160324605413537]
      },
      {
        "species": [{ "element": "Pd", "occu": 1 }],
        "abc": [0.22036577000000002, 0.22036577000000002, 0.99288387],
        "properties": { "magmom": -0.0 },
        "label": "Pd",
        "xyz": [0.0, 1.6185845973580701, 12.160324605413537]
      }
    ]
  },
  "task_ids": null,
  "uncorrected_energy_per_atom": null,
  "energy_per_atom": -3.003993249583331,
  "formation_energy_per_atom": -0.437536906249997,
  "energy_above_hull": 0.0,
  "is_stable": true,
  "equilibrium_reaction_energy_per_atom": null,
  "decomposes_to": null,
  "xas": null,
  "grain_boundaries": null,
  "band_gap": 0.0,
  "cbm": null,
  "vbm": null,
  "efermi": 3.86574275,
  "is_gap_direct": null,
  "is_metal": null,
  "es_source_calc_id": null,
  "bandstructure": null,
  "dos": null,
  "dos_energy_up": null,
  "dos_energy_down": null,
  "is_magnetic": null,
  "ordering": null,
  "total_magnetization": 0.0,
  "total_magnetization_normalized_vol": null,
  "total_magnetization_normalized_formula_units": null,
  "num_magnetic_sites": null,
  "num_unique_magnetic_sites": null,
  "types_of_magnetic_species": null,
  "bulk_modulus": null,
  "shear_modulus": null,
  "universal_anisotropy": null,
  "homogeneous_poisson": null,
  "e_total": null,
  "e_ionic": null,
  "e_electronic": null,
  "n": null,
  "e_ij_max": null,
  "weighted_surface_energy_EV_PER_ANG2": null,
  "weighted_surface_energy": null,
  "weighted_work_function": null,
  "surface_anisotropy": null,
  "shape_factor": null,
  "has_reconstructed": null,
  "possible_species": null,
  "has_props": null,
  "theoretical": null,
  "database_IDs": null,
  "fields_not_requested": [
    "builder_meta",
    "nsites",
    "elements",
    "nelements",
    "composition",
    "composition_reduced",
    "chemsys",
    "symmetry",
    "property_name",
    "deprecated",
    "deprecation_reasons",
    "last_updated",
    "origins",
    "warnings",
    "task_ids",
    "uncorrected_energy_per_atom",
    "equilibrium_reaction_energy_per_atom",
    "decomposes_to",
    "xas",
    "grain_boundaries",
    "cbm",
    "vbm",
    "is_gap_direct",
    "is_metal",
    "es_source_calc_id",
    "bandstructure",
    "dos",
    "dos_energy_up",
    "dos_energy_down",
    "is_magnetic",
    "ordering",
    "total_magnetization_normalized_vol",
    "total_magnetization_normalized_formula_units",
    "num_magnetic_sites",
    "num_unique_magnetic_sites",
    "types_of_magnetic_species",
    "bulk_modulus",
    "shear_modulus",
    "universal_anisotropy",
    "homogeneous_poisson",
    "e_total",
    "e_ionic",
    "e_electronic",
    "n",
    "e_ij_max",
    "weighted_surface_energy_EV_PER_ANG2",
    "weighted_surface_energy",
    "weighted_work_function",
    "surface_anisotropy",
    "shape_factor",
    "has_reconstructed",
    "possible_species",
    "has_props",
    "theoretical",
    "database_IDs"
  ]
}
