{"builder_meta": null, "nsites": null, "elements": null, "nelements": null, "composition": null, "composition_reduced": null, "formula_pretty": "Zn3Au", "formula_anonymous": "AB3", "chemsys": null, "volume": 485.7811049615777, "density": 10.75238662668074, "density_atomic": 15.180659530049303, "symmetry": null, "property_name": null, "material_id": "mp-30424", "deprecated": null, "deprecation_reasons": null, "last_updated": null, "origins": null, "warnings": null, "structure": {"@module": "pymatgen.core.structure", "@class": "Structure", "charge": 0, "lattice": {"matrix": [[7.86104362, -0.0, -0.0], [0.0, 7.86104362, -0.0], [-0.0, -0.0, 7.86104362]], "pbc": [true, true, true], "a": 7.86104362, "b": 7.86104362, "c": 7.86104362, "alpha": 90.0, "beta": 90.0, "gamma": 90.0, "volume": 485.7811049615777}, "properties": {}, "sites": [{"species": [{"element": "Zn", "occu": 1}], "abc": [0.5, 0.1989299, 0.33692492], "properties": {"magmom": -0.0}, "label": "Zn", "xyz": [3.93052181, 1.563796621222238, 2.6485814927850106]}, {"species": [{"element": "Zn", "occu": 1}], "abc": [0.5, 0.8010691, 0.6630760800000001], "properties": {"magmom": -0.0}, "label": "Zn", "xyz": [3.93052181, 6.297239137734142, 5.2124699882586105]}, {"species": [{"element": "Zn", "occu": 1}], "abc": [0.1989299, 0.33692492, 0.5], "properties": {"magmom": -0.0}, "label": "Zn", "xyz": [1.563796621222238, 2.6485814927850106, 3.93052181]}, {"species": [{"element": "Zn", "occu": 1}], "abc": [0.8010691, 0.33692492, 0.5], "properties": {"magmom": -0.0}, "label": "Zn", "xyz": [6.297239137734142, 2.6485814927850106, 3.93052181]}, {"species": [{"element": "Zn", "occu": 1}], "abc": [0.33692492, 0.5, 0.1989299], "properties": {"magmom": -0.0}, "label": "Zn", "xyz": [2.6485814927850106, 3.93052181, 1.563796621222238]}, {"species": [{"element": "Zn", "occu": 1}], "abc": [0.6630760800000001, 0.5, 0.1989299], "properties": {"magmom": -0.0}, "label": "Zn", "xyz": [5.2124699882586105, 3.93052181, 1.563796621222238]}, {"species": [{"element": "Zn", "occu": 1}], "abc": [-0.0, 0.83692392, 0.3010701], "properties": {"magmom": -0.0}, "label": "Zn", "xyz": [0.0, 6.579095441741391, 2.366725188777762]}, {"species": [{"element": "Zn", "occu": 1}], "abc": [0.0, 0.16307508, 0.6989309], "properties": {"magmom": -0.0}, "label": "Zn", "xyz": [0.0, 1.2819403172149897, 5.494326292265859]}, {"species": [{"element": "Zn", "occu": 1}], "abc": [0.0, 0.16307508, 0.3010701], "properties": {"magmom": -0.0}, "label": "Zn", "xyz": [0.0, 1.2819403172149897, 2.366725188777762]}, {"species": [{"element": "Zn", "occu": 1}], "abc": [0.5, 0.1989299, 0.6630760800000001], "properties": {"magmom": -0.0}, "label": "Zn", "xyz": [3.93052181, 1.563796621222238, 5.2124699882586105]}, {"species": [{"element": "Zn", "occu": 1}], "abc": [0.5, 0.8010691, 0.33692492], "properties": {"magmom": -0.0}, "label": "Zn", "xyz": [3.93052181, 6.297239137734142, 2.6485814927850106]}, {"species": [{"element": "Zn", "occu": 1}], "abc": [0.8010691, 0.6630760800000001, 0.5], "properties": {"magmom": -0.0}, "label": "Zn", "xyz": [6.297239137734142, 5.2124699882586105, 3.93052181]}, {"species": [{"element": "Zn", "occu": 1}], "abc": [0.1989299, 0.6630760800000001, 0.5], "properties": {"magmom": -0.0}, "label": "Zn", "xyz": [1.563796621222238, 5.2124699882586105, 3.93052181]}, {"species": [{"element": "Zn", "occu": 1}], "abc": [0.33692492, 0.5, 0.8010691], "properties": {"magmom": -0.0}, "label": "Zn", "xyz": [2.6485814927850106, 3.93052181, 6.297239137734142]}, {"species": [{"element": "Zn", "occu": 1}], "abc": [0.6630760800000001, 0.5, 0.8010691], "properties": {"magmom": -0.0}, "label": "Zn", "xyz": [5.2124699882586105, 3.93052181, 6.297239137734142]}, {"species": [{"element": "Zn", "occu": 1}], "abc": [0.3010701, 0.0, 0.16307508], "properties": {"magmom": -0.0}, "label": "Zn", "xyz": [2.366725188777762, 0.0, 1.2819403172149897]}, {"species": [{"element": "Zn", "occu": 1}], "abc": [0.16307508, 0.3010701, 0.0], "properties": {"magmom": -0.0}, "label": "Zn", "xyz": [1.2819403172149897, 2.366725188777762, 0.0]}, {"species": [{"element": "Zn", "occu": 1}], "abc": [0.83692392, 0.6989309, 0.0], "properties": {"magmom": -0.0}, "label": "Zn", "xyz": [6.579095441741391, 5.494326292265859, 0.0]}, {"species": [{"element": "Zn", "occu": 1}], "abc": [0.3010701, 0.0, 0.83692392], "properties": {"magmom": -0.0}, "label": "Zn", "xyz": [2.366725188777762, 0.0, 6.579095441741391]}, {"species": [{"element": "Zn", "occu": 1}], "abc": [0.83692392, 0.3010701, 0.0], "properties": {"magmom": -0.0}, "label": "Zn", "xyz": [6.579095441741391, 2.366725188777762, 0.0]}, {"species": [{"element": "Zn", "occu": 1}], "abc": [0.6989309, 0.0, 0.16307508], "properties": {"magmom": -0.0}, "label": "Zn", "xyz": [5.494326292265859, 0.0, 1.2819403172149897]}, {"species": [{"element": "Zn", "occu": 1}], "abc": [0.6989309, 0.0, 0.83692392], "properties": {"magmom": -0.0}, "label": "Zn", "xyz": [5.494326292265859, 0.0, 6.579095441741391]}, {"species": [{"element": "Zn", "occu": 1}], "abc": [0.16307508, 0.6989309, 0.0], "properties": {"magmom": -0.0}, "label": "Zn", "xyz": [1.2819403172149897, 5.494326292265859, 0.0]}, {"species": [{"element": "Zn", "occu": 1}], "abc": [-0.0, 0.83692392, 0.6989309], "properties": {"magmom": -0.0}, "label": "Zn", "xyz": [0.0, 6.579095441741391, 5.494326292265859]}, {"species": [{"element": "Au", "occu": 1}], "abc": [0.5, 0.25, 0.0], "properties": {"magmom": 0.0}, "label": "Au", "xyz": [3.93052181, 1.965260905, 0.0]}, {"species": [{"element": "Au", "occu": 1}], "abc": [0.5, 0.75, 0.0], "properties": {"magmom": 0.0}, "label": "Au", "xyz": [3.93052181, 5.895782715, 0.0]}, {"species": [{"element": "Au", "occu": 1}], "abc": [-0.0, 0.5, 0.75], "properties": {"magmom": 0.0}, "label": "Au", "xyz": [0.0, 3.93052181, 5.895782715]}, {"species": [{"element": "Au", "occu": 1}], "abc": [-0.0, 0.5, 0.25], "properties": {"magmom": 0.0}, "label": "Au", "xyz": [0.0, 3.93052181, 1.965260905]}, {"species": [{"element": "Au", "occu": 1}], "abc": [0.75, 0.0, 0.5], "properties": {"magmom": 0.0}, "label": "Au", "xyz": [5.895782715, 0.0, 3.93052181]}, {"species": [{"element": "Au", "occu": 1}], "abc": [0.25, 0.0, 0.5], "properties": {"magmom": 0.0}, "label": "Au", "xyz": [1.965260905, 0.0, 3.93052181]}, {"species": [{"element": "Au", "occu": 1}], "abc": [0.5, 0.5, 0.5], "properties": {"magmom": 0.0}, "label": "Au", "xyz": [3.93052181, 3.93052181, 3.93052181]}, {"species": [{"element": "Au", "occu": 1}], "abc": [-0.0, 0.0, 0.0], "properties": {"magmom": 0.0}, "label": "Au", "xyz": [0.0, 0.0, 0.0]}]}, "task_ids": null, "uncorrected_energy_per_atom": null, "energy_per_atom": -19.5060468059375, "formation_energy_per_atom": -0.17685481468750103, "energy_above_hull": 0.0, "is_stable": true, "equilibrium_reaction_energy_per_atom": null, "decomposes_to": null, "xas": null, "grain_boundaries": null, "band_gap": 0.0, "cbm": null, "vbm": null, "efermi": 3.74127502, "is_gap_direct": null, "is_metal": null, "es_source_calc_id": null, "bandstructure": null, "dos": null, "dos_energy_up": null, "dos_energy_down": null, "is_magnetic": null, "ordering": null, "total_magnetization": 1.7e-06, "total_magnetization_normalized_vol": null, "total_magnetization_normalized_formula_units": null, "num_magnetic_sites": null, "num_unique_magnetic_sites": null, "types_of_magnetic_species": null, "bulk_modulus": null, "shear_modulus": null, "universal_anisotropy": null, "homogeneous_poisson": null, "e_total": null, "e_ionic": null, "e_electronic": null, "n": null, "e_ij_max": null, "weighted_surface_energy_EV_PER_ANG2": null, "weighted_surface_energy": null, "weighted_work_function": null, "surface_anisotropy": null, "shape_factor": null, "has_reconstructed": null, "possible_species": null, "has_props": null, "theoretical": null, "database_IDs": null, "fields_not_requested": ["builder_meta", "nsites", "elements", "nelements", "composition", "composition_reduced", "chemsys", "symmetry", "property_name", "deprecated", "deprecation_reasons", "last_updated", "origins", "warnings", "task_ids", "uncorrected_energy_per_atom", "equilibrium_reaction_energy_per_atom", "decomposes_to", "xas", "grain_boundaries", "cbm", "vbm", "is_gap_direct", "is_metal", "es_source_calc_id", "bandstructure", "dos", "dos_energy_up", "dos_energy_down", "is_magnetic", "ordering", "total_magnetization_normalized_vol", "total_magnetization_normalized_formula_units", "num_magnetic_sites", "num_unique_magnetic_sites", "types_of_magnetic_species", "bulk_modulus", "shear_modulus", "universal_anisotropy", "homogeneous_poisson", "e_total", "e_ionic", "e_electronic", "n", "e_ij_max", "weighted_surface_energy_EV_PER_ANG2", "weighted_surface_energy", "weighted_work_function", "surface_anisotropy", "shape_factor", "has_reconstructed", "possible_species", "has_props", "theoretical", "database_IDs"]}