{
  "builder_meta": null,
  "nsites": null,
  "elements": null,
  "nelements": null,
  "composition": null,
  "composition_reduced": null,
  "formula_pretty": "Zn3Au5",
  "formula_anonymous": "A3B5",
  "chemsys": null,
  "volume": 1006.9477009612799,
  "density": 15.581313792108885,
  "density_atomic": 15.733557827519999,
  "symmetry": null,
  "property_name": null,
  "material_id": "mp-1207512",
  "deprecated": null,
  "deprecation_reasons": null,
  "last_updated": null,
  "origins": null,
  "warnings": null,
  "structure": {
    "@module": "pymatgen.core.structure",
    "@class": "Structure",
    "charge": 0,
    "lattice": {
      "matrix": [
        [5.44397599, 0.0, -0.0],
        [0.0, 10.93361827, 1e-8],
        [-2.72198751, -5.46680961, 16.91713466]
      ],
      "pbc": [true, true, true],
      "a": 5.44397599,
      "b": 10.93361827,
      "c": 17.985679537375216,
      "alpha": 107.69521286674816,
      "beta": 98.70470155212163,
      "gamma": 90.0,
      "volume": 1006.9477009612798
    },
    "properties": {},
    "sites": [
      {
        "species": [{ "element": "Zn", "occu": 1 }],
        "abc": [0.39557852, 0.33464379, 0.37568449],
        "properties": { "magmom": 0.0 },
        "label": "Zn",
        "xyz": [1.130911475559015, 1.6050718760260945, 6.355505110349861]
      },
      {
        "species": [{ "element": "Zn", "occu": 1 }],
        "abc": [0.6044214800000001, 0.66535621, 0.62431551],
        "properties": { "magmom": 0.0 },
        "label": "Zn",
        "xyz": [1.5910770044409857, 3.8617367839739054, 10.561629559650136]
      },
      {
        "species": [{ "element": "Zn", "occu": 1 }],
        "abc": [0.9801049700000001, 0.0410407, 0.37568449],
        "properties": { "magmom": 0.0 },
        "label": "Zn",
        "xyz": [4.313059434878951, -1.60507223292636, 6.35550510741383]
      },
      {
        "species": [{ "element": "Zn", "occu": 1 }],
        "abc": [0.10442148, 0.458959299999999, 0.62431551],
        "properties": { "magmom": 0.0 },
        "label": "Zn",
        "xyz": [-1.130910990559015, 1.6050717579263494, 10.561629557586167]
      },
      {
        "species": [{ "element": "Zn", "occu": 1 }],
        "abc": [0.01989503, 0.9589593, 0.62431551],
        "properties": { "magmom": 0.0 },
        "label": "Zn",
        "xyz": [-1.5910709548789503, 7.071880892926361, 10.561629562586168]
      },
      {
        "species": [{ "element": "Zn", "occu": 1 }],
        "abc": [0.89557852, 0.541040699999999, 0.37568449],
        "properties": { "magmom": 0.0 },
        "label": "Zn",
        "xyz": [3.8528994705590156, 3.861736902073629, 6.35550511241383]
      },
      {
        "species": [{ "element": "Zn", "occu": 1 }],
        "abc": [0.51989503, 0.16535621, 0.62431551],
        "properties": { "magmom": 0.0 },
        "label": "Zn",
        "xyz": [1.1309170401210498, -1.6050723510260945, 10.561629554650137]
      },
      {
        "species": [{ "element": "Zn", "occu": 1 }],
        "abc": [0.48010497, 0.83464379, 0.37568449],
        "properties": { "magmom": 0.0 },
        "label": "Zn",
        "xyz": [1.5910714398789505, 7.071881011026093, 6.355505115349861]
      },
      {
        "species": [{ "element": "Zn", "occu": 1 }],
        "abc": [0.35555684, 0.42042513000000004, 0.1273598],
        "properties": { "magmom": -0.0 },
        "label": "Zn",
        "xyz": [1.5889711151641737, 3.9005161039674476, 2.154562891074919]
      },
      {
        "species": [{ "element": "Zn", "occu": 1 }],
        "abc": [0.64444316, 0.57957487, 0.8726402],
        "properties": { "magmom": -0.0 },
        "label": "Zn",
        "xyz": [1.1330173648358266, 1.5662925560325522, 14.762571778925079]
      },
      {
        "species": [{ "element": "Zn", "occu": 1 }],
        "abc": [0.77180296, 0.70693467, 0.1273598],
        "properties": { "magmom": -0.0 },
        "label": "Zn",
        "xyz": [3.8550049983748327, 7.033102045040743, 2.1545628939400148]
      },
      {
        "species": [{ "element": "Zn", "occu": 1 }],
        "abc": [0.14444316000000001, 0.79306533, 0.8726402],
        "properties": { "magmom": -0.0 },
        "label": "Zn",
        "xyz": [-1.5889706301641735, 3.9005157499592578, 14.762571781059984]
      },
      {
        "species": [{ "element": "Zn", "occu": 1 }],
        "abc": [0.22819704000000002, 0.29306533, 0.8726402],
        "properties": { "magmom": -0.0 },
        "label": "Zn",
        "xyz": [-1.1330165183748322, -1.5662933850407428, 14.762571776059984]
      },
      {
        "species": [{ "element": "Zn", "occu": 1 }],
        "abc": [0.85555684, 0.20693467000000001, 0.1273598],
        "properties": { "magmom": -0.0 },
        "label": "Zn",
        "xyz": [4.310959110164173, 1.566292910040743, 2.154562888940015]
      },
      {
        "species": [{ "element": "Zn", "occu": 1 }],
        "abc": [0.72819704, 0.07957487, 0.8726402],
        "properties": { "magmom": -0.0 },
        "label": "Zn",
        "xyz": [1.5889714766251677, -3.9005165789674474, 14.76257177392508]
      },
      {
        "species": [{ "element": "Zn", "occu": 1 }],
        "abc": [0.27180296, 0.92042513, 0.1273598],
        "properties": { "magmom": -0.0 },
        "label": "Zn",
        "xyz": [1.1330170033748326, 9.367325238967448, 2.154562896074919]
      },
      {
        "species": [{ "element": "Zn", "occu": 1 }],
        "abc": [0.12397394, 0.6239739400000001, 0.24794688],
        "properties": { "magmom": -0.0 },
        "label": "Zn",
        "xyz": [2.842242231904102e-6, 5.4668144840343675, 4.1945507637266]
      },
      {
        "species": [{ "element": "Zn", "occu": 1 }],
        "abc": [0.87602606, 0.37602606, 0.75205312],
        "properties": { "magmom": -0.0 },
        "label": "Zn",
        "xyz": [2.7219856377577685, -5.824034366774811e-6, 12.7225839062734]
      },
      {
        "species": [{ "element": "Zn", "occu": 1 }],
        "abc": [0.37602606, 0.87602606, 0.75205312],
        "properties": { "magmom": -0.0 },
        "label": "Zn",
        "xyz": [-2.3572422320761177e-6, 5.466803310965633, 12.722583911273398]
      },
      {
        "species": [{ "element": "Zn", "occu": 1 }],
        "abc": [0.6239739400000001, 0.12397394, 0.24794688],
        "properties": { "magmom": -0.0 },
        "label": "Zn",
        "xyz": [2.721990837242232, 5.349034366997074e-6, 4.194550758726599]
      },
      {
        "species": [{ "element": "Zn", "occu": 1 }],
        "abc": [0.5, -0.0, -0.0],
        "properties": { "magmom": -0.0 },
        "label": "Zn",
        "xyz": [2.721987995, 0.0, 0.0]
      },
      {
        "species": [{ "element": "Zn", "occu": 1 }],
        "abc": [-0.0, 0.5, -0.0],
        "properties": { "magmom": -0.0 },
        "label": "Zn",
        "xyz": [0.0, 5.466809135, 5e-9]
      },
      {
        "species": [{ "element": "Zn", "occu": 1 }],
        "abc": [0.75, 0.25, 0.5],
        "properties": { "magmom": 0.0 },
        "label": "Zn",
        "xyz": [2.7219882375000006, -2.3750000011091288e-7, 8.4585673325]
      },
      {
        "species": [{ "element": "Zn", "occu": 1 }],
        "abc": [0.25, 0.75, 0.5],
        "properties": { "magmom": 0.0 },
        "label": "Zn",
        "xyz": [2.425000000805255e-7, 5.466808897500001, 8.4585673375]
      },
      {
        "species": [{ "element": "Au", "occu": 1 }],
        "abc": [0.12577876, 0.382716699999999, 0.25007433],
        "properties": { "magmom": -0.0 },
        "label": "Au",
        "xyz": [0.0040373466603540464, 2.817369552895787, 4.230541119446444]
      },
      {
        "species": [{ "element": "Au", "occu": 1 }],
        "abc": [0.87422124, 0.6172833, 0.74992567],
        "properties": { "magmom": -0.0 },
        "label": "Au",
        "xyz": [2.7179511333396467, 2.649439107104202, 12.686593550553553]
      },
      {
        "species": [{ "element": "Au", "occu": 1 }],
        "abc": [0.12429557000000001, 0.86735763, 0.25007433],
        "properties": { "magmom": -0.0 },
        "label": "Au",
        "xyz": [-0.004037104088253973, 8.116248479533589, 4.230541124292854]
      },
      {
        "species": [{ "element": "Au", "occu": 1 }],
        "abc": [0.37422124, 0.63264237, 0.74992567],
        "properties": { "magmom": -0.0 },
        "label": "Au",
        "xyz": [-0.004036861660353885, 2.8173693154664115, 12.686593550707144]
      },
      {
        "species": [{ "element": "Au", "occu": 1 }],
        "abc": [0.87570443, 0.13264237, 0.74992567],
        "properties": { "magmom": -0.0 },
        "label": "Au",
        "xyz": [2.7260255840882546, -2.6494398195335886, 12.686593545707144]
      },
      {
        "species": [{ "element": "Au", "occu": 1 }],
        "abc": [0.62577876, 0.36735763, 0.25007433],
        "properties": { "magmom": -0.0 },
        "label": "Au",
        "xyz": [2.726025341660354, 2.6494393445335884, 4.2305411192928535]
      },
      {
        "species": [{ "element": "Au", "occu": 1 }],
        "abc": [0.37570443000000003, 0.1172833, 0.74992567],
        "properties": { "magmom": -0.0 },
        "label": "Au",
        "xyz": [0.004037589088254467, -2.817370027895798, 12.686593545553553]
      },
      {
        "species": [{ "element": "Au", "occu": 1 }],
        "abc": [0.62429557, 0.882716699999999, 0.25007433],
        "properties": { "magmom": -0.0 },
        "label": "Au",
        "xyz": [2.7179508909117462, 8.284178687895785, 4.230541124446445]
      },
      {
        "species": [{ "element": "Au", "occu": 1 }],
        "abc": [0.35320099, 0.16308569, 0.12210043],
        "properties": { "magmom": 0.0 },
        "label": "Au",
        "xyz": [1.590461863778601, 1.115616875650424, 2.0655894179847603]
      },
      {
        "species": [{ "element": "Au", "occu": 1 }],
        "abc": [0.6467990100000001, 0.83691431, 0.8778995700000001],
        "properties": { "magmom": 0.0 },
        "label": "Au",
        "xyz": [1.1315266162213997, 4.351191784349576, 14.85154525201524]
      },
      {
        "species": [{ "element": "Au", "occu": 1 }],
        "abc": [0.76889944, 0.95901474, 0.12210043],
        "properties": { "magmom": 0.0 },
        "label": "Au",
        "xyz": [3.853514244658817, 9.818001278354167, 2.065589425944051]
      },
      {
        "species": [{ "element": "Au", "occu": 1 }],
        "abc": [0.14679901, 0.54098526, 0.8778995700000001],
        "properties": { "magmom": 0.0 },
        "label": "Au",
        "xyz": [-1.5904613787786008, 1.115616516645832, 14.851545249055949]
      },
      {
        "species": [{ "element": "Au", "occu": 1 }],
        "abc": [0.23110056, 0.04098526, 0.8778995700000001],
        "properties": { "magmom": 0.0 },
        "label": "Au",
        "xyz": [-1.1315257646588162, -4.351192618354169, 14.85154524405595]
      },
      {
        "species": [{ "element": "Au", "occu": 1 }],
        "abc": [0.85320099, 0.45901474000000003, 0.12210043],
        "properties": { "magmom": 0.0 },
        "label": "Au",
        "xyz": [4.312449858778601, 4.351192143354168, 2.065589420944051]
      },
      {
        "species": [{ "element": "Au", "occu": 1 }],
        "abc": [0.73110056, 0.33691431, 0.8778995700000001],
        "properties": { "magmom": 0.0 },
        "label": "Au",
        "xyz": [1.590462230341184, -1.115617350650425, 14.85154524701524]
      },
      {
        "species": [{ "element": "Au", "occu": 1 }],
        "abc": [0.26889944, 0.6630856900000001, 0.12210043],
        "properties": { "magmom": 0.0 },
        "label": "Au",
        "xyz": [1.1315262496588163, 6.582426010650424, 2.0655894229847602]
      },
      {
        "species": [{ "element": "Au", "occu": 1 }],
        "abc": [0.60573638, 0.40988741, 0.62610396],
        "properties": { "magmom": -0.0 },
        "label": "Au",
        "xyz": [1.5933671499079765, 1.0587613292319253, 10.591885006578128]
      },
      {
        "species": [{ "element": "Au", "occu": 1 }],
        "abc": [0.39426362, 0.59011259, 0.37389604],
        "properties": { "magmom": -0.0 },
        "label": "Au",
        "xyz": [1.1286213300920234, 4.408047330768076, 6.325249663421872]
      },
      {
        "species": [{ "element": "Au", "occu": 1 }],
        "abc": [0.02036757, 0.21621555, 0.62610396],
        "properties": { "magmom": -0.0 },
        "label": "Au",
        "xyz": [-1.5933665970268953, -1.0587728576489575, 10.591885004641409]
      },
      {
        "species": [{ "element": "Au", "occu": 1 }],
        "abc": [0.89426362, 0.28378445, 0.37389604],
        "properties": { "magmom": -0.0 },
        "label": "Au",
        "xyz": [3.850609325092024, 1.0587723826489572, 6.32524966035859]
      },
      {
        "species": [{ "element": "Au", "occu": 1 }],
        "abc": [0.97963243, 0.78378445, 0.37389604],
        "properties": { "magmom": -0.0 },
        "label": "Au",
        "xyz": [4.315355077026895, 6.5255815176489556, 6.32524966535859]
      },
      {
        "species": [{ "element": "Au", "occu": 1 }],
        "abc": [0.10573638, 0.71621555, 0.62610396],
        "properties": { "magmom": -0.0 },
        "label": "Au",
        "xyz": [-1.1286208450920232, 4.408036277351043, 10.591885009641409]
      },
      {
        "species": [{ "element": "Au", "occu": 1 }],
        "abc": [0.47963243, 0.09011259, 0.37389604],
        "properties": { "magmom": -0.0 },
        "label": "Au",
        "xyz": [1.5933670820268953, -1.0587618042319251, 6.325249658421872]
      },
      {
        "species": [{ "element": "Au", "occu": 1 }],
        "abc": [0.52036757, 0.9098874100000001, 0.62610396],
        "properties": { "magmom": -0.0 },
        "label": "Au",
        "xyz": [1.128621397973105, 6.525570464231926, 10.591885011578128]
      },
      {
        "species": [{ "element": "Au", "occu": 1 }],
        "abc": [0.036728250000000004, 0.2587134, 0.0],
        "properties": { "magmom": -0.0 },
        "label": "Au",
        "xyz": [0.19994771115471752, 2.828673556933818, 2.587134e-9]
      },
      {
        "species": [{ "element": "Au", "occu": 1 }],
        "abc": [0.96327175, 0.7412866, -0.0],
        "properties": { "magmom": -0.0 },
        "label": "Au",
        "xyz": [5.244028278845283, 8.104944713066182, 7.412866e-9]
      },
      {
        "species": [{ "element": "Au", "occu": 1 }],
        "abc": [0.46327175, 0.7587134, -0.0],
        "properties": { "magmom": -0.0 },
        "label": "Au",
        "xyz": [2.5220402838452824, 8.295482691933818, 7.587134e-9]
      },
      {
        "species": [{ "element": "Au", "occu": 1 }],
        "abc": [0.53672825, 0.2412866, 0.0],
        "properties": { "magmom": -0.0 },
        "label": "Au",
        "xyz": [2.9219357061547178, 2.638135578066182, 2.412866e-9]
      },
      {
        "species": [{ "element": "Au", "occu": 1 }],
        "abc": [0.12432743, 0.12432743, 0.24865687],
        "properties": { "magmom": 0.0 },
        "label": "Au",
        "xyz": [
          -5.350597288011905e-6, -1.1106398374760573e-5, 4.206561755167388
        ]
      },
      {
        "species": [{ "element": "Au", "occu": 1 }],
        "abc": [0.87567257, 0.87567257, 0.75134313],
        "properties": { "magmom": 0.0 },
        "label": "Au",
        "xyz": [2.721993830597288, 5.466819766398374, 12.710572914832609]
      },
      {
        "species": [{ "element": "Au", "occu": 1 }],
        "abc": [0.37567257, 0.37567257, 0.75134313],
        "properties": { "magmom": 0.0 },
        "label": "Au",
        "xyz": [5.835597288061933e-6, 1.0631398374982837e-5, 12.71057290983261]
      },
      {
        "species": [{ "element": "Au", "occu": 1 }],
        "abc": [0.62432743, 0.62432743, 0.24865687],
        "properties": { "magmom": 0.0 },
        "label": "Au",
        "xyz": [2.721982644402712, 5.466798028601625, 4.206561760167388]
      },
      {
        "species": [{ "element": "Au", "occu": 1 }],
        "abc": [0.25, 0.50817899, 0.5],
        "properties": { "magmom": -0.0 },
        "label": "Au",
        "xyz": [2.425000000805255e-7, 2.822830284494147, 8.458567335081788]
      },
      {
        "species": [{ "element": "Au", "occu": 1 }],
        "abc": [0.75, 0.49182101, 0.5],
        "properties": { "magmom": -0.0 },
        "label": "Au",
        "xyz": [2.7219882375000006, 2.643978375505853, 8.45856733491821]
      },
      {
        "species": [{ "element": "Au", "occu": 1 }],
        "abc": [0.25, 0.99182101, 0.5],
        "properties": { "magmom": -0.0 },
        "label": "Au",
        "xyz": [2.425000000805255e-7, 8.110787510505851, 8.45856733991821]
      },
      {
        "species": [{ "element": "Au", "occu": 1 }],
        "abc": [0.75, 0.00817899, 0.5],
        "properties": { "magmom": -0.0 },
        "label": "Au",
        "xyz": [2.7219882375000006, -2.643978850505853, 8.45856733008179]
      },
      {
        "species": [{ "element": "Au", "occu": 1 }],
        "abc": [-0.0, -0.0, -0.0],
        "properties": { "magmom": 0.0 },
        "label": "Au",
        "xyz": [0.0, 0.0, 0.0]
      },
      {
        "species": [{ "element": "Au", "occu": 1 }],
        "abc": [0.5, 0.5, -0.0],
        "properties": { "magmom": 0.0 },
        "label": "Au",
        "xyz": [2.721987995, 5.466809135, 5e-9]
      },
      {
        "species": [{ "element": "Au", "occu": 1 }],
        "abc": [0.25, 0.25, 0.5],
        "properties": { "magmom": 0.0 },
        "label": "Au",
        "xyz": [2.425000000805255e-7, -2.3750000011091288e-7, 8.4585673325]
      },
      {
        "species": [{ "element": "Au", "occu": 1 }],
        "abc": [0.75, 0.75, 0.5],
        "properties": { "magmom": 0.0 },
        "label": "Au",
        "xyz": [2.7219882375000006, 5.466808897500001, 8.4585673375]
      }
    ]
  },
  "task_ids": null,
  "uncorrected_energy_per_atom": null,
  "energy_per_atom": -35.141499443593744,
  "formation_energy_per_atom": -0.184423372968744,
  "energy_above_hull": 0.005518110781252,
  "is_stable": false,
  "equilibrium_reaction_energy_per_atom": null,
  "decomposes_to": null,
  "xas": null,
  "grain_boundaries": null,
  "band_gap": 0.0,
  "cbm": null,
  "vbm": null,
  "efermi": 4.65125709,
  "is_gap_direct": null,
  "is_metal": null,
  "es_source_calc_id": null,
  "bandstructure": null,
  "dos": null,
  "dos_energy_up": null,
  "dos_energy_down": null,
  "is_magnetic": null,
  "ordering": null,
  "total_magnetization": 2e-7,
  "total_magnetization_normalized_vol": null,
  "total_magnetization_normalized_formula_units": null,
  "num_magnetic_sites": null,
  "num_unique_magnetic_sites": null,
  "types_of_magnetic_species": null,
  "bulk_modulus": null,
  "shear_modulus": null,
  "universal_anisotropy": null,
  "homogeneous_poisson": null,
  "e_total": null,
  "e_ionic": null,
  "e_electronic": null,
  "n": null,
  "e_ij_max": null,
  "weighted_surface_energy_EV_PER_ANG2": null,
  "weighted_surface_energy": null,
  "weighted_work_function": null,
  "surface_anisotropy": null,
  "shape_factor": null,
  "has_reconstructed": null,
  "possible_species": null,
  "has_props": null,
  "theoretical": null,
  "database_IDs": null,
  "fields_not_requested": [
    "builder_meta",
    "nsites",
    "elements",
    "nelements",
    "composition",
    "composition_reduced",
    "chemsys",
    "symmetry",
    "property_name",
    "deprecated",
    "deprecation_reasons",
    "last_updated",
    "origins",
    "warnings",
    "task_ids",
    "uncorrected_energy_per_atom",
    "equilibrium_reaction_energy_per_atom",
    "decomposes_to",
    "xas",
    "grain_boundaries",
    "cbm",
    "vbm",
    "is_gap_direct",
    "is_metal",
    "es_source_calc_id",
    "bandstructure",
    "dos",
    "dos_energy_up",
    "dos_energy_down",
    "is_magnetic",
    "ordering",
    "total_magnetization_normalized_vol",
    "total_magnetization_normalized_formula_units",
    "num_magnetic_sites",
    "num_unique_magnetic_sites",
    "types_of_magnetic_species",
    "bulk_modulus",
    "shear_modulus",
    "universal_anisotropy",
    "homogeneous_poisson",
    "e_total",
    "e_ionic",
    "e_electronic",
    "n",
    "e_ij_max",
    "weighted_surface_energy_EV_PER_ANG2",
    "weighted_surface_energy",
    "weighted_work_function",
    "surface_anisotropy",
    "shape_factor",
    "has_reconstructed",
    "possible_species",
    "has_props",
    "theoretical",
    "database_IDs"
  ]
}
