{"builder_meta": null, "nsites": null, "elements": null, "nelements": null, "composition": null, "composition_reduced": null, "formula_pretty": "Zn3Cu", "formula_anonymous": "AB3", "chemsys": null, "volume": 105.63411453293237, "density": 8.167119435897776, "density_atomic": 13.204264316616547, "symmetry": null, "property_name": null, "material_id": "mp-972042", "deprecated": null, "deprecation_reasons": null, "last_updated": null, "origins": null, "warnings": null, "structure": {"@module": "pymatgen.core.structure", "@class": "Structure", "charge": 0, "lattice": {"matrix": [[5.37678012, 0.0, 0.0], [-2.68839006, 4.6565975900000005, 2.9e-07], [0.0, 1.5e-07, 4.2190358]], "pbc": [true, true, true], "a": 5.37678012, "b": 5.376926838808643, "c": 4.219035800000003, "alpha": 89.99999514565162, "beta": 90.0, "gamma": 119.99909736598694, "volume": 105.63411453293239}, "properties": {}, "sites": [{"species": [{"element": "Zn", "occu": 1}], "abc": [0.16973091, 0.33945947, 0.24999962], "properties": {"magmom": 0.0}, "label": "Zn", "xyz": [6.317716641168758e-06, 1.5807261874046203, 1.0547574452096424]}, {"species": [{"element": "Zn", "occu": 1}], "abc": [0.66054011, 0.83026849, 0.2499996], "properties": {"magmom": 0.0}, "label": "Zn", "xyz": [1.3194933762634036, 3.8662262870868798, 1.054757503163542]}, {"species": [{"element": "Zn", "occu": 1}], "abc": [0.16973044, 0.83026891, 0.24999962], "properties": {"magmom": 0.0}, "label": "Zn", "xyz": [-1.319483429220182, 3.8662282428578707, 1.0547575875443802]}, {"species": [{"element": "Zn", "occu": 1}], "abc": [0.83027144, 0.66053953, 0.74999938], "properties": {"magmom": 0.0}, "label": "Zn", "xyz": [2.688399066106701, 3.07586689599764, 3.1642744257542677]}, {"species": [{"element": "Zn", "occu": 1}], "abc": [0.33946153, 0.16973009, 0.74999938], "properties": {"magmom": 0.0}, "label": "Zn", "xyz": [1.3689093191698782, 0.7903648405443902, 3.1642742834195303]}, {"species": [{"element": "Zn", "occu": 1}], "abc": [0.83027061, 0.16973051, 0.7499994], "properties": {"magmom": 0.0}, "label": "Zn", "xyz": [4.007880694105543, 0.7903667963153811, 3.164274367800368]}, {"species": [{"element": "Cu", "occu": 1}], "abc": [0.33333063, 0.6666673, 0.74999932], "properties": {"magmom": 0.0}, "label": "Cu", "xyz": [-1.6237875962277215e-05, 3.104401455011705, 3.1642741743891736]}, {"species": [{"element": "Cu", "occu": 1}], "abc": [0.66666333, 0.3333317, 0.24999968], "properties": {"magmom": 0.0}, "label": "Cu", "xyz": [2.6883765105140975, 1.5521916283905552, 1.0547576965747372]}]}, "task_ids": null, "uncorrected_energy_per_atom": null, "energy_per_atom": -2.050489137499999, "formation_energy_per_atom": -0.08087976249999901, "energy_above_hull": 0.0, "is_stable": true, "equilibrium_reaction_energy_per_atom": null, "decomposes_to": null, "xas": null, "grain_boundaries": null, "band_gap": 0.0, "cbm": null, "vbm": null, "efermi": 4.48892626, "is_gap_direct": null, "is_metal": null, "es_source_calc_id": null, "bandstructure": null, "dos": null, "dos_energy_up": null, "dos_energy_down": null, "is_magnetic": null, "ordering": null, "total_magnetization": 0.0, "total_magnetization_normalized_vol": null, "total_magnetization_normalized_formula_units": null, "num_magnetic_sites": null, "num_unique_magnetic_sites": null, "types_of_magnetic_species": null, "bulk_modulus": null, "shear_modulus": null, "universal_anisotropy": null, "homogeneous_poisson": null, "e_total": null, "e_ionic": null, "e_electronic": null, "n": null, "e_ij_max": null, "weighted_surface_energy_EV_PER_ANG2": null, "weighted_surface_energy": null, "weighted_work_function": null, "surface_anisotropy": null, "shape_factor": null, "has_reconstructed": null, "possible_species": null, "has_props": null, "theoretical": null, "database_IDs": null, "fields_not_requested": ["builder_meta", "nsites", "elements", "nelements", "composition", "composition_reduced", "chemsys", "symmetry", "property_name", "deprecated", "deprecation_reasons", "last_updated", "origins", "warnings", "task_ids", "uncorrected_energy_per_atom", "equilibrium_reaction_energy_per_atom", "decomposes_to", "xas", "grain_boundaries", "cbm", "vbm", "is_gap_direct", "is_metal", "es_source_calc_id", "bandstructure", "dos", "dos_energy_up", "dos_energy_down", "is_magnetic", "ordering", "total_magnetization_normalized_vol", "total_magnetization_normalized_formula_units", "num_magnetic_sites", "num_unique_magnetic_sites", "types_of_magnetic_species", "bulk_modulus", "shear_modulus", "universal_anisotropy", "homogeneous_poisson", "e_total", "e_ionic", "e_electronic", "n", "e_ij_max", "weighted_surface_energy_EV_PER_ANG2", "weighted_surface_energy", "weighted_work_function", "surface_anisotropy", "shape_factor", "has_reconstructed", "possible_species", "has_props", "theoretical", "database_IDs"]}