{
  "builder_meta": null,
  "nsites": null,
  "elements": null,
  "nelements": null,
  "composition": null,
  "composition_reduced": null,
  "formula_pretty": "Zn3In",
  "formula_anonymous": "AB3",
  "chemsys": null,
  "volume": 151.48912239362238,
  "density": 6.819002787916888,
  "density_atomic": 18.936140299202798,
  "symmetry": null,
  "property_name": null,
  "material_id": "mp-1188074",
  "deprecated": null,
  "deprecation_reasons": null,
  "last_updated": null,
  "origins": null,
  "warnings": null,
  "structure": {
    "@module": "pymatgen.core.structure",
    "@class": "Structure",
    "charge": 0,
    "lattice": {
      "matrix": [
        [2.566019, -6.513539, 0.0],
        [2.566019, 6.513539, 0.0],
        [0.0, 0.0, 4.53184]
      ],
      "pbc": [true, true, true],
      "a": 7.00076023106648,
      "b": 7.00076023106648,
      "c": 4.53184,
      "alpha": 90.0,
      "beta": 90.0,
      "gamma": 136.99592223471552,
      "volume": 151.48912239362238
    },
    "properties": {},
    "sites": [
      {
        "species": [{ "element": "Zn", "occu": 1 }],
        "abc": [0.884601, 0.115399, 0.75],
        "properties": { "magmom": 0.0 },
        "label": "Zn",
        "xyz": [2.566019, -5.010227225877999, 3.39888]
      },
      {
        "species": [{ "element": "Zn", "occu": 1 }],
        "abc": [0.328920999999999, 0.184522, 0.75],
        "properties": { "magmom": -0.0 },
        "label": "Zn",
        "xyz": [1.3175044934169973, -0.9405485180609938, 3.39888]
      },
      {
        "species": [{ "element": "Zn", "occu": 1 }],
        "abc": [0.815477999999999, 0.671079, 0.75],
        "properties": { "magmom": -0.0 },
        "label": "Zn",
        "xyz": [3.814533506582997, -0.9405485180609938, 3.39888]
      },
      {
        "species": [{ "element": "Zn", "occu": 1 }],
        "abc": [0.115399, 0.884601, 0.25],
        "properties": { "magmom": 0.0 },
        "label": "Zn",
        "xyz": [2.566019, 5.010227225877999, 1.13296]
      },
      {
        "species": [{ "element": "Zn", "occu": 1 }],
        "abc": [0.671079, 0.815477999999999, 0.25],
        "properties": { "magmom": -0.0 },
        "label": "Zn",
        "xyz": [3.814533506582997, 0.9405485180609938, 1.13296]
      },
      {
        "species": [{ "element": "Zn", "occu": 1 }],
        "abc": [0.184522, 0.328920999999999, 0.25],
        "properties": { "magmom": -0.0 },
        "label": "Zn",
        "xyz": [1.3175044934169973, 0.9405485180609938, 1.13296]
      },
      {
        "species": [{ "element": "In", "occu": 1 }],
        "abc": [0.705324, 0.294676, 0.25],
        "properties": { "magmom": -0.0 },
        "label": "In",
        "xyz": [2.566019, -2.674771763272, 1.13296]
      },
      {
        "species": [{ "element": "In", "occu": 1 }],
        "abc": [0.294676, 0.705324, 0.75],
        "properties": { "magmom": -0.0 },
        "label": "In",
        "xyz": [2.566019, 2.674771763272, 3.39888]
      }
    ]
  },
  "task_ids": null,
  "uncorrected_energy_per_atom": null,
  "energy_per_atom": -12.26114860125,
  "formation_energy_per_atom": 0.06645094749999901,
  "energy_above_hull": 0.06645094749999901,
  "is_stable": false,
  "equilibrium_reaction_energy_per_atom": null,
  "decomposes_to": null,
  "xas": null,
  "grain_boundaries": null,
  "band_gap": 0.0,
  "cbm": null,
  "vbm": null,
  "efermi": 4.20035232,
  "is_gap_direct": null,
  "is_metal": null,
  "es_source_calc_id": null,
  "bandstructure": null,
  "dos": null,
  "dos_energy_up": null,
  "dos_energy_down": null,
  "is_magnetic": null,
  "ordering": null,
  "total_magnetization": 0.0007815,
  "total_magnetization_normalized_vol": null,
  "total_magnetization_normalized_formula_units": null,
  "num_magnetic_sites": null,
  "num_unique_magnetic_sites": null,
  "types_of_magnetic_species": null,
  "bulk_modulus": null,
  "shear_modulus": null,
  "universal_anisotropy": null,
  "homogeneous_poisson": null,
  "e_total": null,
  "e_ionic": null,
  "e_electronic": null,
  "n": null,
  "e_ij_max": null,
  "weighted_surface_energy_EV_PER_ANG2": null,
  "weighted_surface_energy": null,
  "weighted_work_function": null,
  "surface_anisotropy": null,
  "shape_factor": null,
  "has_reconstructed": null,
  "possible_species": null,
  "has_props": null,
  "theoretical": null,
  "database_IDs": null,
  "fields_not_requested": [
    "builder_meta",
    "nsites",
    "elements",
    "nelements",
    "composition",
    "composition_reduced",
    "chemsys",
    "symmetry",
    "property_name",
    "deprecated",
    "deprecation_reasons",
    "last_updated",
    "origins",
    "warnings",
    "task_ids",
    "uncorrected_energy_per_atom",
    "equilibrium_reaction_energy_per_atom",
    "decomposes_to",
    "xas",
    "grain_boundaries",
    "cbm",
    "vbm",
    "is_gap_direct",
    "is_metal",
    "es_source_calc_id",
    "bandstructure",
    "dos",
    "dos_energy_up",
    "dos_energy_down",
    "is_magnetic",
    "ordering",
    "total_magnetization_normalized_vol",
    "total_magnetization_normalized_formula_units",
    "num_magnetic_sites",
    "num_unique_magnetic_sites",
    "types_of_magnetic_species",
    "bulk_modulus",
    "shear_modulus",
    "universal_anisotropy",
    "homogeneous_poisson",
    "e_total",
    "e_ionic",
    "e_electronic",
    "n",
    "e_ij_max",
    "weighted_surface_energy_EV_PER_ANG2",
    "weighted_surface_energy",
    "weighted_work_function",
    "surface_anisotropy",
    "shape_factor",
    "has_reconstructed",
    "possible_species",
    "has_props",
    "theoretical",
    "database_IDs"
  ]
}
