{
  "builder_meta": null,
  "nsites": null,
  "elements": null,
  "nelements": null,
  "composition": null,
  "composition_reduced": null,
  "formula_pretty": "Zn3N2",
  "formula_anonymous": "A2B3",
  "chemsys": null,
  "volume": 460.7836200365537,
  "density": 6.464812173322854,
  "density_atomic": 11.519590500913843,
  "symmetry": null,
  "property_name": null,
  "material_id": "mp-9460",
  "deprecated": null,
  "deprecation_reasons": null,
  "last_updated": null,
  "origins": null,
  "warnings": null,
  "structure": {
    "@module": "pymatgen.core.structure",
    "@class": "Structure",
    "charge": 0,
    "lattice": {
      "matrix": [
        [7.94566198, 0.0, -2.80921562],
        [-3.97282999, 6.88114436, -2.80921562],
        [-0.0, -0.0, 8.42764586]
      ],
      "pbc": [true, true, true],
      "a": 8.427647162765506,
      "b": 8.42764606709698,
      "c": 8.42764586,
      "alpha": 109.47122254035257,
      "beta": 109.47121990674827,
      "gamma": 109.47121719728685,
      "volume": 460.7836200365537
    },
    "properties": {},
    "sites": [
      {
        "species": [{ "element": "Zn", "occu": 1 }],
        "abc": [0.048189380000000004, 0.27639289, 0.02409417],
        "properties": { "magmom": 0.0 },
        "label": "Zn",
        "xyz": [-0.7151654379089987, 1.9018993761676006, -0.7087644508084212]
      },
      {
        "species": [{ "element": "Zn", "occu": 1 }],
        "abc": [0.27179749000000003, 0.74770127, 0.22360711],
        "properties": { "magmom": 0.0 },
        "label": "Zn",
        "xyz": [-0.8108790464646569, 5.145040377025337, -0.979510306304566]
      },
      {
        "species": [{ "element": "Zn", "occu": 1 }],
        "abc": [0.75229873, 0.02409522, 0.47590583000000003],
        "properties": { "magmom": 0.0 },
        "label": "Zn",
        "xyz": [5.881785203931638, 0.16580268720595923, 1.8297077863358653]
      },
      {
        "species": [{ "element": "Zn", "occu": 1 }],
        "abc": [0.45181062, 0.47590478, 0.22820251],
        "properties": { "magmom": 0.0 },
        "label": "Zn",
        "xyz": [1.699245683125875, 3.274769492794041, -0.6829426539514394]
      },
      {
        "species": [{ "element": "Zn", "occu": 1 }],
        "abc": [0.22820251, 0.45181062, 0.47590478],
        "properties": { "magmom": 0.0 },
        "label": "Zn",
        "xyz": [0.01825322651107597, 3.1089740996011033, 2.1004534423201204]
      },
      {
        "species": [{ "element": "Zn", "occu": 1 }],
        "abc": [0.27639289, 0.02409417, 0.048189380000000004],
        "properties": { "magmom": 0.0 },
        "label": "Zn",
        "xyz": [2.100402436455164, 0.16579546200438122, -0.4380099137069103]
      },
      {
        "species": [{ "element": "Zn", "occu": 1 }],
        "abc": [0.22360711, 0.27179749000000003, 0.74770127],
        "properties": { "magmom": 0.0 },
        "label": "Zn",
        "xyz": [0.6969012929059524, 1.8702777653756568, 4.90966317209239]
      },
      {
        "species": [{ "element": "Zn", "occu": 1 }],
        "abc": [0.02409522, 0.47590583000000003, 0.75229873],
        "properties": { "magmom": 0.0 },
        "label": "Zn",
        "xyz": [-1.6992404803861063, 3.274776717995619, 4.935496517691357]
      },
      {
        "species": [{ "element": "Zn", "occu": 1 }],
        "abc": [0.47590583000000003, 0.75229873, 0.02409522],
        "properties": { "magmom": 0.0 },
        "label": "Zn",
        "xyz": [0.7926319035084304, 5.176676162974664, -3.247225453428438]
      },
      {
        "species": [{ "element": "Zn", "occu": 1 }],
        "abc": [0.74770127, 0.22360711, 0.27179749000000003],
        "properties": { "magmom": 0.0 },
        "label": "Zn",
        "xyz": [5.052628520851485, 1.5386728038323996, -0.4380016815760035]
      },
      {
        "species": [{ "element": "Zn", "occu": 1 }],
        "abc": [0.02409417, 0.048189380000000004, 0.27639289],
        "properties": { "magmom": 0.0 },
        "label": "Zn",
        "xyz": [-4.083554849626525e-6, 0.3315980803988968, 2.1262813174128845]
      },
      {
        "species": [{ "element": "Zn", "occu": 1 }],
        "abc": [0.47590478, 0.22820251, 0.45181062],
        "properties": { "magmom": 0.0 },
        "label": "Zn",
        "xyz": [2.8747687410249894, 1.5702944146243436, 1.8297107039231637]
      },
      {
        "species": [{ "element": "Zn", "occu": 1 }],
        "abc": [0.97590478, 0.52409417, 0.24770127],
        "properties": { "magmom": 0.0 },
        "label": "Zn",
        "xyz": [5.672072470386105, 3.6063676420043818, -2.1262818976913564]
      },
      {
        "species": [{ "element": "Zn", "occu": 1 }],
        "abc": [0.77639289, 0.72820251, 0.25229873],
        "properties": { "magmom": 0.0 },
        "label": "Zn",
        "xyz": [3.2759306970940467, 5.0108665946243445, -2.1004485520923892]
      },
      {
        "species": [{ "element": "Zn", "occu": 1 }],
        "abc": [0.72360711, 0.97590583, 0.95181062],
        "properties": { "magmom": 0.0 },
        "label": "Zn",
        "xyz": [1.872429553544836, 6.715348897995619, 3.2472245337069108]
      },
      {
        "species": [{ "element": "Zn", "occu": 1 }],
        "abc": [0.77179749, 0.5481893800000001, 0.52409522],
        "properties": { "magmom": 0.0 },
        "label": "Zn",
        "xyz": [3.9545787634889233, 3.7721702603988976, 0.7087611776798806]
      },
      {
        "species": [{ "element": "Zn", "occu": 1 }],
        "abc": [0.5481893800000001, 0.52409522, 0.77179749],
        "properties": { "magmom": 0.0 },
        "label": "Zn",
        "xyz": [2.273586306874125, 3.6063748672059592, 3.4921572739514395]
      },
      {
        "species": [{ "element": "Zn", "occu": 1 }],
        "abc": [0.24770127, 0.97590478, 0.52409417],
        "properties": { "magmom": 0.0 },
        "label": "Zn",
        "xyz": [-1.9089532139316379, 6.715341672794041, 0.9795068336641357]
      },
      {
        "species": [{ "element": "Zn", "occu": 1 }],
        "abc": [0.72820251, 0.25229873, 0.77639289],
        "properties": { "magmom": 0.0 },
        "label": "Zn",
        "xyz": [4.7837110364646565, 1.7361039829746632, 3.7887249263045666]
      },
      {
        "species": [{ "element": "Zn", "occu": 1 }],
        "abc": [0.95181062, 0.72360711, 0.97590583],
        "properties": { "magmom": 0.0 },
        "label": "Zn",
        "xyz": [4.687997427908998, 4.9792449838324, 3.517979070808421]
      },
      {
        "species": [{ "element": "Zn", "occu": 1 }],
        "abc": [0.52409417, 0.24770127, 0.97590478],
        "properties": { "magmom": 0.0 },
        "label": "Zn",
        "xyz": [3.180200086491569, 1.7044681970253373, 6.056440073428439]
      },
      {
        "species": [{ "element": "Zn", "occu": 1 }],
        "abc": [0.25229873, 0.77639289, 0.72820251],
        "properties": { "magmom": 0.0 },
        "label": "Zn",
        "xyz": [-1.0797965308514854, 5.342471556167601, 3.247216301576005]
      },
      {
        "species": [{ "element": "Zn", "occu": 1 }],
        "abc": [0.97590583, 0.95181062, 0.72360711],
        "properties": { "magmom": 0.0 },
        "label": "Zn",
        "xyz": [3.9728360735548485, 6.549546279601104, 0.6829333025871156]
      },
      {
        "species": [{ "element": "Zn", "occu": 1 }],
        "abc": [0.52409522, 0.77179749, 0.5481893800000001],
        "properties": { "magmom": 0.0 },
        "label": "Zn",
        "xyz": [1.0980632489750102, 5.310849945375656, 0.9795039160768377]
      },
      {
        "species": [{ "element": "N", "occu": 1 }],
        "abc": [0.25, 0.72912153, 0.47912153],
        "properties": { "magmom": -0.0 },
        "label": "N",
        "xyz": [-0.9102603857386848, 5.017190503914072, 1.2873030827870675]
      },
      {
        "species": [{ "element": "N", "occu": 1 }],
        "abc": [0.02087847, 0.75, 0.77087847],
        "properties": { "magmom": -0.0 },
        "label": "N",
        "xyz": [-2.8137292272204295, 5.16085827, 4.3311269072129335]
      },
      {
        "species": [{ "element": "N", "occu": 1 }],
        "abc": [0.77087847, 0.02087847, 0.75],
        "properties": { "magmom": -0.0 },
        "label": "N",
        "xyz": [6.042193138518255, 0.1436677660859292, 4.096518431908598]
      },
      {
        "species": [{ "element": "N", "occu": 1 }],
        "abc": [0.47912153, 0.25, 0.72912153],
        "properties": { "magmom": -0.0 },
        "label": "N",
        "xyz": [2.8137302272204296, 1.72028609, 4.096518452787067]
      },
      {
        "species": [{ "element": "N", "occu": 1 }],
        "abc": [0.72912153, 0.47912153, 0.25],
        "properties": { "magmom": -0.0 },
        "label": "N",
        "xyz": [3.889884836481744, 3.296904413914071, -1.2873038119085973]
      },
      {
        "species": [{ "element": "N", "occu": 1 }],
        "abc": [0.75, 0.77087847, 0.02087847],
        "properties": { "magmom": -0.0 },
        "label": "N",
        "xyz": [2.896677380738684, 5.304526036085929, -4.096519202787067]
      },
      {
        "species": [{ "element": "N", "occu": 1 }],
        "abc": [0.75, 0.27087847, 0.52087847],
        "properties": { "magmom": -0.0 },
        "label": "N",
        "xyz": [4.883092375738684, 1.8639538560859292, 1.521911537212933]
      },
      {
        "species": [{ "element": "N", "occu": 1 }],
        "abc": [0.97912153, 0.25, 0.22912153000000002],
        "properties": { "magmom": -0.0 },
        "label": "N",
        "xyz": [6.786561217220429, 1.72028609, -1.5219122872129325]
      },
      {
        "species": [{ "element": "N", "occu": 1 }],
        "abc": [0.22912153000000002, 0.97912153, 0.25],
        "properties": { "magmom": -0.0 },
        "label": "N",
        "xyz": [-2.0693611485182553, 6.737476593914072, -1.2873038119085973]
      },
      {
        "species": [{ "element": "N", "occu": 1 }],
        "abc": [0.52087847, 0.75, 0.27087847],
        "properties": { "magmom": -0.0 },
        "label": "N",
        "xyz": [1.1591017627795708, 5.16085827, -1.287303832787067]
      },
      {
        "species": [{ "element": "N", "occu": 1 }],
        "abc": [0.27087847, 0.52087847, 0.75],
        "properties": { "magmom": -0.0 },
        "label": "N",
        "xyz": [0.08294715351825532, 3.5842399460859293, 4.096518431908597]
      },
      {
        "species": [{ "element": "N", "occu": 1 }],
        "abc": [0.25, 0.22912153000000002, 0.97912153],
        "properties": { "magmom": -0.0 },
        "label": "N",
        "xyz": [1.076154609261315, 1.576618323914071, 6.9057338227870675]
      },
      {
        "species": [{ "element": "N", "occu": 1 }],
        "abc": [-0.0, 0.5, -0.0],
        "properties": { "magmom": 0.0 },
        "label": "N",
        "xyz": [-1.986414995, 3.44057218, -1.40460781]
      },
      {
        "species": [{ "element": "N", "occu": 1 }],
        "abc": [0.5, -0.0, -0.0],
        "properties": { "magmom": 0.0 },
        "label": "N",
        "xyz": [3.97283099, 0.0, -1.40460781]
      },
      {
        "species": [{ "element": "N", "occu": 1 }],
        "abc": [-0.0, -0.0, 0.5],
        "properties": { "magmom": 0.0 },
        "label": "N",
        "xyz": [0.0, 0.0, 4.21382293]
      },
      {
        "species": [{ "element": "N", "occu": 1 }],
        "abc": [0.5, 0.5, 0.5],
        "properties": { "magmom": 0.0 },
        "label": "N",
        "xyz": [1.9864159949999998, 3.44057218, 1.4046073100000003]
      }
    ]
  },
  "task_ids": null,
  "uncorrected_energy_per_atom": null,
  "energy_per_atom": -9.0407846345,
  "formation_energy_per_atom": -0.042922803,
  "energy_above_hull": 0.0,
  "is_stable": true,
  "equilibrium_reaction_energy_per_atom": null,
  "decomposes_to": null,
  "xas": null,
  "grain_boundaries": null,
  "band_gap": 0.0,
  "cbm": null,
  "vbm": null,
  "efermi": 2.71963035,
  "is_gap_direct": null,
  "is_metal": null,
  "es_source_calc_id": null,
  "bandstructure": null,
  "dos": null,
  "dos_energy_up": null,
  "dos_energy_down": null,
  "is_magnetic": null,
  "ordering": null,
  "total_magnetization": 0.0,
  "total_magnetization_normalized_vol": null,
  "total_magnetization_normalized_formula_units": null,
  "num_magnetic_sites": null,
  "num_unique_magnetic_sites": null,
  "types_of_magnetic_species": null,
  "bulk_modulus": null,
  "shear_modulus": null,
  "universal_anisotropy": null,
  "homogeneous_poisson": null,
  "e_total": null,
  "e_ionic": null,
  "e_electronic": null,
  "n": null,
  "e_ij_max": null,
  "weighted_surface_energy_EV_PER_ANG2": null,
  "weighted_surface_energy": null,
  "weighted_work_function": null,
  "surface_anisotropy": null,
  "shape_factor": null,
  "has_reconstructed": null,
  "possible_species": null,
  "has_props": null,
  "theoretical": null,
  "database_IDs": null,
  "fields_not_requested": [
    "builder_meta",
    "nsites",
    "elements",
    "nelements",
    "composition",
    "composition_reduced",
    "chemsys",
    "symmetry",
    "property_name",
    "deprecated",
    "deprecation_reasons",
    "last_updated",
    "origins",
    "warnings",
    "task_ids",
    "uncorrected_energy_per_atom",
    "equilibrium_reaction_energy_per_atom",
    "decomposes_to",
    "xas",
    "grain_boundaries",
    "cbm",
    "vbm",
    "is_gap_direct",
    "is_metal",
    "es_source_calc_id",
    "bandstructure",
    "dos",
    "dos_energy_up",
    "dos_energy_down",
    "is_magnetic",
    "ordering",
    "total_magnetization_normalized_vol",
    "total_magnetization_normalized_formula_units",
    "num_magnetic_sites",
    "num_unique_magnetic_sites",
    "types_of_magnetic_species",
    "bulk_modulus",
    "shear_modulus",
    "universal_anisotropy",
    "homogeneous_poisson",
    "e_total",
    "e_ionic",
    "e_electronic",
    "n",
    "e_ij_max",
    "weighted_surface_energy_EV_PER_ANG2",
    "weighted_surface_energy",
    "weighted_work_function",
    "surface_anisotropy",
    "shape_factor",
    "has_reconstructed",
    "possible_species",
    "has_props",
    "theoretical",
    "database_IDs"
  ]
}
