{
  "builder_meta": null,
  "nsites": null,
  "elements": null,
  "nelements": null,
  "composition": null,
  "composition_reduced": null,
  "formula_pretty": "Zn3P2",
  "formula_anonymous": "A2B3",
  "chemsys": null,
  "volume": 731.0822298364071,
  "density": 4.691224769052758,
  "density_atomic": 18.27705574591018,
  "symmetry": null,
  "property_name": null,
  "material_id": "mp-2071",
  "deprecated": null,
  "deprecation_reasons": null,
  "last_updated": null,
  "origins": null,
  "warnings": null,
  "structure": {
    "@module": "pymatgen.core.structure",
    "@class": "Structure",
    "charge": 0,
    "lattice": {
      "matrix": [
        [8.03636072, 0.0, 0.0],
        [0.0, 8.03635766, 0.0],
        [0.0, 0.0, 11.32002924]
      ],
      "pbc": [true, true, true],
      "a": 8.03636072,
      "b": 8.03635766,
      "c": 11.32002924,
      "alpha": 90.0,
      "beta": 90.0,
      "gamma": 90.0,
      "volume": 731.0822298364071
    },
    "properties": {},
    "sites": [
      {
        "species": [{ "element": "Zn", "occu": 1 }],
        "abc": [0.249999, 0.96750844, 0.8564738],
        "properties": { "magmom": -0.0 },
        "label": "Zn",
        "xyz": [2.00908214363928, 7.775243862908651, 9.695308459293912]
      },
      {
        "species": [{ "element": "Zn", "occu": 1 }],
        "abc": [0.53249156, 0.249999, 0.3564728],
        "properties": { "magmom": -0.0 },
        "label": "Zn",
        "xyz": [4.279294256515523, 2.00908137864234, 4.035282519264672]
      },
      {
        "species": [{ "element": "Zn", "occu": 1 }],
        "abc": [0.96750744, 0.25, 0.3564738],
        "properties": { "magmom": -0.0 },
        "label": "Zn",
        "xyz": [7.775238787123756, 2.009089415, 4.035293839293912]
      },
      {
        "species": [{ "element": "Zn", "occu": 1 }],
        "abc": [0.75, 0.03249156, 0.1435262],
        "properties": { "magmom": -0.0 },
        "label": "Zn",
        "xyz": [6.02727054, 0.26111379709134963, 1.624720780706088]
      },
      {
        "species": [{ "element": "Zn", "occu": 1 }],
        "abc": [0.75, 0.46750844, 0.1435262],
        "properties": { "magmom": -0.0 },
        "label": "Zn",
        "xyz": [6.02727054, 3.757065032908651, 1.624720780706088]
      },
      {
        "species": [{ "element": "Zn", "occu": 1 }],
        "abc": [0.249999, 0.53249156, 0.8564738],
        "properties": { "magmom": -0.0 },
        "label": "Zn",
        "xyz": [2.00908214363928, 4.279292627091349, 9.695308459293912]
      },
      {
        "species": [{ "element": "Zn", "occu": 1 }],
        "abc": [0.46750744, 0.75, 0.643526199999999],
        "properties": { "magmom": -0.0 },
        "label": "Zn",
        "xyz": [3.7570584271237566, 6.027268245, 7.284735400706078]
      },
      {
        "species": [{ "element": "Zn", "occu": 1 }],
        "abc": [0.03249156, 0.750000999999999, 0.6435272],
        "properties": { "magmom": -0.0 },
        "label": "Zn",
        "xyz": [0.2611138965155232, 6.027276281357652, 7.284746720735328]
      },
      {
        "species": [{ "element": "Zn", "occu": 1 }],
        "abc": [0.25, 0.03258463, 0.13497068],
        "properties": { "magmom": -0.0 },
        "label": "Zn",
        "xyz": [2.00909018, 0.26186174089876585, 1.5278720441426834]
      },
      {
        "species": [{ "element": "Zn", "occu": 1 }],
        "abc": [0.46741537, 0.25, 0.63497068],
        "properties": { "magmom": -0.0 },
        "label": "Zn",
        "xyz": [3.756318519392266, 2.009089415, 7.187886664142684]
      },
      {
        "species": [{ "element": "Zn", "occu": 1 }],
        "abc": [0.03258463, 0.25, 0.63497068],
        "properties": { "magmom": -0.0 },
        "label": "Zn",
        "xyz": [0.2618618406077336, 2.009089415, 7.187886664142684]
      },
      {
        "species": [{ "element": "Zn", "occu": 1 }],
        "abc": [0.75, 0.96741537, 0.86502932],
        "properties": { "magmom": -0.0 },
        "label": "Zn",
        "xyz": [6.02727054, 7.774495919101234, 9.792157195857317]
      },
      {
        "species": [{ "element": "Zn", "occu": 1 }],
        "abc": [0.75, 0.53258463, 0.8650283200000001],
        "properties": { "magmom": -0.0 },
        "label": "Zn",
        "xyz": [6.02727054, 4.280040570898766, 9.792145875828078]
      },
      {
        "species": [{ "element": "Zn", "occu": 1 }],
        "abc": [0.25, 0.46741537, 0.13497168],
        "properties": { "magmom": -0.0 },
        "label": "Zn",
        "xyz": [2.00909018, 3.756317089101234, 1.5278833641719234]
      },
      {
        "species": [{ "element": "Zn", "occu": 1 }],
        "abc": [0.53258463, 0.75, 0.36502832],
        "properties": { "magmom": -0.0 },
        "label": "Zn",
        "xyz": [4.280042200607733, 6.027268245, 4.132131255828077]
      },
      {
        "species": [{ "element": "Zn", "occu": 1 }],
        "abc": [0.96741537, 0.75, 0.36502932],
        "properties": { "magmom": -0.0 },
        "label": "Zn",
        "xyz": [7.774498879392266, 6.027268245, 4.1321425758573165]
      },
      {
        "species": [{ "element": "Zn", "occu": 1 }],
        "abc": [0.25, 0.99673638, 0.39755491],
        "properties": { "magmom": 0.0 },
        "label": "Zn",
        "xyz": [2.00909018, 8.010130042413671, 4.5003332057055685]
      },
      {
        "species": [{ "element": "Zn", "occu": 1 }],
        "abc": [0.50326362, 0.25, 0.89755491],
        "properties": { "magmom": 0.0 },
        "label": "Zn",
        "xyz": [4.044407987573006, 2.009089415, 10.160347825705568]
      },
      {
        "species": [{ "element": "Zn", "occu": 1 }],
        "abc": [0.9967353800000001, 0.25, 0.89755491],
        "properties": { "magmom": 0.0 },
        "label": "Zn",
        "xyz": [8.010125056066274, 2.009089415, 10.160347825705568]
      },
      {
        "species": [{ "element": "Zn", "occu": 1 }],
        "abc": [0.75, 0.00326362, 0.60244509],
        "properties": { "magmom": 0.0 },
        "label": "Zn",
        "xyz": [6.02727054, 0.026227617586329202, 6.819696034294432]
      },
      {
        "species": [{ "element": "Zn", "occu": 1 }],
        "abc": [0.75, 0.49673638000000003, 0.60244509],
        "properties": { "magmom": 0.0 },
        "label": "Zn",
        "xyz": [6.02727054, 3.9919512124136713, 6.819696034294432]
      },
      {
        "species": [{ "element": "Zn", "occu": 1 }],
        "abc": [0.25, 0.50326362, 0.39755491],
        "properties": { "magmom": 0.0 },
        "label": "Zn",
        "xyz": [2.00909018, 4.044406447586329, 4.5003332057055685]
      },
      {
        "species": [{ "element": "Zn", "occu": 1 }],
        "abc": [0.49673538, 0.75, 0.10244509],
        "properties": { "magmom": 0.0 },
        "label": "Zn",
        "xyz": [3.9919446960662732, 6.027268245, 1.1596814142944316]
      },
      {
        "species": [{ "element": "Zn", "occu": 1 }],
        "abc": [0.00326362, 0.75, 0.10244509],
        "properties": { "magmom": 0.0 },
        "label": "Zn",
        "xyz": [0.0262276275730064, 6.027268245, 1.1596814142944316]
      },
      {
        "species": [{ "element": "P", "occu": 1 }],
        "abc": [0.25, 0.75, 0.99613197],
        "properties": { "magmom": -0.0 },
        "label": "P",
        "xyz": [2.00909018, 6.027268245, 11.276243027298802]
      },
      {
        "species": [{ "element": "P", "occu": 1 }],
        "abc": [0.75, 0.25, 0.49613197000000003],
        "properties": { "magmom": -0.0 },
        "label": "P",
        "xyz": [6.02727054, 2.009089415, 5.616228407298803]
      },
      {
        "species": [{ "element": "P", "occu": 1 }],
        "abc": [0.75, 0.25, 0.00386803],
        "properties": { "magmom": -0.0 },
        "label": "P",
        "xyz": [6.02727054, 2.009089415, 0.0437862127011972]
      },
      {
        "species": [{ "element": "P", "occu": 1 }],
        "abc": [0.25, 0.75, 0.50386803],
        "properties": { "magmom": -0.0 },
        "label": "P",
        "xyz": [2.00909018, 6.027268245, 5.703800832701198]
      },
      {
        "species": [{ "element": "P", "occu": 1 }],
        "abc": [0.25, 0.25, 0.99574359],
        "properties": { "magmom": 0.0 },
        "label": "P",
        "xyz": [2.00909018, 2.009089415, 11.271846554342572]
      },
      {
        "species": [{ "element": "P", "occu": 1 }],
        "abc": [0.250001, 0.25, 0.49574359],
        "properties": { "magmom": 0.0 },
        "label": "P",
        "xyz": [2.00909821636072, 2.009089415, 5.611831934342572]
      },
      {
        "species": [{ "element": "P", "occu": 1 }],
        "abc": [0.75, 0.75, 0.00425641],
        "properties": { "magmom": 0.0 },
        "label": "P",
        "xyz": [6.02727054, 6.027268245, 0.048182685657428406]
      },
      {
        "species": [{ "element": "P", "occu": 1 }],
        "abc": [0.750000999999999, 0.75, 0.50425641],
        "properties": { "magmom": 0.0 },
        "label": "P",
        "xyz": [6.027278576360712, 6.027268245, 5.7081973056574284]
      },
      {
        "species": [{ "element": "P", "occu": 1 }],
        "abc": [0.50414459, 0.00414359, 0.75],
        "properties": { "magmom": -0.0 },
        "label": "P",
        "xyz": [4.051487780276505, 0.0332993712363994, 8.490021930000001]
      },
      {
        "species": [{ "element": "P", "occu": 1 }],
        "abc": [0.49585641, 0.50414359, 0.25],
        "properties": { "magmom": -0.0 },
        "label": "P",
        "xyz": [3.984880976084215, 4.0514782012363995, 2.83000731]
      },
      {
        "species": [{ "element": "P", "occu": 1 }],
        "abc": [0.00414459, 0.99585641, 0.25],
        "properties": { "magmom": -0.0 },
        "label": "P",
        "xyz": [0.033307420276504796, 8.0030582887636, 2.83000731]
      },
      {
        "species": [{ "element": "P", "occu": 1 }],
        "abc": [0.99585641, 0.49585541, 0.75],
        "properties": { "magmom": -0.0 },
        "label": "P",
        "xyz": [8.003061336084215, 3.9848714224059405, 8.490021930000001]
      },
      {
        "species": [{ "element": "P", "occu": 1 }],
        "abc": [0.49585641, 0.99585541, 0.25],
        "properties": { "magmom": -0.0 },
        "label": "P",
        "xyz": [3.984880976084215, 8.003050252405941, 2.83000731]
      },
      {
        "species": [{ "element": "P", "occu": 1 }],
        "abc": [0.50414359, 0.49585641, 0.75],
        "properties": { "magmom": -0.0 },
        "label": "P",
        "xyz": [4.051479743915785, 3.9848794587636007, 8.490021930000001]
      },
      {
        "species": [{ "element": "P", "occu": 1 }],
        "abc": [0.99585641, 0.00414459, 0.75],
        "properties": { "magmom": -0.0 },
        "label": "P",
        "xyz": [8.003061336084215, 0.0333074075940594, 8.490021930000001]
      },
      {
        "species": [{ "element": "P", "occu": 1 }],
        "abc": [0.00414459, 0.50414359, 0.25],
        "properties": { "magmom": -0.0 },
        "label": "P",
        "xyz": [0.033307420276504796, 4.0514782012363995, 2.83000731]
      }
    ]
  },
  "task_ids": null,
  "uncorrected_energy_per_atom": null,
  "energy_per_atom": -9.2038189335,
  "formation_energy_per_atom": -0.256626845690476,
  "energy_above_hull": 0.0,
  "is_stable": true,
  "equilibrium_reaction_energy_per_atom": null,
  "decomposes_to": null,
  "xas": null,
  "grain_boundaries": null,
  "band_gap": 0.3144,
  "cbm": null,
  "vbm": null,
  "efermi": 3.27537034,
  "is_gap_direct": null,
  "is_metal": null,
  "es_source_calc_id": null,
  "bandstructure": null,
  "dos": null,
  "dos_energy_up": null,
  "dos_energy_down": null,
  "is_magnetic": null,
  "ordering": null,
  "total_magnetization": 0.0,
  "total_magnetization_normalized_vol": null,
  "total_magnetization_normalized_formula_units": null,
  "num_magnetic_sites": null,
  "num_unique_magnetic_sites": null,
  "types_of_magnetic_species": null,
  "bulk_modulus": null,
  "shear_modulus": null,
  "universal_anisotropy": null,
  "homogeneous_poisson": null,
  "e_total": null,
  "e_ionic": null,
  "e_electronic": null,
  "n": null,
  "e_ij_max": null,
  "weighted_surface_energy_EV_PER_ANG2": null,
  "weighted_surface_energy": null,
  "weighted_work_function": null,
  "surface_anisotropy": null,
  "shape_factor": null,
  "has_reconstructed": null,
  "possible_species": null,
  "has_props": null,
  "theoretical": null,
  "database_IDs": null,
  "fields_not_requested": [
    "builder_meta",
    "nsites",
    "elements",
    "nelements",
    "composition",
    "composition_reduced",
    "chemsys",
    "symmetry",
    "property_name",
    "deprecated",
    "deprecation_reasons",
    "last_updated",
    "origins",
    "warnings",
    "task_ids",
    "uncorrected_energy_per_atom",
    "equilibrium_reaction_energy_per_atom",
    "decomposes_to",
    "xas",
    "grain_boundaries",
    "cbm",
    "vbm",
    "is_gap_direct",
    "is_metal",
    "es_source_calc_id",
    "bandstructure",
    "dos",
    "dos_energy_up",
    "dos_energy_down",
    "is_magnetic",
    "ordering",
    "total_magnetization_normalized_vol",
    "total_magnetization_normalized_formula_units",
    "num_magnetic_sites",
    "num_unique_magnetic_sites",
    "types_of_magnetic_species",
    "bulk_modulus",
    "shear_modulus",
    "universal_anisotropy",
    "homogeneous_poisson",
    "e_total",
    "e_ionic",
    "e_electronic",
    "n",
    "e_ij_max",
    "weighted_surface_energy_EV_PER_ANG2",
    "weighted_surface_energy",
    "weighted_work_function",
    "surface_anisotropy",
    "shape_factor",
    "has_reconstructed",
    "possible_species",
    "has_props",
    "theoretical",
    "database_IDs"
  ]
}
