{
  "builder_meta": null,
  "nsites": null,
  "elements": null,
  "nelements": null,
  "composition": null,
  "composition_reduced": null,
  "formula_pretty": "Zn3Ru",
  "formula_anonymous": "AB3",
  "chemsys": null,
  "volume": 108.0003837822326,
  "density": 9.142065344478814,
  "density_atomic": 13.500047972779075,
  "symmetry": null,
  "property_name": null,
  "material_id": "mp-1380",
  "deprecated": null,
  "deprecation_reasons": null,
  "last_updated": null,
  "origins": null,
  "warnings": null,
  "structure": {
    "@module": "pymatgen.core.structure",
    "@class": "Structure",
    "charge": 0,
    "lattice": {
      "matrix": [
        [3.64965903, -0.0, -0.85965225],
        [-0.20248533, 3.6440359300000003, -0.85965225],
        [-0.011910210000000001, -0.012591699999999002, 8.12658247]
      ],
      "pbc": [true, true, true],
      "a": 3.749535041333872,
      "b": 3.749533325485485,
      "c": 8.126600952779855,
      "alpha": 103.33801110234647,
      "beta": 103.33799568946196,
      "gamma": 90.00000172040887,
      "volume": 108.00038378223262
    },
    "properties": {},
    "sites": [
      {
        "species": [{ "element": "Zn", "occu": 1 }],
        "abc": [0.62939269, 0.62939269, 0.25878438],
        "properties": { "magmom": 0.0 },
        "label": "Zn",
        "xyz": [2.166543751629733, 2.290271041161706, 1.020914921833714]
      },
      {
        "species": [{ "element": "Zn", "occu": 1 }],
        "abc": [0.37060731, 0.37060731, 0.74121562],
        "properties": { "magmom": 0.0 },
        "label": "Zn",
        "xyz": [1.268719738370267, 1.3411731888382952, 5.386363048166286]
      },
      {
        "species": [{ "element": "Zn", "occu": 1 }],
        "abc": [0.5, -0.0, -0.0],
        "properties": { "magmom": -0.0 },
        "label": "Zn",
        "xyz": [1.824829515, 0.0, -0.429826125]
      },
      {
        "species": [{ "element": "Zn", "occu": 1 }],
        "abc": [-0.0, 0.5, -0.0],
        "properties": { "magmom": -0.0 },
        "label": "Zn",
        "xyz": [-0.101242665, 1.8220179650000001, -0.429826125]
      },
      {
        "species": [{ "element": "Zn", "occu": 1 }],
        "abc": [0.75, 0.25, 0.5],
        "properties": { "magmom": -0.0 },
        "label": "Zn",
        "xyz": [2.680667835, 0.9047131325000005, 3.2036389850000004]
      },
      {
        "species": [{ "element": "Zn", "occu": 1 }],
        "abc": [0.25, 0.75, 0.5],
        "properties": { "magmom": -0.0 },
        "label": "Zn",
        "xyz": [0.754595655, 2.7267310975000005, 3.2036389850000004]
      },
      {
        "species": [{ "element": "Ru", "occu": 1 }],
        "abc": [0.88303435, 0.88303435, 0.766068699999999],
        "properties": { "magmom": 0.0 },
        "label": "Ru",
        "xyz": [3.034848748425168, 3.2081627915744066, 4.707315536626107]
      },
      {
        "species": [{ "element": "Ru", "occu": 1 }],
        "abc": [0.11696565, 0.11696565, 0.233931299999999],
        "properties": { "magmom": 0.0 },
        "label": "Ru",
        "xyz": [0.40041474157483203, 0.4232814384255948, 1.699962433373878]
      }
    ]
  },
  "task_ids": null,
  "uncorrected_energy_per_atom": null,
  "energy_per_atom": -3.414928175,
  "formation_energy_per_atom": -0.1515198325,
  "energy_above_hull": 0.0,
  "is_stable": true,
  "equilibrium_reaction_energy_per_atom": null,
  "decomposes_to": null,
  "xas": null,
  "grain_boundaries": null,
  "band_gap": 0.0,
  "cbm": null,
  "vbm": null,
  "efermi": 4.18463884,
  "is_gap_direct": null,
  "is_metal": null,
  "es_source_calc_id": null,
  "bandstructure": null,
  "dos": null,
  "dos_energy_up": null,
  "dos_energy_down": null,
  "is_magnetic": null,
  "ordering": null,
  "total_magnetization": 4e-7,
  "total_magnetization_normalized_vol": null,
  "total_magnetization_normalized_formula_units": null,
  "num_magnetic_sites": null,
  "num_unique_magnetic_sites": null,
  "types_of_magnetic_species": null,
  "bulk_modulus": null,
  "shear_modulus": null,
  "universal_anisotropy": null,
  "homogeneous_poisson": null,
  "e_total": null,
  "e_ionic": null,
  "e_electronic": null,
  "n": null,
  "e_ij_max": null,
  "weighted_surface_energy_EV_PER_ANG2": null,
  "weighted_surface_energy": null,
  "weighted_work_function": null,
  "surface_anisotropy": null,
  "shape_factor": null,
  "has_reconstructed": null,
  "possible_species": null,
  "has_props": null,
  "theoretical": null,
  "database_IDs": null,
  "fields_not_requested": [
    "builder_meta",
    "nsites",
    "elements",
    "nelements",
    "composition",
    "composition_reduced",
    "chemsys",
    "symmetry",
    "property_name",
    "deprecated",
    "deprecation_reasons",
    "last_updated",
    "origins",
    "warnings",
    "task_ids",
    "uncorrected_energy_per_atom",
    "equilibrium_reaction_energy_per_atom",
    "decomposes_to",
    "xas",
    "grain_boundaries",
    "cbm",
    "vbm",
    "is_gap_direct",
    "is_metal",
    "es_source_calc_id",
    "bandstructure",
    "dos",
    "dos_energy_up",
    "dos_energy_down",
    "is_magnetic",
    "ordering",
    "total_magnetization_normalized_vol",
    "total_magnetization_normalized_formula_units",
    "num_magnetic_sites",
    "num_unique_magnetic_sites",
    "types_of_magnetic_species",
    "bulk_modulus",
    "shear_modulus",
    "universal_anisotropy",
    "homogeneous_poisson",
    "e_total",
    "e_ionic",
    "e_electronic",
    "n",
    "e_ij_max",
    "weighted_surface_energy_EV_PER_ANG2",
    "weighted_surface_energy",
    "weighted_work_function",
    "surface_anisotropy",
    "shape_factor",
    "has_reconstructed",
    "possible_species",
    "has_props",
    "theoretical",
    "database_IDs"
  ]
}
