{"builder_meta": null, "nsites": null, "elements": null, "nelements": null, "composition": null, "composition_reduced": null, "formula_pretty": "Zn6Mo", "formula_anonymous": "AB6", "chemsys": null, "volume": 110.93678398664112, "density": 7.310445532571954, "density_atomic": 15.848111998091587, "symmetry": null, "property_name": null, "material_id": "mp-972048", "deprecated": null, "deprecation_reasons": null, "last_updated": null, "origins": null, "warnings": null, "structure": {"@module": "pymatgen.core.structure", "@class": "Structure", "charge": 0, "lattice": {"matrix": [[-0.00020284, 3.81477564, 3.81224139], [3.81411298, -3.872e-05, 3.81208035], [3.81414569, 3.81464725, -6.14e-05]], "pbc": [true, true, true], "a": 5.393115763666733, "b": 5.392533209963555, "c": 5.394371232150054, "alpha": 59.994227948179926, "beta": 59.98912595750951, "gamma": 60.02190199749598, "volume": 110.93678398664112}, "properties": {}, "sites": [{"species": [{"element": "Zn", "occu": 1}], "abc": [0.50000071, 0.50000071, 0.99999841], "properties": {"magmom": -0.001}, "label": "Zn", "xyz": [5.721097403384553, 5.722012353174086, 3.812104883366062]}, {"species": [{"element": "Zn", "occu": 1}], "abc": [0.50000071, 0.99999841, 0.50000071], "properties": {"magmom": -0.001}, "label": "Zn", "xyz": [5.721081048459785, 3.8146781419518168, 5.718166990440036]}, {"species": [{"element": "Zn", "occu": 1}], "abc": [4e-08, 4e-08, 0.49999926], "properties": {"magmom": -0.001}, "label": "Zn", "xyz": [1.907070175088595, 1.9073209547505119, -3.03949816944e-05]}, {"species": [{"element": "Zn", "occu": 1}], "abc": [4e-08, 0.49999926, 4e-08], "properties": {"magmom": -0.001}, "label": "Zn", "xyz": [1.9070538201141087, -1.90547944316e-05, 1.9060375065477406]}, {"species": [{"element": "Zn", "occu": 1}], "abc": [0.99999841, 0.50000071, 0.50000071], "properties": {"magmom": -0.001}, "label": "Zn", "xyz": [3.813931911386171, 5.722076547878789, 5.718247510069644]}, {"species": [{"element": "Zn", "occu": 1}], "abc": [0.49999926, 4e-08, 4e-08], "properties": {"magmom": -0.001}, "label": "Zn", "xyz": [-0.00010111471955159999, 1.9073851496503675, 1.9061180264221294]}, {"species": [{"element": "Mo", "occu": 1}], "abc": [-1.6e-07, -1.6e-07, -1.6e-07], "properties": {"magmom": 0.212}, "label": "Mo", "xyz": [-1.2204889328e-06, -1.2207014672e-06, -1.2198816544e-06]}]}, "task_ids": null, "uncorrected_energy_per_atom": null, "energy_per_atom": -11.39673766, "formation_energy_per_atom": -0.034509792857142, "energy_above_hull": 0.0, "is_stable": true, "equilibrium_reaction_energy_per_atom": null, "decomposes_to": null, "xas": null, "grain_boundaries": null, "band_gap": 0.0, "cbm": null, "vbm": null, "efermi": 2.299341049999999, "is_gap_direct": null, "is_metal": null, "es_source_calc_id": null, "bandstructure": null, "dos": null, "dos_energy_up": null, "dos_energy_down": null, "is_magnetic": null, "ordering": null, "total_magnetization": 0.2102818, "total_magnetization_normalized_vol": null, "total_magnetization_normalized_formula_units": null, "num_magnetic_sites": null, "num_unique_magnetic_sites": null, "types_of_magnetic_species": null, "bulk_modulus": null, "shear_modulus": null, "universal_anisotropy": null, "homogeneous_poisson": null, "e_total": null, "e_ionic": null, "e_electronic": null, "n": null, "e_ij_max": null, "weighted_surface_energy_EV_PER_ANG2": null, "weighted_surface_energy": null, "weighted_work_function": null, "surface_anisotropy": null, "shape_factor": null, "has_reconstructed": null, "possible_species": null, "has_props": null, "theoretical": null, "database_IDs": null, "fields_not_requested": ["builder_meta", "nsites", "elements", "nelements", "composition", "composition_reduced", "chemsys", "symmetry", "property_name", "deprecated", "deprecation_reasons", "last_updated", "origins", "warnings", "task_ids", "uncorrected_energy_per_atom", "equilibrium_reaction_energy_per_atom", "decomposes_to", "xas", "grain_boundaries", "cbm", "vbm", "is_gap_direct", "is_metal", "es_source_calc_id", "bandstructure", "dos", "dos_energy_up", "dos_energy_down", "is_magnetic", "ordering", "total_magnetization_normalized_vol", "total_magnetization_normalized_formula_units", "num_magnetic_sites", "num_unique_magnetic_sites", "types_of_magnetic_species", "bulk_modulus", "shear_modulus", "universal_anisotropy", "homogeneous_poisson", "e_total", "e_ionic", "e_electronic", "n", "e_ij_max", "weighted_surface_energy_EV_PER_ANG2", "weighted_surface_energy", "weighted_work_function", "surface_anisotropy", "shape_factor", "has_reconstructed", "possible_species", "has_props", "theoretical", "database_IDs"]}