{
  "builder_meta": null,
  "nsites": null,
  "elements": null,
  "nelements": null,
  "composition": null,
  "composition_reduced": null,
  "formula_pretty": "Zn6Sb5",
  "formula_anonymous": "A5B6",
  "chemsys": null,
  "volume": 524.0654331429156,
  "density": 6.345090812872255,
  "density_atomic": 23.82115605195071,
  "symmetry": null,
  "property_name": null,
  "material_id": "mp-1191566",
  "deprecated": null,
  "deprecation_reasons": null,
  "last_updated": null,
  "origins": null,
  "warnings": null,
  "structure": {
    "@module": "pymatgen.core.structure",
    "@class": "Structure",
    "charge": 0,
    "lattice": {
      "matrix": [
        [6.09002272, 3.5160765400000003, 4.07903164],
        [-6.09002272, 3.5160765400000003, 4.07903164],
        [-0.0, -7.03215205, 4.07903163]
      ],
      "pbc": [true, true, true],
      "a": 8.129555343644306,
      "b": 8.129555343644306,
      "c": 8.129554815170364,
      "alpha": 97.02863398377258,
      "beta": 97.02863398377258,
      "gamma": 97.02863143292728,
      "volume": 524.0654331429156
    },
    "properties": {},
    "sites": [
      {
        "species": [{ "element": "Zn", "occu": 1 }],
        "abc": [0.93595955, 0.01619702, 0.34164936],
        "properties": { "magmom": -0.0 },
        "label": "Zn",
        "xyz": [5.601374704704682, 0.9453251308786799, 5.2774753210731316]
      },
      {
        "species": [{ "element": "Zn", "occu": 1 }],
        "abc": [0.01619702, 0.34164936, 0.93595955],
        "properties": { "magmom": -0.0 },
        "label": "Zn",
        "xyz": [-1.9820121448771653, -5.323594606607651, 5.2774753151300295]
      },
      {
        "species": [{ "element": "Zn", "occu": 1 }],
        "abc": [0.34164936, 0.93595955, 0.01619702],
        "properties": { "magmom": -0.0 },
        "label": "Zn",
        "xyz": [-3.619362559827517, 4.378270808349081, 5.277475324327655]
      },
      {
        "species": [{ "element": "Zn", "occu": 1 }],
        "abc": [0.43595955000000003, 0.84164936, 0.51619702],
        "properties": { "magmom": -0.0 },
        "label": "Zn",
        "xyz": [-2.470660160172483, 0.8621947833490808, 7.316991139327655]
      },
      {
        "species": [{ "element": "Zn", "occu": 1 }],
        "abc": [0.84164936, 0.51619702, 0.43595955000000003],
        "properties": { "magmom": -0.0 },
        "label": "Zn",
        "xyz": [1.9820121448771646, 1.7085579583923485, 7.316991140130031]
      },
      {
        "species": [{ "element": "Zn", "occu": 1 }],
        "abc": [0.51619702, 0.43595955000000003, 0.84164936],
        "properties": { "magmom": -0.0 },
        "label": "Zn",
        "xyz": [0.4886480152953183, -2.5707508941213195, 7.316991136073132]
      },
      {
        "species": [{ "element": "Zn", "occu": 1 }],
        "abc": [0.06404045, 0.98380298, 0.65835064],
        "properties": { "magmom": -0.0 },
        "label": "Zn",
        "xyz": [-5.601374704704682, -0.9453241008786786, 6.959619588926868]
      },
      {
        "species": [{ "element": "Zn", "occu": 1 }],
        "abc": [0.98380298, 0.65835064, 0.06404045],
        "properties": { "magmom": -0.0 },
        "label": "Zn",
        "xyz": [1.9820121448771646, 5.323595636607652, 6.95961959486997]
      },
      {
        "species": [{ "element": "Zn", "occu": 1 }],
        "abc": [0.65835064, 0.06404045, 0.98380298],
        "properties": { "magmom": -0.0 },
        "label": "Zn",
        "xyz": [3.619362559827517, -4.37826977834908, 6.959619585672345]
      },
      {
        "species": [{ "element": "Zn", "occu": 1 }],
        "abc": [0.56404045, 0.15835164000000002, 0.48380298],
        "properties": { "magmom": -0.0 },
        "label": "Zn",
        "xyz": [2.4706540701497635, -0.8621902372725399, 4.920107849703985]
      },
      {
        "species": [{ "element": "Zn", "occu": 1 }],
        "abc": [0.15835164000000002, 0.48380298, 0.56404045],
        "properties": { "magmom": -0.0 },
        "label": "Zn",
        "xyz": [-1.9820060548544447, -1.7085534123158075, 4.92010784890161]
      },
      {
        "species": [{ "element": "Zn", "occu": 1 }],
        "abc": [0.48380298, 0.56404045, 0.15835164000000002],
        "properties": { "magmom": -0.0 },
        "label": "Zn",
        "xyz": [-0.48864801529531876, 2.5707448919692704, 4.920107852958498]
      },
      {
        "species": [{ "element": "Sb", "occu": 1 }],
        "abc": [0.60637302, 0.8936269800000001, 0.25],
        "properties": { "magmom": -0.0 },
        "label": "Sb",
        "xyz": [-1.7493831428099713, 3.5160767975000002, 7.1383053675]
      },
      {
        "species": [{ "element": "Sb", "occu": 1 }],
        "abc": [0.8936269800000001, 0.25, 0.60637302],
        "properties": { "magmom": -0.0 },
        "label": "Sb",
        "xyz": [3.919702931404986, -0.24302728076864177, 7.13830536393627]
      },
      {
        "species": [{ "element": "Sb", "occu": 1 }],
        "abc": [0.25, 0.60637302, 0.8936269800000001],
        "properties": { "magmom": -0.0 },
        "label": "Sb",
        "xyz": [-2.1703197885950147, -3.273047714231358, 7.138305361063731]
      },
      {
        "species": [{ "element": "Sb", "occu": 1 }],
        "abc": [0.10637302, 0.75, 0.39362698],
        "properties": { "magmom": -0.0 },
        "label": "Sb",
        "xyz": [-3.919702931404986, 0.24302831076864173, 5.098789546063731]
      },
      {
        "species": [{ "element": "Sb", "occu": 1 }],
        "abc": [0.75, 0.39362698, 0.10637302],
        "properties": { "magmom": -0.0 },
        "label": "Sb",
        "xyz": [2.1703197885950143, 3.2730487442313585, 5.09878954893627]
      },
      {
        "species": [{ "element": "Sb", "occu": 1 }],
        "abc": [0.39362698, 0.10637302, 0.75],
        "properties": { "magmom": -0.0 },
        "label": "Sb",
        "xyz": [1.7493831428099715, -3.5160757674999994, 5.0987895425000005]
      },
      {
        "species": [{ "element": "Sb", "occu": 1 }],
        "abc": [0.3644112, 0.3644112, 0.3644112],
        "properties": { "magmom": 0.0 },
        "label": "Sb",
        "xyz": [0.0, 3.753435362519042e-7, 4.459334440666992]
      },
      {
        "species": [{ "element": "Sb", "occu": 1 }],
        "abc": [0.864411199999999, 0.864411199999999, 0.864411199999999],
        "properties": { "magmom": 0.0 },
        "label": "Sb",
        "xyz": [0.0, 8.903435366747203e-7, 10.57788189566698]
      },
      {
        "species": [{ "element": "Sb", "occu": 1 }],
        "abc": [0.6355888, 0.6355888, 0.6355888],
        "properties": { "magmom": 0.0 },
        "label": "Sb",
        "xyz": [0.0, 6.546564641496389e-7, 7.777760469333008]
      },
      {
        "species": [{ "element": "Sb", "occu": 1 }],
        "abc": [0.135588799999999, 0.135588799999999, 0.135588799999999],
        "properties": { "magmom": 0.0 },
        "label": "Sb",
        "xyz": [0.0, 1.3965646417091193e-7, 1.659213014332996]
      }
    ]
  },
  "task_ids": null,
  "uncorrected_energy_per_atom": null,
  "energy_per_atom": -16.57110865909091,
  "formation_energy_per_atom": -0.026090997272728,
  "energy_above_hull": 0.029770598181816002,
  "is_stable": false,
  "equilibrium_reaction_energy_per_atom": null,
  "decomposes_to": null,
  "xas": null,
  "grain_boundaries": null,
  "band_gap": 0.0,
  "cbm": null,
  "vbm": null,
  "efermi": 3.87586288,
  "is_gap_direct": null,
  "is_metal": null,
  "es_source_calc_id": null,
  "bandstructure": null,
  "dos": null,
  "dos_energy_up": null,
  "dos_energy_down": null,
  "is_magnetic": null,
  "ordering": null,
  "total_magnetization": 1e-7,
  "total_magnetization_normalized_vol": null,
  "total_magnetization_normalized_formula_units": null,
  "num_magnetic_sites": null,
  "num_unique_magnetic_sites": null,
  "types_of_magnetic_species": null,
  "bulk_modulus": null,
  "shear_modulus": null,
  "universal_anisotropy": null,
  "homogeneous_poisson": null,
  "e_total": null,
  "e_ionic": null,
  "e_electronic": null,
  "n": null,
  "e_ij_max": null,
  "weighted_surface_energy_EV_PER_ANG2": null,
  "weighted_surface_energy": null,
  "weighted_work_function": null,
  "surface_anisotropy": null,
  "shape_factor": null,
  "has_reconstructed": null,
  "possible_species": null,
  "has_props": null,
  "theoretical": null,
  "database_IDs": null,
  "fields_not_requested": [
    "builder_meta",
    "nsites",
    "elements",
    "nelements",
    "composition",
    "composition_reduced",
    "chemsys",
    "symmetry",
    "property_name",
    "deprecated",
    "deprecation_reasons",
    "last_updated",
    "origins",
    "warnings",
    "task_ids",
    "uncorrected_energy_per_atom",
    "equilibrium_reaction_energy_per_atom",
    "decomposes_to",
    "xas",
    "grain_boundaries",
    "cbm",
    "vbm",
    "is_gap_direct",
    "is_metal",
    "es_source_calc_id",
    "bandstructure",
    "dos",
    "dos_energy_up",
    "dos_energy_down",
    "is_magnetic",
    "ordering",
    "total_magnetization_normalized_vol",
    "total_magnetization_normalized_formula_units",
    "num_magnetic_sites",
    "num_unique_magnetic_sites",
    "types_of_magnetic_species",
    "bulk_modulus",
    "shear_modulus",
    "universal_anisotropy",
    "homogeneous_poisson",
    "e_total",
    "e_ionic",
    "e_electronic",
    "n",
    "e_ij_max",
    "weighted_surface_energy_EV_PER_ANG2",
    "weighted_surface_energy",
    "weighted_work_function",
    "surface_anisotropy",
    "shape_factor",
    "has_reconstructed",
    "possible_species",
    "has_props",
    "theoretical",
    "database_IDs"
  ]
}
