{"builder_meta": null, "nsites": null, "elements": null, "nelements": null, "composition": null, "composition_reduced": null, "formula_pretty": "Zn7Mo", "formula_anonymous": "AB7", "chemsys": null, "volume": 114.47426615450223, "density": 8.0333471232662, "density_atomic": 14.309283269312779, "symmetry": null, "property_name": null, "material_id": "mp-644500", "deprecated": null, "deprecation_reasons": null, "last_updated": null, "origins": null, "warnings": null, "structure": {"@module": "pymatgen.core.structure", "@class": "Structure", "charge": 0, "lattice": {"matrix": [[3.85383198, 3.853830969999999, 3.039999999999999e-06], [2.029999999999998e-06, 3.85383198, 3.853830969999999], [3.85383299, 2.019999999999999e-06, 3.85383198]], "pbc": [true, true, true], "a": 5.450140739046203, "b": 5.450140739045733, "c": 5.450142167401428, "alpha": 59.99997390586714, "beta": 59.99994789757536, "gamma": 59.999956481166755, "volume": 114.4742661545022}, "properties": {}, "sites": [{"species": [{"element": "Zn", "occu": 1}], "abc": [0.5, -0.0, 0.0], "properties": {"magmom": -0.0}, "label": "Zn", "xyz": [1.92691599, 1.9269154849999994, 1.5199999999999994e-06]}, {"species": [{"element": "Zn", "occu": 1}], "abc": [0.5, 0.5, -0.0], "properties": {"magmom": -0.0}, "label": "Zn", "xyz": [1.926917005, 3.8538314749999993, 1.9269170049999995]}, {"species": [{"element": "Zn", "occu": 1}], "abc": [0.5, 0.0, 0.5], "properties": {"magmom": -0.0}, "label": "Zn", "xyz": [3.853832485, 1.9269164949999995, 1.92691751]}, {"species": [{"element": "Zn", "occu": 1}], "abc": [0.0, 0.5, 0.5], "properties": {"magmom": -0.0}, "label": "Zn", "xyz": [1.92691751, 1.926917, 3.8538314749999993]}, {"species": [{"element": "Zn", "occu": 1}], "abc": [0.0, -0.0, 0.5], "properties": {"magmom": -0.0}, "label": "Zn", "xyz": [1.926916495, 1.0099999999999994e-06, 1.92691599]}, {"species": [{"element": "Zn", "occu": 1}], "abc": [0.0, 0.5, -0.0], "properties": {"magmom": -0.0}, "label": "Zn", "xyz": [1.014999999999999e-06, 1.92691599, 1.9269154849999994]}, {"species": [{"element": "Zn", "occu": 1}], "abc": [0.5, 0.5, 0.5], "properties": {"magmom": -0.0}, "label": "Zn", "xyz": [3.8538335, 3.8538324849999994, 3.8538329949999994]}, {"species": [{"element": "Mo", "occu": 1}], "abc": [-0.0, 0.0, 0.0], "properties": {"magmom": 0.0}, "label": "Mo", "xyz": [0.0, 0.0, 0.0]}]}, "task_ids": null, "uncorrected_energy_per_atom": null, "energy_per_atom": -11.060217025, "formation_energy_per_atom": -0.004442315625, "energy_above_hull": 0.025753753124998002, "is_stable": false, "equilibrium_reaction_energy_per_atom": null, "decomposes_to": null, "xas": null, "grain_boundaries": null, "band_gap": 0.0, "cbm": null, "vbm": null, "efermi": 3.57737046, "is_gap_direct": null, "is_metal": null, "es_source_calc_id": null, "bandstructure": null, "dos": null, "dos_energy_up": null, "dos_energy_down": null, "is_magnetic": null, "ordering": null, "total_magnetization": 0.0, "total_magnetization_normalized_vol": null, "total_magnetization_normalized_formula_units": null, "num_magnetic_sites": null, "num_unique_magnetic_sites": null, "types_of_magnetic_species": null, "bulk_modulus": null, "shear_modulus": null, "universal_anisotropy": null, "homogeneous_poisson": null, "e_total": null, "e_ionic": null, "e_electronic": null, "n": null, "e_ij_max": null, "weighted_surface_energy_EV_PER_ANG2": null, "weighted_surface_energy": null, "weighted_work_function": null, "surface_anisotropy": null, "shape_factor": null, "has_reconstructed": null, "possible_species": null, "has_props": null, "theoretical": null, "database_IDs": null, "fields_not_requested": ["builder_meta", "nsites", "elements", "nelements", "composition", "composition_reduced", "chemsys", "symmetry", "property_name", "deprecated", "deprecation_reasons", "last_updated", "origins", "warnings", "task_ids", "uncorrected_energy_per_atom", "equilibrium_reaction_energy_per_atom", "decomposes_to", "xas", "grain_boundaries", "cbm", "vbm", "is_gap_direct", "is_metal", "es_source_calc_id", "bandstructure", "dos", "dos_energy_up", "dos_energy_down", "is_magnetic", "ordering", "total_magnetization_normalized_vol", "total_magnetization_normalized_formula_units", "num_magnetic_sites", "num_unique_magnetic_sites", "types_of_magnetic_species", "bulk_modulus", "shear_modulus", "universal_anisotropy", "homogeneous_poisson", "e_total", "e_ionic", "e_electronic", "n", "e_ij_max", "weighted_surface_energy_EV_PER_ANG2", "weighted_surface_energy", "weighted_work_function", "surface_anisotropy", "shape_factor", "has_reconstructed", "possible_species", "has_props", "theoretical", "database_IDs"]}