{"builder_meta": null, "nsites": null, "elements": null, "nelements": null, "composition": null, "composition_reduced": null, "formula_pretty": "Zn8Ag5", "formula_anonymous": "A5B8", "chemsys": null, "volume": 401.4212083310856, "density": 8.791316266088694, "density_atomic": 15.439277243503293, "symmetry": null, "property_name": null, "material_id": "mp-30361", "deprecated": null, "deprecation_reasons": null, "last_updated": null, "origins": null, "warnings": null, "structure": {"@module": "pymatgen.core.structure", "@class": "Structure", "charge": 0, "lattice": {"matrix": [[7.58864885, -0.0, -2.6829926200000003], [-3.79432493, 6.57196404, -2.6829926200000003], [-0.0, -0.0, 8.04897685]], "pbc": [true, true, true], "a": 8.048977622504662, "b": 8.048978967325427, "c": 8.04897685, "alpha": 109.47121784765018, "beta": 109.47122123220274, "gamma": 109.47122024701372, "volume": 401.4212083310856}, "properties": {}, "sites": [{"species": [{"element": "Zn", "occu": 1}], "abc": [0.71482688, 0.71482688, 0.37076825], "properties": {"magmom": -0.0}, "label": "Zn", "xyz": [2.7122847294429704, 4.6978165501853955, -0.8514454262702387]}, {"species": [{"element": "Zn", "occu": 1}], "abc": [0.34405963, 0.62923175, 0.34405963], "properties": {"magmom": -0.0}, "label": "Zn", "xyz": [0.22343799975839795, 4.13528843382627, 0.15799440723995017]}, {"species": [{"element": "Zn", "occu": 1}], "abc": [0.62923175, 0.34405963, 0.34405963], "properties": {"magmom": -0.0}, "label": "Zn", "xyz": [3.469544764505411, 2.261147515975705, 0.15799440723995017]}, {"species": [{"element": "Zn", "occu": 1}], "abc": [0.0, 0.65594037, 0.28517312], "properties": {"magmom": -0.0}, "label": "Zn", "xyz": [-2.4888508984844244, 4.310816524024295, 0.5354686692522026]}, {"species": [{"element": "Zn", "occu": 1}], "abc": [0.65594037, -0.0, 0.28517312], "properties": {"magmom": -0.0}, "label": "Zn", "xyz": [4.977701134469075, 0.0, 0.5354686692522026]}, {"species": [{"element": "Zn", "occu": 1}], "abc": [0.28517312, -0.0, 0.65594037], "properties": {"magmom": -0.0}, "label": "Zn", "xyz": [2.1640786691389122, 0.0, 4.514531476728061]}, {"species": [{"element": "Zn", "occu": 1}], "abc": [0.71482688, 0.37076825, 0.71482688], "properties": {"magmom": -0.0}, "label": "Zn", "xyz": [4.017754966633616, 2.43667560617373, 2.840981286779788]}, {"species": [{"element": "Zn", "occu": 1}], "abc": [0.37076825, 0.71482688, 0.71482688], "properties": {"magmom": -0.0}, "label": "Zn", "xyz": [0.10134460256089417, 4.6978165501853955, 2.840981286779788]}, {"species": [{"element": "Zn", "occu": 1}], "abc": [-0.0, 0.28517312, 0.65594037], "properties": {"magmom": -0.0}, "label": "Zn", "xyz": [-1.0820394785818817, 1.8741474898146049, 4.514531476728061]}, {"species": [{"element": "Zn", "occu": 1}], "abc": [0.28517312, 0.65594037, 0.0], "properties": {"magmom": -0.0}, "label": "Zn", "xyz": [-0.3247722293455122, 4.310816524024295, -2.5250005482524442]}, {"species": [{"element": "Zn", "occu": 1}], "abc": [0.21917881, 0.21917881, 0.21917881], "properties": {"magmom": -0.0}, "label": "Zn", "xyz": [0.8316354015401353, 1.4404352576499924, 0.5880549083197841]}, {"species": [{"element": "Zn", "occu": 1}], "abc": [0.78082119, 0.0, 0.0], "properties": {"magmom": -0.0}, "label": "Zn", "xyz": [5.925377825549132, 0.0, -2.094937490309618]}, {"species": [{"element": "Zn", "occu": 1}], "abc": [-0.0, 0.78082119, -0.0], "properties": {"magmom": -0.0}, "label": "Zn", "xyz": [-2.962689307089267, 5.131528782350008, -2.094937490309618]}, {"species": [{"element": "Zn", "occu": 1}], "abc": [0.0, 0.0, 0.78082119], "properties": {"magmom": -0.0}, "label": "Zn", "xyz": [0.0, 0.0, 6.284811682299453]}, {"species": [{"element": "Zn", "occu": 1}], "abc": [0.34405963, 0.34405963, 0.62923175], "properties": {"magmom": -0.0}, "label": "Zn", "xyz": [1.3054736840153496, 2.261147515975705, 3.218452892775127]}, {"species": [{"element": "Zn", "occu": 1}], "abc": [0.65594037, 0.28517312, -0.0], "properties": {"magmom": -0.0}, "label": "Zn", "xyz": [3.895661655887193, 1.8741474898146049, -2.5250005482524442]}, {"species": [{"element": "Ag", "occu": 1}], "abc": [0.0, 0.64630385, 0.64630385], "properties": {"magmom": -0.0}, "label": "Ag", "xyz": [-2.452286810409981, 4.247485661113554, 3.4680562668882864]}, {"species": [{"element": "Ag", "occu": 1}], "abc": [0.64630385, 0.64630385, 0.0], "properties": {"magmom": -0.0}, "label": "Ag", "xyz": [2.4522861576430914, 4.247485661113554, -3.4680569196551745]}, {"species": [{"element": "Ag", "occu": 1}], "abc": [0.35369615, 0.35369615, -0.0], "properties": {"magmom": -0.0}, "label": "Ag", "xyz": [1.342037762356908, 2.324478378886446, -1.897928320344826]}, {"species": [{"element": "Ag", "occu": 1}], "abc": [0.35369615, 0.0, 0.35369615], "properties": {"magmom": -0.0}, "label": "Ag", "xyz": [2.6840758819469275, 0.0, 1.8979279631117147]}, {"species": [{"element": "Ag", "occu": 1}], "abc": [0.64630385, -0.0, 0.64630385], "properties": {"magmom": -0.0}, "label": "Ag", "xyz": [4.904572968053072, 0.0, 3.4680562668882864]}, {"species": [{"element": "Ag", "occu": 1}], "abc": [-0.0, 0.35369615, 0.35369615], "properties": {"magmom": -0.0}, "label": "Ag", "xyz": [-1.3420381195900195, 2.324478378886446, 1.8979279631117147]}, {"species": [{"element": "Ag", "occu": 1}], "abc": [0.0, 0.0, 0.35921777], "properties": {"magmom": -0.0}, "label": "Ag", "xyz": [0.0, 0.0, 2.891335514838625]}, {"species": [{"element": "Ag", "occu": 1}], "abc": [-0.0, 0.35921777, -0.0], "properties": {"magmom": -0.0}, "label": "Ag", "xyz": [-1.3629889400100061, 2.360766266968991, -0.9637786258828575]}, {"species": [{"element": "Ag", "occu": 1}], "abc": [0.35921777, 0.0, 0.0], "properties": {"magmom": -0.0}, "label": "Ag", "xyz": [2.7259775172100644, 0.0, -0.9637786258828575]}, {"species": [{"element": "Ag", "occu": 1}], "abc": [0.64078223, 0.64078223, 0.64078223], "properties": {"magmom": -0.0}, "label": "Ag", "xyz": [2.4313353427999416, 4.211197773031009, 1.7192133469270905]}]}, "task_ids": null, "uncorrected_energy_per_atom": null, "energy_per_atom": -13.720481619615384, "formation_energy_per_atom": -0.023234960769229002, "energy_above_hull": 0.006046659017094, "is_stable": false, "equilibrium_reaction_energy_per_atom": null, "decomposes_to": null, "xas": null, "grain_boundaries": null, "band_gap": 0.0, "cbm": null, "vbm": null, "efermi": 3.4863855, "is_gap_direct": null, "is_metal": null, "es_source_calc_id": null, "bandstructure": null, "dos": null, "dos_energy_up": null, "dos_energy_down": null, "is_magnetic": null, "ordering": null, "total_magnetization": 6e-07, "total_magnetization_normalized_vol": null, "total_magnetization_normalized_formula_units": null, "num_magnetic_sites": null, "num_unique_magnetic_sites": null, "types_of_magnetic_species": null, "bulk_modulus": null, "shear_modulus": null, "universal_anisotropy": null, "homogeneous_poisson": null, "e_total": null, "e_ionic": null, "e_electronic": null, "n": null, "e_ij_max": null, "weighted_surface_energy_EV_PER_ANG2": null, "weighted_surface_energy": null, "weighted_work_function": null, "surface_anisotropy": null, "shape_factor": null, "has_reconstructed": null, "possible_species": null, "has_props": null, "theoretical": null, "database_IDs": null, "fields_not_requested": ["builder_meta", "nsites", "elements", "nelements", "composition", "composition_reduced", "chemsys", "symmetry", "property_name", "deprecated", "deprecation_reasons", "last_updated", "origins", "warnings", "task_ids", "uncorrected_energy_per_atom", "equilibrium_reaction_energy_per_atom", "decomposes_to", "xas", "grain_boundaries", "cbm", "vbm", "is_gap_direct", "is_metal", "es_source_calc_id", "bandstructure", "dos", "dos_energy_up", "dos_energy_down", "is_magnetic", "ordering", "total_magnetization_normalized_vol", "total_magnetization_normalized_formula_units", "num_magnetic_sites", "num_unique_magnetic_sites", "types_of_magnetic_species", "bulk_modulus", "shear_modulus", "universal_anisotropy", "homogeneous_poisson", "e_total", "e_ionic", "e_electronic", "n", "e_ij_max", "weighted_surface_energy_EV_PER_ANG2", "weighted_surface_energy", "weighted_work_function", "surface_anisotropy", "shape_factor", "has_reconstructed", "possible_species", "has_props", "theoretical", "database_IDs"]}