{"builder_meta": null, "nsites": null, "elements": null, "nelements": null, "composition": null, "composition_reduced": null, "formula_pretty": "ZnAg3", "formula_anonymous": "AB3", "chemsys": null, "volume": 131.7182476549881, "density": 9.80839468697932, "density_atomic": 16.46478095687351, "symmetry": null, "property_name": null, "material_id": "mp-1187952", "deprecated": null, "deprecation_reasons": null, "last_updated": null, "origins": null, "warnings": null, "structure": {"@module": "pymatgen.core.structure", "@class": "Structure", "charge": 0, "lattice": {"matrix": [[5.68868303, 1.287e-05, 0.0], [-2.84432784, 4.92654242, 0.0], [0.0, 0.0, 4.69993027]], "pbc": [true, true, true], "a": 5.688683030014558, "b": 5.688674808552385, "c": 4.69993027, "alpha": 90.0, "beta": 90.0, "gamma": 119.99975914202737, "volume": 131.7182476549881}, "properties": {}, "sites": [{"species": [{"element": "Zn", "occu": 1}], "abc": [0.33333245, 0.66666687, 0.75], "properties": {"magmom": 0.0}, "label": "Zn", "xyz": [3.5133166627066004e-06, 3.2843669050522566, 3.5249477025000004]}, {"species": [{"element": "Zn", "occu": 1}], "abc": [0.66666678, 0.33333281, 0.25], "properties": {"magmom": -0.0}, "label": "Zn", "xyz": [2.844348206582313, 1.6421868084442586, 1.1749825675]}, {"species": [{"element": "Ag", "occu": 1}], "abc": [0.16841224, 0.33682309, 0.25], "properties": {"magmom": 0.0}, "label": "Ag", "xyz": [8.55969046154037e-06, 1.6593754083860064, 1.1749825675]}, {"species": [{"element": "Ag", "occu": 1}], "abc": [0.66317869, 0.83158868, 0.25], "properties": {"magmom": -0.0}, "label": "Ag", "xyz": [1.4073025257077791, 4.096865443121545, 1.1749825675]}, {"species": [{"element": "Ag", "occu": 1}], "abc": [0.16841227, 0.83158867, 0.25], "properties": {"magmom": 0.0}, "label": "Ag", "xyz": [-1.4072667831167949, 4.096859026212297, 1.1749825675]}, {"species": [{"element": "Ag", "occu": 1}], "abc": [0.8315869300000001, 0.6631772, 0.75], "properties": {"magmom": 0.0}, "label": "Ag", "xyz": [2.8443410838475502, 3.2671813103006127, 3.5249477025000004]}, {"species": [{"element": "Ag", "occu": 1}], "abc": [0.33682315, 0.16841259, 0.75], "properties": {"magmom": -0.0}, "label": "Ag", "xyz": [1.4370595191726387, 0.8296961036110082, 3.5249477025000004]}, {"species": [{"element": "Ag", "occu": 1}], "abc": [0.83158849, 0.16841109, 0.75], "properties": {"magmom": -0.0}, "label": "Ag", "xyz": [4.2516269791545795, 0.8296950814273041, 3.5249477025000004]}]}, "task_ids": null, "uncorrected_energy_per_atom": null, "energy_per_atom": -18.26033355, "formation_energy_per_atom": -0.015775039999997, "energy_above_hull": 0.0020163752777790003, "is_stable": false, "equilibrium_reaction_energy_per_atom": null, "decomposes_to": null, "xas": null, "grain_boundaries": null, "band_gap": 0.0, "cbm": null, "vbm": null, "efermi": 3.172262, "is_gap_direct": null, "is_metal": null, "es_source_calc_id": null, "bandstructure": null, "dos": null, "dos_energy_up": null, "dos_energy_down": null, "is_magnetic": null, "ordering": null, "total_magnetization": 0.0, "total_magnetization_normalized_vol": null, "total_magnetization_normalized_formula_units": null, "num_magnetic_sites": null, "num_unique_magnetic_sites": null, "types_of_magnetic_species": null, "bulk_modulus": null, "shear_modulus": null, "universal_anisotropy": null, "homogeneous_poisson": null, "e_total": null, "e_ionic": null, "e_electronic": null, "n": null, "e_ij_max": null, "weighted_surface_energy_EV_PER_ANG2": null, "weighted_surface_energy": null, "weighted_work_function": null, "surface_anisotropy": null, "shape_factor": null, "has_reconstructed": null, "possible_species": null, "has_props": null, "theoretical": null, "database_IDs": null, "fields_not_requested": ["builder_meta", "nsites", "elements", "nelements", "composition", "composition_reduced", "chemsys", "symmetry", "property_name", "deprecated", "deprecation_reasons", "last_updated", "origins", "warnings", "task_ids", "uncorrected_energy_per_atom", "equilibrium_reaction_energy_per_atom", "decomposes_to", "xas", "grain_boundaries", "cbm", "vbm", "is_gap_direct", "is_metal", "es_source_calc_id", "bandstructure", "dos", "dos_energy_up", "dos_energy_down", "is_magnetic", "ordering", "total_magnetization_normalized_vol", "total_magnetization_normalized_formula_units", "num_magnetic_sites", "num_unique_magnetic_sites", "types_of_magnetic_species", "bulk_modulus", "shear_modulus", "universal_anisotropy", "homogeneous_poisson", "e_total", "e_ionic", "e_electronic", "n", "e_ij_max", "weighted_surface_energy_EV_PER_ANG2", "weighted_surface_energy", "weighted_work_function", "surface_anisotropy", "shape_factor", "has_reconstructed", "possible_species", "has_props", "theoretical", "database_IDs"]}