{"builder_meta": null, "nsites": null, "elements": null, "nelements": null, "composition": null, "composition_reduced": null, "formula_pretty": "ZnAg", "formula_anonymous": "AB", "chemsys": null, "volume": 281.36564598464815, "density": 9.203689492713858, "density_atomic": 15.631424776924897, "symmetry": null, "property_name": null, "material_id": "mp-2020519", "deprecated": null, "deprecation_reasons": null, "last_updated": null, "origins": null, "warnings": null, "structure": {"@module": "pymatgen.core.structure", "@class": "Structure", "charge": 0, "lattice": {"matrix": [[2.82052475, 0.01681152, 0.00827466], [-0.04330413, 7.58392688, 0.02463412], [-0.03311091, -0.10119311, 13.15279777]], "pbc": [true, true, true], "a": 2.82058698900874, "b": 7.584090519550104, "c": 13.153228712235999, "alpha": 90.25386928358036, "beta": 89.97877485830621, "gamma": 89.98510579080971, "volume": 281.36564598464815}, "properties": {}, "sites": [{"species": [{"element": "Zn", "occu": 1}], "abc": [0.77177742, 0.00171677, 0.33202351], "properties": {"magmom": -0.0}, "label": "Zn", "xyz": [2.1657493708123914, -0.007603881888360104, 4.373466568779943]}, {"species": [{"element": "Zn", "occu": 1}], "abc": [0.78524795, 0.49810278, 0.83119376], "properties": {"magmom": -0.0}, "label": "Zn", "xyz": [2.1657197885433597, 3.7066651922741167, 10.951291416422716]}, {"species": [{"element": "Zn", "occu": 1}], "abc": [0.27849688, 0.5003952700000001, 0.16823783], "properties": {"magmom": -0.0}, "label": "Zn", "xyz": [0.7582676533665896, 3.7826185854085645, 2.227429419375312]}, {"species": [{"element": "Zn", "occu": 1}], "abc": [0.27833975, -2.2690000000000005e-05, 0.6653718200000001], "properties": {"magmom": -0.0}, "label": "Zn", "xyz": [0.763034069905966, -0.06282380879914741, 8.753803598164394]}, {"species": [{"element": "Zn", "occu": 1}], "abc": [0.78293974, 0.65078793, 0.01424177], "properties": {"magmom": -0.0}, "label": "Zn", "xyz": [2.179647551340704, 4.947249313606158, 0.20982926880801292]}, {"species": [{"element": "Zn", "occu": 1}], "abc": [0.77450343, 0.1518505, 0.51345376], "properties": {"magmom": -0.0}, "label": "Zn", "xyz": [2.160929418245806, 1.1126856857793601, 6.763502925517258]}, {"species": [{"element": "Zn", "occu": 1}], "abc": [0.77447773, 0.65158738, 0.31978761], "properties": {"magmom": -0.0}, "label": "Zn", "xyz": [2.1456287224051134, 4.922250890902857, 4.228561585284357]}, {"species": [{"element": "Zn", "occu": 1}], "abc": [0.7826522100000001, 0.00140642, 0.00100475], "properties": {"magmom": -0.0}, "label": "Zn", "xyz": [2.20739575696586, 0.023722085946756302, 0.0197261004144565]}, {"species": [{"element": "Zn", "occu": 1}], "abc": [0.77062032, 0.50472681, 0.50004534], "properties": {"magmom": 0.0}, "label": "Zn", "xyz": [2.135139973769536, 3.7901653772421318, 6.59580535479274]}, {"species": [{"element": "Ag", "occu": 1}], "abc": [0.77992049, 0.14951691, 0.81905096], "properties": {"magmom": 0.0}, "label": "Ag", "xyz": [2.166190822747316, 1.0641546477887, 10.78294843458911]}, {"species": [{"element": "Ag", "occu": 1}], "abc": [0.77890881, 0.19526852, 0.16767915], "properties": {"magmom": 0.0}, "label": "Ag", "xyz": [2.1829236339785334, 1.4770288440126522, 2.2167054239231523]}, {"species": [{"element": "Ag", "occu": 1}], "abc": [0.77822108, 0.69721633, 0.66662675], "properties": {"magmom": 0.0}, "label": "Ag", "xyz": [2.142726852196445, 5.2332627114711, 8.79162165640336]}, {"species": [{"element": "Ag", "occu": 1}], "abc": [0.27236376, 0.82395408, 0.48056367], "properties": {"magmom": 0.0}, "label": "Ag", "xyz": [0.71661621106207, 6.204756611675872, 6.343307868310547]}, {"species": [{"element": "Ag", "occu": 1}], "abc": [0.28190208, 0.32861885, 0.9862631900000001], "properties": {"magmom": 0.0}, "label": "Ag", "xyz": [0.7482251685952266, 2.397157492771029, 12.982548166115542]}, {"species": [{"element": "Ag", "occu": 1}], "abc": [0.27817329, 0.85303717, 0.16691533], "properties": {"magmom": 0.0}, "label": "Ag", "xyz": [0.7421278982601652, 6.457157357681054, 2.2187191896088856]}, {"species": [{"element": "Ag", "occu": 1}], "abc": [0.27672919, 0.35673575, 0.6610548900000001], "properties": {"magmom": 0.0}, "label": "Ag", "xyz": [0.7431852691809552, 2.643215881594421, 8.705798994272712]}, {"species": [{"element": "Ag", "occu": 1}], "abc": [0.27292104, 0.32248376, 0.3526546], "properties": {"magmom": 0.0}, "label": "Ag", "xyz": [0.7441389547281253, 2.4145952576200433, 4.648597068914979]}, {"species": [{"element": "Ag", "occu": 1}], "abc": [0.28180483, 0.81261744, 0.8538323], "properties": {"magmom": 0.0}, "label": "Ag", "xyz": [0.7313766419821224, 6.081166868052977, 11.25263352607963]}]}, "task_ids": null, "uncorrected_energy_per_atom": null, "energy_per_atom": -15.168822705555556, "formation_energy_per_atom": -0.035582830555556, "energy_above_hull": 0.0, "is_stable": true, "equilibrium_reaction_energy_per_atom": null, "decomposes_to": null, "xas": null, "grain_boundaries": null, "band_gap": 0.0, "cbm": null, "vbm": null, "efermi": 6.30694911, "is_gap_direct": null, "is_metal": null, "es_source_calc_id": null, "bandstructure": null, "dos": null, "dos_energy_up": null, "dos_energy_down": null, "is_magnetic": null, "ordering": null, "total_magnetization": 0.0, "total_magnetization_normalized_vol": null, "total_magnetization_normalized_formula_units": null, "num_magnetic_sites": null, "num_unique_magnetic_sites": null, "types_of_magnetic_species": null, "bulk_modulus": null, "shear_modulus": null, "universal_anisotropy": null, "homogeneous_poisson": null, "e_total": null, "e_ionic": null, "e_electronic": null, "n": null, "e_ij_max": null, "weighted_surface_energy_EV_PER_ANG2": null, "weighted_surface_energy": null, "weighted_work_function": null, "surface_anisotropy": null, "shape_factor": null, "has_reconstructed": null, "possible_species": null, "has_props": null, "theoretical": null, "database_IDs": null, "fields_not_requested": ["builder_meta", "nsites", "elements", "nelements", "composition", "composition_reduced", "chemsys", "symmetry", "property_name", "deprecated", "deprecation_reasons", "last_updated", "origins", "warnings", "task_ids", "uncorrected_energy_per_atom", "equilibrium_reaction_energy_per_atom", "decomposes_to", "xas", "grain_boundaries", "cbm", "vbm", "is_gap_direct", "is_metal", "es_source_calc_id", "bandstructure", "dos", "dos_energy_up", "dos_energy_down", "is_magnetic", "ordering", "total_magnetization_normalized_vol", "total_magnetization_normalized_formula_units", "num_magnetic_sites", "num_unique_magnetic_sites", "types_of_magnetic_species", "bulk_modulus", "shear_modulus", "universal_anisotropy", "homogeneous_poisson", "e_total", "e_ionic", "e_electronic", "n", "e_ij_max", "weighted_surface_energy_EV_PER_ANG2", "weighted_surface_energy", "weighted_work_function", "surface_anisotropy", "shape_factor", "has_reconstructed", "possible_species", "has_props", "theoretical", "database_IDs"]}