{
  "builder_meta": null,
  "nsites": null,
  "elements": null,
  "nelements": null,
  "composition": null,
  "composition_reduced": null,
  "formula_pretty": "ZnAs2",
  "formula_anonymous": "AB2",
  "chemsys": null,
  "volume": 558.3442182356343,
  "density": 5.121352392989239,
  "density_atomic": 23.264342426484763,
  "symmetry": null,
  "property_name": null,
  "material_id": "mp-7262",
  "deprecated": null,
  "deprecation_reasons": null,
  "last_updated": null,
  "origins": null,
  "warnings": null,
  "structure": {
    "@module": "pymatgen.core.structure",
    "@class": "Structure",
    "charge": 0,
    "lattice": {
      "matrix": [
        [7.69436264, 0.0, 0.0],
        [0.0, 7.83774416, -1.7182278800000002],
        [0.0, -0.02201481, 9.26327627]
      ],
      "pbc": [true, true, true],
      "a": 7.69436264,
      "b": 8.023873164826535,
      "c": 9.26330242981435,
      "alpha": 102.50121340407813,
      "beta": 90.0,
      "gamma": 90.0,
      "volume": 558.3442182356343
    },
    "properties": {},
    "sites": [
      {
        "species": [{ "element": "Zn", "occu": 1 }],
        "abc": [0.74947005, 0.39479191, 0.08179493],
        "properties": { "magmom": -0.0 },
        "label": "Zn",
        "xyz": [5.766694352518932, 3.0924772871748325, 0.07934656751486024]
      },
      {
        "species": [{ "element": "Zn", "occu": 1 }],
        "abc": [0.24947005, 0.10520809, 0.9182050700000001],
        "properties": { "magmom": -0.0 },
        "label": "Zn",
        "xyz": [1.9195130325189318, 0.8043799828251676, 8.32481576248514]
      },
      {
        "species": [{ "element": "Zn", "occu": 1 }],
        "abc": [0.25052995, 0.60520809, 0.9182050700000001],
        "properties": { "magmom": -0.0 },
        "label": "Zn",
        "xyz": [1.927668287481068, 4.723252062825168, 7.465701822485141]
      },
      {
        "species": [{ "element": "Zn", "occu": 1 }],
        "abc": [0.75052995, 0.89479191, 0.08179493],
        "properties": { "magmom": -0.0 },
        "label": "Zn",
        "xyz": [5.774849607481068, 7.011349367174832, -0.7797673724851398]
      },
      {
        "species": [{ "element": "Zn", "occu": 1 }],
        "abc": [0.10120276, 0.222440299999999, 0.38906059],
        "properties": { "magmom": 0.0 },
        "label": "Zn",
        "xyz": [0.7786907356088864, 1.7348650673063022, 3.2217726058436367]
      },
      {
        "species": [{ "element": "Zn", "occu": 1 }],
        "abc": [0.6012027600000001, 0.277559699999999, 0.61093941],
        "properties": { "magmom": 0.0 },
        "label": "Zn",
        "xyz": [4.625872055608887, 2.1619922026936824, 5.182389724156366]
      },
      {
        "species": [{ "element": "Zn", "occu": 1 }],
        "abc": [0.89879724, 0.7775597, 0.61093941],
        "properties": { "magmom": 0.0 },
        "label": "Zn",
        "xyz": [6.915671904391114, 6.08086428269369, 4.3232757841563645]
      },
      {
        "species": [{ "element": "Zn", "occu": 1 }],
        "abc": [0.39879724, 0.722440299999999, 0.38906059],
        "properties": { "magmom": 0.0 },
        "label": "Zn",
        "xyz": [3.0684905843911134, 5.653737147306303, 2.362658665843637]
      },
      {
        "species": [{ "element": "As", "occu": 1 }],
        "abc": [0.42453292000000004, 0.21917896, 0.38522487],
        "properties": { "magmom": 0.0 },
        "label": "As",
        "xyz": [3.266510239098109, 1.7093879614145489, 3.19184499710343]
      },
      {
        "species": [{ "element": "As", "occu": 1 }],
        "abc": [0.92453292, 0.28082104, 0.6147751300000001],
        "properties": { "magmom": 0.0 },
        "label": "As",
        "xyz": [7.1136915590981085, 2.187469308585451, 5.21231733289657]
      },
      {
        "species": [{ "element": "As", "occu": 1 }],
        "abc": [0.57546708, 0.78082104, 0.6147751300000001],
        "properties": { "magmom": 0.0 },
        "label": "As",
        "xyz": [4.427852400901891, 6.1063413885854505, 4.353203392896571]
      },
      {
        "species": [{ "element": "As", "occu": 1 }],
        "abc": [0.07546708, 0.71917896, 0.38522487],
        "properties": { "magmom": 0.0 },
        "label": "As",
        "xyz": [0.5806710809018912, 5.628260041414549, 2.3327310571034303]
      },
      {
        "species": [{ "element": "As", "occu": 1 }],
        "abc": [0.0126112, 0.43245736, 0.23798194],
        "properties": { "magmom": -0.0 },
        "label": "As",
        "xyz": [0.09703514612556799, 3.384251020596486, 1.461432164627367]
      },
      {
        "species": [{ "element": "As", "occu": 1 }],
        "abc": [0.512611199999999, 0.06754264, 0.76201806],
        "properties": { "magmom": -0.0 },
        "label": "As",
        "xyz": [3.9442164661255603, 0.5126062494035138, 6.942730165372634]
      },
      {
        "species": [{ "element": "As", "occu": 1 }],
        "abc": [0.9873888, 0.56754264, 0.76201806],
        "properties": { "magmom": -0.0 },
        "label": "As",
        "xyz": [7.597327493874431, 4.431478329403514, 6.083616225372634]
      },
      {
        "species": [{ "element": "As", "occu": 1 }],
        "abc": [0.487388799999999, 0.93245736, 0.23798194],
        "properties": { "magmom": -0.0 },
        "label": "As",
        "xyz": [3.750146173874424, 7.303123100596486, 0.6023182246273668]
      },
      {
        "species": [{ "element": "As", "occu": 1 }],
        "abc": [0.49142399000000003, 0.4361195, 0.24339776000000002],
        "properties": { "magmom": -0.0 },
        "label": "As",
        "xyz": [3.7811943890557336, 3.4128347087462942, 1.5053080104674952]
      },
      {
        "species": [{ "element": "As", "occu": 1 }],
        "abc": [0.99142399, 0.06388049999999901, 0.75660224],
        "properties": { "magmom": -0.0 },
        "label": "As",
        "xyz": [7.628375709055733, 0.4840225612536978, 6.898854319532507]
      },
      {
        "species": [{ "element": "As", "occu": 1 }],
        "abc": [0.50857601, 0.5638805, 0.75660224],
        "properties": { "magmom": -0.0 },
        "label": "As",
        "xyz": [3.913168250944266, 4.402894641253705, 6.039740379532505]
      },
      {
        "species": [{ "element": "As", "occu": 1 }],
        "abc": [0.00857601, 0.9361195, 0.24339776000000002],
        "properties": { "magmom": -0.0 },
        "label": "As",
        "xyz": [0.0659869309442664, 7.331706788746295, 0.6461940704674953]
      },
      {
        "species": [{ "element": "As", "occu": 1 }],
        "abc": [0.25538677, 0.39207944, 0.06672323],
        "properties": { "magmom": 0.0 },
        "label": "As",
        "xyz": [1.9650384218382726, 3.071549441885034, -0.05560611186603526]
      },
      {
        "species": [{ "element": "As", "occu": 1 }],
        "abc": [0.75538677, 0.10792056, 0.93327677],
        "properties": { "magmom": 0.0 },
        "label": "As",
        "xyz": [5.812219741838272, 0.8253078281149658, 8.459768441866036]
      },
      {
        "species": [{ "element": "As", "occu": 1 }],
        "abc": [0.74461323, 0.60792056, 0.93327677],
        "properties": { "magmom": 0.0 },
        "label": "As",
        "xyz": [5.729324218161727, 4.744179908114966, 7.600654501866035]
      },
      {
        "species": [{ "element": "As", "occu": 1 }],
        "abc": [0.24461323000000001, 0.8920794400000001, 0.06672323],
        "properties": { "magmom": 0.0 },
        "label": "As",
        "xyz": [1.8821428981617272, 6.990421521885034, -0.9147200518660354]
      }
    ]
  },
  "task_ids": null,
  "uncorrected_energy_per_atom": null,
  "energy_per_atom": -3.682320307916666,
  "formation_energy_per_atom": -0.148990749583333,
  "energy_above_hull": 0.0,
  "is_stable": true,
  "equilibrium_reaction_energy_per_atom": null,
  "decomposes_to": null,
  "xas": null,
  "grain_boundaries": null,
  "band_gap": 0.22409999999999902,
  "cbm": null,
  "vbm": null,
  "efermi": 2.68374368,
  "is_gap_direct": null,
  "is_metal": null,
  "es_source_calc_id": null,
  "bandstructure": null,
  "dos": null,
  "dos_energy_up": null,
  "dos_energy_down": null,
  "is_magnetic": null,
  "ordering": null,
  "total_magnetization": 0.0,
  "total_magnetization_normalized_vol": null,
  "total_magnetization_normalized_formula_units": null,
  "num_magnetic_sites": null,
  "num_unique_magnetic_sites": null,
  "types_of_magnetic_species": null,
  "bulk_modulus": null,
  "shear_modulus": null,
  "universal_anisotropy": null,
  "homogeneous_poisson": null,
  "e_total": null,
  "e_ionic": null,
  "e_electronic": null,
  "n": null,
  "e_ij_max": null,
  "weighted_surface_energy_EV_PER_ANG2": null,
  "weighted_surface_energy": null,
  "weighted_work_function": null,
  "surface_anisotropy": null,
  "shape_factor": null,
  "has_reconstructed": null,
  "possible_species": null,
  "has_props": null,
  "theoretical": null,
  "database_IDs": null,
  "fields_not_requested": [
    "builder_meta",
    "nsites",
    "elements",
    "nelements",
    "composition",
    "composition_reduced",
    "chemsys",
    "symmetry",
    "property_name",
    "deprecated",
    "deprecation_reasons",
    "last_updated",
    "origins",
    "warnings",
    "task_ids",
    "uncorrected_energy_per_atom",
    "equilibrium_reaction_energy_per_atom",
    "decomposes_to",
    "xas",
    "grain_boundaries",
    "cbm",
    "vbm",
    "is_gap_direct",
    "is_metal",
    "es_source_calc_id",
    "bandstructure",
    "dos",
    "dos_energy_up",
    "dos_energy_down",
    "is_magnetic",
    "ordering",
    "total_magnetization_normalized_vol",
    "total_magnetization_normalized_formula_units",
    "num_magnetic_sites",
    "num_unique_magnetic_sites",
    "types_of_magnetic_species",
    "bulk_modulus",
    "shear_modulus",
    "universal_anisotropy",
    "homogeneous_poisson",
    "e_total",
    "e_ionic",
    "e_electronic",
    "n",
    "e_ij_max",
    "weighted_surface_energy_EV_PER_ANG2",
    "weighted_surface_energy",
    "weighted_work_function",
    "surface_anisotropy",
    "shape_factor",
    "has_reconstructed",
    "possible_species",
    "has_props",
    "theoretical",
    "database_IDs"
  ]
}
