{"builder_meta": null, "nsites": null, "elements": null, "nelements": null, "composition": null, "composition_reduced": null, "formula_pretty": "ZnAu3", "formula_anonymous": "AB3", "chemsys": null, "volume": 532.6629337963172, "density": 16.367968237714354, "density_atomic": 16.645716681134914, "symmetry": null, "property_name": null, "material_id": "mp-669566", "deprecated": null, "deprecation_reasons": null, "last_updated": null, "origins": null, "warnings": null, "structure": {"@module": "pymatgen.core.structure", "@class": "Structure", "charge": 0, "lattice": {"matrix": [[5.56291144, 1e-08, -0.9176287], [-0.15136609, 5.56085158, -0.9176287], [-0.0158924, -0.01633177, 17.2244335]], "pbc": [true, true, true], "a": 5.638087097619773, "b": 5.638086946744797, "c": 17.22444857436694, "alpha": 99.41972530638087, "beta": 99.41972208289096, "gamma": 89.99998858522345, "volume": 532.6629337963172}, "properties": {}, "sites": [{"species": [{"element": "Zn", "occu": 1}], "abc": [0.80694063, 0.05694063, 0.11388127], "properties": {"magmom": -0.0}, "label": "Zn", "xyz": [4.478510534807222, 0.3147785176621538, 1.168818124442383]}, {"species": [{"element": "Zn", "occu": 1}], "abc": [0.44305937, 0.6930593700000001, 0.38611873], "properties": {"magmom": -0.0}, "label": "Zn", "xyz": [2.3536579976927774, 3.8476942948378463, 5.608141225557617]}, {"species": [{"element": "Zn", "occu": 1}], "abc": [0.9430593700000001, 0.19305937, 0.38611873], "properties": {"magmom": -0.0}, "label": "Zn", "xyz": [5.210796762692778, 1.067268509837846, 5.608141225557618]}, {"species": [{"element": "Zn", "occu": 1}], "abc": [0.19305937, 0.9430593700000001, 0.88611873], "properties": {"magmom": -0.0}, "label": "Zn", "xyz": [0.9171424151927774, 5.229741302337845, 14.220357975557617]}, {"species": [{"element": "Zn", "occu": 1}], "abc": [0.30694063, 0.55694063, 0.11388127], "properties": {"magmom": -0.0}, "label": "Zn", "xyz": [1.6213717698072225, 3.0952043026621543, 1.168818124442383]}, {"species": [{"element": "Zn", "occu": 1}], "abc": [0.55694063, 0.30694063, 0.61388127], "properties": {"magmom": -0.0}, "label": "Zn", "xyz": [3.0419949523072223, 1.6968255251621536, 9.781034874442383]}, {"species": [{"element": "Zn", "occu": 1}], "abc": [0.6930593700000001, 0.44305937, 0.88611873], "properties": {"magmom": -0.0}, "label": "Zn", "xyz": [3.7742811801927774, 2.4493155173378462, 14.220357975557617]}, {"species": [{"element": "Zn", "occu": 1}], "abc": [0.05694063, 0.80694063, 0.61388127], "properties": {"magmom": -0.0}, "label": "Zn", "xyz": [0.18485618730722247, 4.4772513101621545, 9.781034874442383]}, {"species": [{"element": "Au", "occu": 1}], "abc": [0.05630416, 0.9436958400000001, 0.25], "properties": {"magmom": -0.0}, "label": "Au", "xyz": [0.16639840633352476, 5.2436695609664685, 3.388479675]}, {"species": [{"element": "Au", "occu": 1}], "abc": [0.43452936000000003, 0.18452936, 0.36905872], "properties": {"magmom": 0.0}, "label": "Au", "xyz": [2.3834516312447485, 1.020113005326148, 5.788761331777856]}, {"species": [{"element": "Au", "occu": 1}], "abc": [0.75, 0.50176676, 0.5], "properties": {"magmom": -0.0}, "label": "Au", "xyz": [4.088286907446831, 2.7820846026374806, 7.4635596453179875]}, {"species": [{"element": "Au", "occu": 1}], "abc": [0.55630416, 0.80630416, 0.25], "properties": {"magmom": -0.0}, "label": "Au", "xyz": [2.968650567733656, 4.479654825159614, 3.055739873709216]}, {"species": [{"element": "Au", "occu": 1}], "abc": [0.80630416, 0.55630416, 0.75], "properties": {"magmom": -0.0}, "label": "Au", "xyz": [4.389273750233656, 3.0812760476596144, 11.667956623709216]}, {"species": [{"element": "Au", "occu": 1}], "abc": [0.56547064, 0.81547064, 0.63094128], "properties": {"magmom": 0.0}, "label": "Au", "xyz": [3.012201318755252, 4.524406814673851, 9.600414768222144]}, {"species": [{"element": "Au", "occu": 1}], "abc": [0.25, 0.99823324, 0.5], "properties": {"magmom": -0.0}, "label": "Au", "xyz": [1.2316829975531685, 5.542861007362519, 7.466802104682012]}, {"species": [{"element": "Au", "occu": 1}], "abc": [0.31547064, 0.06547064, 0.13094128], "properties": {"magmom": 0.0}, "label": "Au", "xyz": [1.742944226255252, 0.3619340121738519, 1.9058267182221438]}, {"species": [{"element": "Au", "occu": 1}], "abc": [0.30630416, 0.6936958400000001, 0.75], "properties": {"magmom": -0.0}, "label": "Au", "xyz": [1.5870215888335248, 3.845290783466469, 12.000696425]}, {"species": [{"element": "Au", "occu": 1}], "abc": [0.68452936, 0.93452936, 0.8690587200000001], "properties": {"magmom": 0.0}, "label": "Au", "xyz": [3.6527087237447478, 5.182585807826147, 13.483349381777856]}, {"species": [{"element": "Au", "occu": 1}], "abc": [0.44369584, 0.19369584, 0.75], "properties": {"magmom": -0.0}, "label": "Au", "xyz": [2.427002382266344, 1.0648649948403857, 12.333436226290782]}, {"species": [{"element": "Au", "occu": 1}], "abc": [0.06547064, 0.31547064, 0.63094128], "properties": {"magmom": 0.0}, "label": "Au", "xyz": [0.3064286437552519, 1.7439810196738519, 10.518043468222144]}, {"species": [{"element": "Au", "occu": 1}], "abc": [0.99823324, 0.25, 0.0], "properties": {"magmom": -0.0}, "label": "Au", "xyz": [5.515241588084265, 1.3902129049823322, -1.145414645317988]}, {"species": [{"element": "Au", "occu": 1}], "abc": [0.81547064, 0.56547064, 0.13094128], "properties": {"magmom": 0.0}, "label": "Au", "xyz": [4.448716901255251, 3.1423598071738517, 0.9881980182221437]}, {"species": [{"element": "Au", "occu": 1}], "abc": [0.18452936, 0.43452936000000003, 0.8690587200000001], "properties": {"magmom": 0.0}, "label": "Au", "xyz": [0.9469360487447479, 2.402160012826148, 14.400978081777858]}, {"species": [{"element": "Au", "occu": 1}], "abc": [0.6936958400000001, 0.30630416, 0.25], "properties": {"magmom": -0.0}, "label": "Au", "xyz": [3.8086313611664755, 1.699229036533531, 3.388479675]}, {"species": [{"element": "Au", "occu": 1}], "abc": [0.49823324, 0.25, 0.0], "properties": {"magmom": -0.0}, "label": "Au", "xyz": [2.7337858680842655, 1.3902128999823322, -0.6866002953179879]}, {"species": [{"element": "Au", "occu": 1}], "abc": [0.0017657600000000001, 0.75, -0.0], "properties": {"magmom": -0.0}, "label": "Au", "xyz": [-0.10370180099570561, 4.170638685017658, -0.689841837053312]}, {"species": [{"element": "Au", "occu": 1}], "abc": [0.19369584, 0.44369584, 0.25], "properties": {"magmom": -0.0}, "label": "Au", "xyz": [1.0063791997663438, 2.4632437723403853, 3.721219476290784]}, {"species": [{"element": "Au", "occu": 1}], "abc": [0.75, 0.0017657600000000001, 0.5], "properties": {"magmom": -0.0}, "label": "Au", "xyz": [4.163970103812921, 0.0016532517859008007, 7.922374912946688]}, {"species": [{"element": "Au", "occu": 1}], "abc": [0.93452936, 0.68452936, 0.36905872], "properties": {"magmom": 0.0}, "label": "Au", "xyz": [5.0892243062447475, 3.8005388003261475, 4.871132631777856]}, {"species": [{"element": "Au", "occu": 1}], "abc": [0.50176676, 0.75, -0.0], "properties": {"magmom": -0.0}, "label": "Au", "xyz": [2.6777594819157344, 4.170638690017667, -1.148657104682012]}, {"species": [{"element": "Au", "occu": 1}], "abc": [0.9436958400000001, 0.05630416, 0.75], "properties": {"magmom": -0.0}, "label": "Au", "xyz": [5.2292545436664755, 0.30085025903353113, 12.000696425]}, {"species": [{"element": "Au", "occu": 1}], "abc": [0.25, 0.49823324, 0.5], "properties": {"magmom": -0.0}, "label": "Au", "xyz": [1.3073660425531684, 2.7624352173625195, 7.925616454682012]}]}, "task_ids": null, "uncorrected_energy_per_atom": null, "energy_per_atom": -40.32437242375, "formation_energy_per_atom": -0.15800165999999602, "energy_above_hull": 0.0, "is_stable": true, "equilibrium_reaction_energy_per_atom": null, "decomposes_to": null, "xas": null, "grain_boundaries": null, "band_gap": 0.0, "cbm": null, "vbm": null, "efermi": 4.66211596, "is_gap_direct": null, "is_metal": null, "es_source_calc_id": null, "bandstructure": null, "dos": null, "dos_energy_up": null, "dos_energy_down": null, "is_magnetic": null, "ordering": null, "total_magnetization": 0.0, "total_magnetization_normalized_vol": null, "total_magnetization_normalized_formula_units": null, "num_magnetic_sites": null, "num_unique_magnetic_sites": null, "types_of_magnetic_species": null, "bulk_modulus": null, "shear_modulus": null, "universal_anisotropy": null, "homogeneous_poisson": null, "e_total": null, "e_ionic": null, "e_electronic": null, "n": null, "e_ij_max": null, "weighted_surface_energy_EV_PER_ANG2": null, "weighted_surface_energy": null, "weighted_work_function": null, "surface_anisotropy": null, "shape_factor": null, "has_reconstructed": null, "possible_species": null, "has_props": null, "theoretical": null, "database_IDs": null, "fields_not_requested": ["builder_meta", "nsites", "elements", "nelements", "composition", "composition_reduced", "chemsys", "symmetry", "property_name", "deprecated", "deprecation_reasons", "last_updated", "origins", "warnings", "task_ids", "uncorrected_energy_per_atom", "equilibrium_reaction_energy_per_atom", "decomposes_to", "xas", "grain_boundaries", "cbm", "vbm", "is_gap_direct", "is_metal", "es_source_calc_id", "bandstructure", "dos", "dos_energy_up", "dos_energy_down", "is_magnetic", "ordering", "total_magnetization_normalized_vol", "total_magnetization_normalized_formula_units", "num_magnetic_sites", "num_unique_magnetic_sites", "types_of_magnetic_species", "bulk_modulus", "shear_modulus", "universal_anisotropy", "homogeneous_poisson", "e_total", "e_ionic", "e_electronic", "n", "e_ij_max", "weighted_surface_energy_EV_PER_ANG2", "weighted_surface_energy", "weighted_work_function", "surface_anisotropy", "shape_factor", "has_reconstructed", "possible_species", "has_props", "theoretical", "database_IDs"]}