{"builder_meta": null, "nsites": null, "elements": null, "nelements": null, "composition": null, "composition_reduced": null, "formula_pretty": "ZnBi", "formula_anonymous": "AB", "chemsys": null, "volume": 453.7732800892419, "density": 8.03281000717056, "density_atomic": 28.36083000557762, "symmetry": null, "property_name": null, "material_id": "mp-1006226", "deprecated": null, "deprecation_reasons": null, "last_updated": null, "origins": null, "warnings": null, "structure": {"@module": "pymatgen.core.structure", "@class": "Structure", "charge": 0, "lattice": {"matrix": [[6.586263, 0.0, 0.0], [0.0, 8.13598, 0.0], [0.0, 0.0, 8.468178]], "pbc": [true, true, true], "a": 6.586263, "b": 8.13598, "c": 8.468178, "alpha": 90.0, "beta": 90.0, "gamma": 90.0, "volume": 453.7732800892419}, "properties": {}, "sites": [{"species": [{"element": "Zn", "occu": 1}], "abc": [0.459277999999999, 0.104811, 0.875151], "properties": {"magmom": -0.0}, "label": "Zn", "xyz": [3.0249256981139934, 0.85274019978, 7.410934444878]}, {"species": [{"element": "Zn", "occu": 1}], "abc": [0.959278, 0.395188999999999, 0.12484899999999902], "properties": {"magmom": -0.0}, "label": "Zn", "xyz": [6.3180571981139995, 3.215249800219992, 1.0572435551219916]}, {"species": [{"element": "Zn", "occu": 1}], "abc": [0.540721999999999, 0.604811, 0.624849], "properties": {"magmom": -0.0}, "label": "Zn", "xyz": [3.5613373018859935, 4.9207301997799995, 5.291332555122]}, {"species": [{"element": "Zn", "occu": 1}], "abc": [0.040722, 0.895189, 0.375150999999999], "properties": {"magmom": -0.0}, "label": "Zn", "xyz": [0.268205801886, 7.2832398002200005, 3.1768454448779915]}, {"species": [{"element": "Zn", "occu": 1}], "abc": [0.540721999999999, 0.895189, 0.12484899999999902], "properties": {"magmom": -0.0}, "label": "Zn", "xyz": [3.5613373018859935, 7.2832398002200005, 1.0572435551219916]}, {"species": [{"element": "Zn", "occu": 1}], "abc": [0.040722, 0.604811, 0.875151], "properties": {"magmom": -0.0}, "label": "Zn", "xyz": [0.268205801886, 4.9207301997799995, 7.410934444878]}, {"species": [{"element": "Zn", "occu": 1}], "abc": [0.459277999999999, 0.395188999999999, 0.375150999999999], "properties": {"magmom": -0.0}, "label": "Zn", "xyz": [3.0249256981139934, 3.215249800219992, 3.1768454448779915]}, {"species": [{"element": "Zn", "occu": 1}], "abc": [0.959278, 0.104811, 0.624849], "properties": {"magmom": -0.0}, "label": "Zn", "xyz": [6.3180571981139995, 0.85274019978, 5.291332555122]}, {"species": [{"element": "Bi", "occu": 1}], "abc": [0.145635, 0.086516, 0.112710999999999], "properties": {"magmom": -0.0}, "label": "Bi", "xyz": [0.9591904120049999, 0.70389244568, 0.9544568105579916]}, {"species": [{"element": "Bi", "occu": 1}], "abc": [0.645635, 0.413483999999999, 0.887289], "properties": {"magmom": -0.0}, "label": "Bi", "xyz": [4.252321912005, 3.364097554319992, 7.513721189442]}, {"species": [{"element": "Bi", "occu": 1}], "abc": [0.854364999999999, 0.586515999999999, 0.387289], "properties": {"magmom": -0.0}, "label": "Bi", "xyz": [5.627072587994993, 4.771882445679992, 3.2796321894419997]}, {"species": [{"element": "Bi", "occu": 1}], "abc": [0.354365, 0.913484, 0.612711], "properties": {"magmom": -0.0}, "label": "Bi", "xyz": [2.333941087995, 7.43208755432, 5.188545810558]}, {"species": [{"element": "Bi", "occu": 1}], "abc": [0.854364999999999, 0.913484, 0.887289], "properties": {"magmom": -0.0}, "label": "Bi", "xyz": [5.627072587994993, 7.43208755432, 7.513721189442]}, {"species": [{"element": "Bi", "occu": 1}], "abc": [0.354365, 0.586515999999999, 0.112710999999999], "properties": {"magmom": -0.0}, "label": "Bi", "xyz": [2.333941087995, 4.771882445679992, 0.9544568105579916]}, {"species": [{"element": "Bi", "occu": 1}], "abc": [0.145635, 0.413483999999999, 0.612711], "properties": {"magmom": -0.0}, "label": "Bi", "xyz": [0.9591904120049999, 3.364097554319992, 5.188545810558]}, {"species": [{"element": "Bi", "occu": 1}], "abc": [0.645635, 0.086516, 0.387289], "properties": {"magmom": -0.0}, "label": "Bi", "xyz": [4.252321912005, 0.70389244568, 3.2796321894419997]}]}, "task_ids": null, "uncorrected_energy_per_atom": null, "energy_per_atom": -33.59978252875, "formation_energy_per_atom": 0.106655646249997, "energy_above_hull": 0.106655646249997, "is_stable": false, "equilibrium_reaction_energy_per_atom": null, "decomposes_to": null, "xas": null, "grain_boundaries": null, "band_gap": 0.0, "cbm": null, "vbm": null, "efermi": 3.58584932, "is_gap_direct": null, "is_metal": null, "es_source_calc_id": null, "bandstructure": null, "dos": null, "dos_energy_up": null, "dos_energy_down": null, "is_magnetic": null, "ordering": null, "total_magnetization": 0.001911, "total_magnetization_normalized_vol": null, "total_magnetization_normalized_formula_units": null, "num_magnetic_sites": null, "num_unique_magnetic_sites": null, "types_of_magnetic_species": null, "bulk_modulus": null, "shear_modulus": null, "universal_anisotropy": null, "homogeneous_poisson": null, "e_total": null, "e_ionic": null, "e_electronic": null, "n": null, "e_ij_max": null, "weighted_surface_energy_EV_PER_ANG2": null, "weighted_surface_energy": null, "weighted_work_function": null, "surface_anisotropy": null, "shape_factor": null, "has_reconstructed": null, "possible_species": null, "has_props": null, "theoretical": null, "database_IDs": null, "fields_not_requested": ["builder_meta", "nsites", "elements", "nelements", "composition", "composition_reduced", "chemsys", "symmetry", "property_name", "deprecated", "deprecation_reasons", "last_updated", "origins", "warnings", "task_ids", "uncorrected_energy_per_atom", "equilibrium_reaction_energy_per_atom", "decomposes_to", "xas", "grain_boundaries", "cbm", "vbm", "is_gap_direct", "is_metal", "es_source_calc_id", "bandstructure", "dos", "dos_energy_up", "dos_energy_down", "is_magnetic", "ordering", "total_magnetization_normalized_vol", "total_magnetization_normalized_formula_units", "num_magnetic_sites", "num_unique_magnetic_sites", "types_of_magnetic_species", "bulk_modulus", "shear_modulus", "universal_anisotropy", "homogeneous_poisson", "e_total", "e_ionic", "e_electronic", "n", "e_ij_max", "weighted_surface_energy_EV_PER_ANG2", "weighted_surface_energy", "weighted_work_function", "surface_anisotropy", "shape_factor", "has_reconstructed", "possible_species", "has_props", "theoretical", "database_IDs"]}