{"builder_meta": null, "nsites": null, "elements": null, "nelements": null, "composition": null, "composition_reduced": null, "formula_pretty": "ZnBr6", "formula_anonymous": "AB6", "chemsys": null, "volume": 4105.600380183679, "density": 0.22036155433919802, "density_atomic": 586.5143400262398, "symmetry": null, "property_name": null, "material_id": "mp-1206305", "deprecated": null, "deprecation_reasons": null, "last_updated": null, "origins": null, "warnings": null, "structure": {"@module": "pymatgen.core.structure", "@class": "Structure", "charge": 0, "lattice": {"matrix": [[5.36061, -8.077178, 0.0], [5.36061, 8.077178, 0.0], [0.0, 0.0, 47.410312]], "pbc": [true, true, true], "a": 9.694170620315283, "b": 9.694170620315283, "c": 47.410312, "alpha": 90.0, "beta": 90.0, "gamma": 112.85763892952563, "volume": 4105.600380183679}, "properties": {}, "sites": [{"species": [{"element": "Zn", "occu": 1}], "abc": [0.0, 0.0, 0.0], "properties": {"magmom": 0.001}, "label": "Zn", "xyz": [0.0, 0.0, 0.0]}, {"species": [{"element": "Br", "occu": 1}], "abc": [0.0, 0.0, 0.249992], "properties": {"magmom": 0.663}, "label": "Br", "xyz": [0.0, 0.0, 11.852198717503999]}, {"species": [{"element": "Br", "occu": 1}], "abc": [0.0, 0.0, 0.750008], "properties": {"magmom": 0.663}, "label": "Br", "xyz": [0.0, 0.0, 35.558113282495995]}, {"species": [{"element": "Br", "occu": 1}], "abc": [0.257582, 0.013876, 0.0], "properties": {"magmom": 0.37}, "label": "Br", "xyz": [1.45518046938, -1.9684567416679997, 0.0]}, {"species": [{"element": "Br", "occu": 1}], "abc": [0.742417999999999, 0.986124, 0.0], "properties": {"magmom": 0.37}, "label": "Br", "xyz": [9.266039530619995, 1.9684567416680077, 0.0]}, {"species": [{"element": "Br", "occu": 1}], "abc": [0.013876, 0.257582, 0.0], "properties": {"magmom": 0.37}, "label": "Br", "xyz": [1.45518046938, 1.9684567416679997, 0.0]}, {"species": [{"element": "Br", "occu": 1}], "abc": [0.986124, 0.742417999999999, 0.0], "properties": {"magmom": 0.37}, "label": "Br", "xyz": [9.266039530619995, -1.9684567416680077, 0.0]}]}, "task_ids": null, "uncorrected_energy_per_atom": null, "energy_per_atom": -1.745772481428571, "formation_energy_per_atom": -0.16271207857142803, "energy_above_hull": 0.380570495446429, "is_stable": false, "equilibrium_reaction_energy_per_atom": null, "decomposes_to": null, "xas": null, "grain_boundaries": null, "band_gap": 0.212899999999999, "cbm": null, "vbm": null, "efermi": -6.74932479, "is_gap_direct": null, "is_metal": null, "es_source_calc_id": null, "bandstructure": null, "dos": null, "dos_energy_up": null, "dos_energy_down": null, "is_magnetic": null, "ordering": null, "total_magnetization": 3.77316, "total_magnetization_normalized_vol": null, "total_magnetization_normalized_formula_units": null, "num_magnetic_sites": null, "num_unique_magnetic_sites": null, "types_of_magnetic_species": null, "bulk_modulus": null, "shear_modulus": null, "universal_anisotropy": null, "homogeneous_poisson": null, "e_total": null, "e_ionic": null, "e_electronic": null, "n": null, "e_ij_max": null, "weighted_surface_energy_EV_PER_ANG2": null, "weighted_surface_energy": null, "weighted_work_function": null, "surface_anisotropy": null, "shape_factor": null, "has_reconstructed": null, "possible_species": null, "has_props": null, "theoretical": null, "database_IDs": null, "fields_not_requested": ["builder_meta", "nsites", "elements", "nelements", "composition", "composition_reduced", "chemsys", "symmetry", "property_name", "deprecated", "deprecation_reasons", "last_updated", "origins", "warnings", "task_ids", "uncorrected_energy_per_atom", "equilibrium_reaction_energy_per_atom", "decomposes_to", "xas", "grain_boundaries", "cbm", "vbm", "is_gap_direct", "is_metal", "es_source_calc_id", "bandstructure", "dos", "dos_energy_up", "dos_energy_down", "is_magnetic", "ordering", "total_magnetization_normalized_vol", "total_magnetization_normalized_formula_units", "num_magnetic_sites", "num_unique_magnetic_sites", "types_of_magnetic_species", "bulk_modulus", "shear_modulus", "universal_anisotropy", "homogeneous_poisson", "e_total", "e_ionic", "e_electronic", "n", "e_ij_max", "weighted_surface_energy_EV_PER_ANG2", "weighted_surface_energy", "weighted_work_function", "surface_anisotropy", "shape_factor", "has_reconstructed", "possible_species", "has_props", "theoretical", "database_IDs"]}