{
  "builder_meta": null,
  "nsites": null,
  "elements": null,
  "nelements": null,
  "composition": null,
  "composition_reduced": null,
  "formula_pretty": "ZnBr2",
  "formula_anonymous": "AB2",
  "chemsys": null,
  "volume": 1511.314672503336,
  "density": 3.959272109419705,
  "density_atomic": 31.4857223438195,
  "symmetry": null,
  "property_name": null,
  "material_id": "mp-647579",
  "deprecated": null,
  "deprecation_reasons": null,
  "last_updated": null,
  "origins": null,
  "warnings": null,
  "structure": {
    "@module": "pymatgen.core.structure",
    "@class": "Structure",
    "charge": 0,
    "lattice": {
      "matrix": [
        [10.81129049, -0.0, -5.01102255],
        [-2.32003268, 10.53026833, -5.00547359],
        [-0.26889324000000003, -0.32613215, 13.58806371]
      ],
      "pbc": [true, true, true],
      "a": 11.916138177101377,
      "b": 11.887971593095958,
      "c": 13.594636484319848,
      "alpha": 115.99163341394494,
      "beta": 115.99330818002434,
      "gamma": 90.00000251449048,
      "volume": 1511.314672503336
    },
    "properties": {},
    "sites": [
      {
        "species": [{ "element": "Zn", "occu": 1 }],
        "abc": [0.8130521900000001, 0.08731981, 0.87767691],
        "properties": { "magmom": 0.0 },
        "label": "Zn",
        "xyz": [8.351557208806193, 0.6332623721609608, 7.414629908620235]
      },
      {
        "species": [{ "element": "Zn", "occu": 1 }],
        "abc": [0.79011872, 0.56357324, 0.37737798],
        "properties": { "magmom": 0.0 },
        "label": "Zn",
        "xyz": [7.1332202813866346, 5.811502348827432, -1.6524176569567617]
      },
      {
        "species": [{ "element": "Zn", "occu": 1 }],
        "abc": [0.31580636, 0.7921080500000001, 0.87859896],
        "properties": { "magmom": 0.0 },
        "label": "Zn",
        "xyz": [1.3403084134434116, 8.054570945040494, 6.391069927924925]
      },
      {
        "species": [{ "element": "Zn", "occu": 1 }],
        "abc": [0.08725926, 0.06357324, 0.37737798],
        "properties": { "magmom": 0.0 },
        "label": "Zn",
        "xyz": [0.6944188256820989, 0.5463681838274321, 4.372363741584062]
      },
      {
        "species": [{ "element": "Zn", "occu": 1 }],
        "abc": [0.43537528000000003, 0.41268019, 0.12232309000000001],
        "properties": { "magmom": 0.0 },
        "label": "Zn",
        "xyz": [3.7166452450595666, 4.30573964283904, -2.585201197829682]
      },
      {
        "species": [{ "element": "Zn", "occu": 1 }],
        "abc": [0.20988128, 0.43642676, 0.62262202],
        "properties": { "magmom": 0.0 },
        "label": "Zn",
        "xyz": [1.0891442886133653, 4.392633831172568, 5.223985226956762]
      },
      {
        "species": [{ "element": "Zn", "occu": 1 }],
        "abc": [0.68419364, 0.20789195, 0.12140104],
        "properties": { "magmom": 0.0 },
        "label": "Zn",
        "xyz": [6.8820561565565885, 2.1495652349595074, -2.819502357924924]
      },
      {
        "species": [{ "element": "Zn", "occu": 1 }],
        "abc": [0.41254279, 0.68633765, 0.62219737],
        "properties": { "magmom": 0.0 },
        "label": "Zn",
        "xyz": [2.7004894979918856, 7.024401053479179, 2.9517512993268635]
      },
      {
        "species": [{ "element": "Zn", "occu": 1 }],
        "abc": [0.06279361, 0.29210805, 0.87859896],
        "properties": { "magmom": 0.0 },
        "label": "Zn",
        "xyz": [-0.2350695844803356, 2.789436780040493, 10.161659318612438]
      },
      {
        "species": [{ "element": "Zn", "occu": 1 }],
        "abc": [0.5874572100000001, 0.31366235000000003, 0.37780263000000003],
        "properties": { "magmom": 0.0 },
        "label": "Zn",
        "xyz": [5.521875072008115, 3.1797351265208214, 0.6198162706731356]
      },
      {
        "species": [{ "element": "Zn", "occu": 1 }],
        "abc": [0.18694781, 0.91268019, 0.12232309000000001],
        "properties": { "magmom": 0.0 },
        "label": "Zn",
        "xyz": [-0.12919263880619405, 9.570873807839039, -3.8430623386202347]
      },
      {
        "species": [{ "element": "Zn", "occu": 1 }],
        "abc": [0.7096555800000001, 0.18633765, 0.62219737],
        "properties": { "magmom": 0.0 },
        "label": "Zn",
        "xyz": [7.072678518976255, 1.759266888479179, 3.9656492037434496]
      },
      {
        "species": [{ "element": "Zn", "occu": 1 }],
        "abc": [0.91274074, 0.93642676, 0.62262202],
        "properties": { "magmom": 0.0 },
        "label": "Zn",
        "xyz": [7.5279457443179, 9.657767996172568, -0.8007961715840608]
      },
      {
        "species": [{ "element": "Zn", "occu": 1 }],
        "abc": [0.9372063900000001, 0.70789195, 0.12140104],
        "properties": { "magmom": 0.0 },
        "label": "Zn",
        "xyz": [8.457434154480335, 7.414699399959508, -6.590091748612435]
      },
      {
        "species": [{ "element": "Zn", "occu": 1 }],
        "abc": [0.29034442, 0.81366235, 0.37780263000000003],
        "properties": { "magmom": 0.0 },
        "label": "Zn",
        "xyz": [1.149686051023746, 8.44486929152082, -0.3940816337434496]
      },
      {
        "species": [{ "element": "Zn", "occu": 1 }],
        "abc": [0.56462472, 0.58731981, 0.87767691],
        "properties": { "magmom": 0.0 },
        "label": "Zn",
        "xyz": [4.505719324940433, 5.89839653716096, 6.156768767829684]
      },
      {
        "species": [{ "element": "Br", "occu": 1 }],
        "abc": [0.25132177, 0.96997168, 0.00091525],
        "properties": { "magmom": -0.0 },
        "label": "Br",
        "xyz": [0.4665005611185547, 10.213763570450608, -6.102110208753268]
      },
      {
        "species": [{ "element": "Br", "occu": 1 }],
        "abc": [0.398161899999999, 0.389245499999999, 0.7509444200000001],
        "properties": { "magmom": -0.0 },
        "label": "Br",
        "xyz": [3.1996578042536616, 3.853952443019902, 6.260324291901819]
      },
      {
        "species": [{ "element": "Br", "occu": 1 }],
        "abc": [0.3621666, 0.85315037, 0.25141238],
        "properties": { "magmom": -0.0 },
        "label": "Br",
        "xyz": [1.8685484895872306, 8.901908661912765, -2.669039207867829]
      },
      {
        "species": [{ "element": "Br", "occu": 1 }],
        "abc": [0.5092852, 0.75833653, 0.01616334],
        "properties": { "magmom": 0.0 },
        "label": "Br",
        "xyz": [3.742318494558126, 7.980215760515714, -6.128244601142111]
      },
      {
        "species": [{ "element": "Br", "occu": 1 }],
        "abc": [0.35413571, 0.86301312, 0.75122333],
        "properties": { "magmom": -0.0 },
        "label": "Br",
        "xyz": [1.6244465168563467, 8.84276164616743, 4.113299059924592]
      },
      {
        "species": [{ "element": "Br", "occu": 1 }],
        "abc": [0.601838099999999, 0.6107545, 0.24905558],
        "properties": { "magmom": -0.0 },
        "label": "Br",
        "xyz": [5.022706765746318, 6.350183736980088, -2.6887567219018034]
      },
      {
        "species": [{ "element": "Br", "occu": 1 }],
        "abc": [0.61075421, 0.6468496300000001, 0.74858762],
        "properties": { "magmom": -0.0 },
        "label": "Br",
        "xyz": [4.901038751088865, 6.567361683087236, 3.873564414593563]
      },
      {
        "species": [{ "element": "Br", "occu": 1 }],
        "abc": [0.00687713, 0.25833653, 0.01616334],
        "properties": { "magmom": 0.0 },
        "label": "Br",
        "xyz": [-0.5293447547321283, 2.715081595515714, -1.107929638070133]
      },
      {
        "species": [{ "element": "Br", "occu": 1 }],
        "abc": [0.6378334, 0.14684963, 0.74858762],
        "properties": { "magmom": -0.0 },
        "label": "Br",
        "xyz": [6.353816080412767, 1.3022275180872351, 6.240606777867829]
      },
      {
        "species": [{ "element": "Br", "occu": 1 }],
        "abc": [0.8600725100000001, 0.39641924, 0.2502004],
        "properties": { "magmom": -0.0 },
        "label": "Br",
        "xyz": [8.31151096008737, 4.0928025739918095, -2.894369803165489]
      },
      {
        "species": [{ "element": "Br", "occu": 1 }],
        "abc": [0.49071479999999906, 0.24166347, 0.98383666],
        "properties": { "magmom": 0.0 },
        "label": "Br",
        "xyz": [4.480046075441864, 2.223920419484286, 9.699812171142117]
      },
      {
        "species": [{ "element": "Br", "occu": 1 }],
        "abc": [0.5308173700000001, 0.25, 0.5],
        "properties": { "magmom": 0.0 },
        "label": "Br",
        "xyz": [5.024365994207812, 2.4695010075, 2.882725646498306]
      },
      {
        "species": [{ "element": "Br", "occu": 1 }],
        "abc": [0.8527815200000001, 0.889245499999999, 0.7509444200000001],
        "properties": { "magmom": -0.0 },
        "label": "Br",
        "xyz": [6.9546662385270865, 9.119086608019902, 1.4794783294093818]
      },
      {
        "species": [{ "element": "Br", "occu": 1 }],
        "abc": [0.24959348, 0.46997168, 0.00091525],
        "properties": { "magmom": -0.0 },
        "label": "Br",
        "xyz": [1.6078318558775924, 4.948629405450607, -3.5907129135903277]
      },
      {
        "species": [{ "element": "Br", "occu": 1 }],
        "abc": [0.99312287, 0.74166347, 0.98383666],
        "properties": { "magmom": 0.0 },
        "label": "Br",
        "xyz": [8.751709324732127, 7.489054584484286, 4.679497208070133]
      },
      {
        "species": [{ "element": "Br", "occu": 1 }],
        "abc": [0.96879677, 0.75, 0.5],
        "properties": { "magmom": 0.0 },
        "label": "Br",
        "xyz": [8.599472176243717, 7.734635172500001, -1.8147357983371641]
      },
      {
        "species": [{ "element": "Br", "occu": 1 }],
        "abc": [0.46918263, 0.75, 0.5],
        "properties": { "magmom": 0.0 },
        "label": "Br",
        "xyz": [3.1979985757921883, 7.734635172500001, 0.6888419235016938]
      },
      {
        "species": [{ "element": "Br", "occu": 1 }],
        "abc": [0.74867823, 0.03002832, 0.99908475],
        "properties": { "magmom": -0.0 },
        "label": "Br",
        "xyz": [7.755864008881445, -0.009627390450606899, 9.673677778753268]
      },
      {
        "species": [{ "element": "Br", "occu": 1 }],
        "abc": [0.13992749000000002, 0.60358076, 0.7497996],
        "properties": { "magmom": -0.0 },
        "label": "Br",
        "xyz": [-0.08914639008737094, 6.111333606008191, 6.465937373165488]
      },
      {
        "species": [{ "element": "Br", "occu": 1 }],
        "abc": [0.89708862, 0.36301312, 0.75122333],
        "properties": { "magmom": -0.0 },
        "label": "Br",
        "xyz": [8.654484489257172, 3.5776274811674305, 3.8952865793264717]
      },
      {
        "species": [{ "element": "Br", "occu": 1 }],
        "abc": [0.758288499999999, 0.50755617, 0.5159166],
        "properties": { "magmom": -0.0 },
        "label": "Br",
        "xyz": [6.881803861246935, 5.1764456726684065, 0.6699478525643654]
      },
      {
        "species": [{ "element": "Br", "occu": 1 }],
        "abc": [0.89012689, 0.8964192400000001, 0.2502004],
        "properties": { "magmom": -0.0 },
        "label": "Br",
        "xyz": [7.476421252764215, 9.35793673899181, -5.547709774071757]
      },
      {
        "species": [{ "element": "Br", "occu": 1 }],
        "abc": [0.14721848, 0.110754499999999, 0.24905558],
        "properties": { "magmom": -0.0 },
        "label": "Br",
        "xyz": [1.2676983314729184, 1.0850495719800775, 2.092089240590628]
      },
      {
        "species": [{ "element": "Br", "occu": 1 }],
        "abc": [0.10291138, 0.63698688, 0.24877667],
        "properties": { "magmom": -0.0 },
        "label": "Br",
        "xyz": [-0.4321199192571733, 6.626508698832571, -0.3237190093264726]
      },
      {
        "species": [{ "element": "Br", "occu": 1 }],
        "abc": [0.2576271, 0.00755617, 0.5159166],
        "properties": { "magmom": -0.0 },
        "label": "Br",
        "xyz": [2.629024368716859, -0.08868849233159389, 5.68151021287893]
      },
      {
        "species": [{ "element": "Br", "occu": 1 }],
        "abc": [0.38924579, 0.35315037, 0.25141238],
        "properties": { "magmom": -0.0 },
        "label": "Br",
        "xyz": [3.321325818911134, 3.636774496912765, -0.30199684459356346]
      },
      {
        "species": [{ "element": "Br", "occu": 1 }],
        "abc": [0.75040652, 0.53002832, 0.99908475],
        "properties": { "magmom": -0.0 },
        "label": "Br",
        "xyz": [6.614532714122407, 5.255506774549393, 7.162280483590328]
      },
      {
        "species": [{ "element": "Br", "occu": 1 }],
        "abc": [0.7423729, 0.99244383, 0.4840834],
        "properties": { "magmom": -0.0 },
        "label": "Br",
        "xyz": [5.593340201283141, 10.292824672331594, -2.1099426428789307]
      },
      {
        "species": [{ "element": "Br", "occu": 1 }],
        "abc": [0.64586429, 0.13698688, 0.24877667],
        "properties": { "magmom": -0.0 },
        "label": "Br",
        "xyz": [6.597918053143653, 1.36137453383257, -0.5417314899245929]
      },
      {
        "species": [{ "element": "Br", "occu": 1 }],
        "abc": [0.031203230000000002, 0.25, 0.5],
        "properties": { "magmom": 0.0 },
        "label": "Br",
        "xyz": [-0.37710760624371736, 2.4695010075, 5.386303368337163]
      },
      {
        "species": [{ "element": "Br", "occu": 1 }],
        "abc": [0.2417115, 0.49244383, 0.4840834],
        "properties": { "magmom": -0.0 },
        "label": "Br",
        "xyz": [1.3405607087530544, 5.027690507331594, 2.9016197174356386]
      },
      {
        "species": [{ "element": "Br", "occu": 1 }],
        "abc": [0.10987311, 0.10358076000000001, 0.7497996],
        "properties": { "magmom": -0.0 },
        "label": "Br",
        "xyz": [0.7459433172357829, 0.8461994410081909, 9.119277344071758]
      }
    ]
  },
  "task_ids": null,
  "uncorrected_energy_per_atom": null,
  "energy_per_atom": -2.7788715660416683,
  "formation_energy_per_atom": -1.267659339375001,
  "energy_above_hull": 0.0,
  "is_stable": true,
  "equilibrium_reaction_energy_per_atom": null,
  "decomposes_to": null,
  "xas": null,
  "grain_boundaries": null,
  "band_gap": 3.2214,
  "cbm": null,
  "vbm": null,
  "efermi": -1.45867902,
  "is_gap_direct": null,
  "is_metal": null,
  "es_source_calc_id": null,
  "bandstructure": null,
  "dos": null,
  "dos_energy_up": null,
  "dos_energy_down": null,
  "is_magnetic": null,
  "ordering": null,
  "total_magnetization": 0.0,
  "total_magnetization_normalized_vol": null,
  "total_magnetization_normalized_formula_units": null,
  "num_magnetic_sites": null,
  "num_unique_magnetic_sites": null,
  "types_of_magnetic_species": null,
  "bulk_modulus": null,
  "shear_modulus": null,
  "universal_anisotropy": null,
  "homogeneous_poisson": null,
  "e_total": null,
  "e_ionic": null,
  "e_electronic": null,
  "n": null,
  "e_ij_max": null,
  "weighted_surface_energy_EV_PER_ANG2": null,
  "weighted_surface_energy": null,
  "weighted_work_function": null,
  "surface_anisotropy": null,
  "shape_factor": null,
  "has_reconstructed": null,
  "possible_species": null,
  "has_props": null,
  "theoretical": null,
  "database_IDs": null,
  "fields_not_requested": [
    "builder_meta",
    "nsites",
    "elements",
    "nelements",
    "composition",
    "composition_reduced",
    "chemsys",
    "symmetry",
    "property_name",
    "deprecated",
    "deprecation_reasons",
    "last_updated",
    "origins",
    "warnings",
    "task_ids",
    "uncorrected_energy_per_atom",
    "equilibrium_reaction_energy_per_atom",
    "decomposes_to",
    "xas",
    "grain_boundaries",
    "cbm",
    "vbm",
    "is_gap_direct",
    "is_metal",
    "es_source_calc_id",
    "bandstructure",
    "dos",
    "dos_energy_up",
    "dos_energy_down",
    "is_magnetic",
    "ordering",
    "total_magnetization_normalized_vol",
    "total_magnetization_normalized_formula_units",
    "num_magnetic_sites",
    "num_unique_magnetic_sites",
    "types_of_magnetic_species",
    "bulk_modulus",
    "shear_modulus",
    "universal_anisotropy",
    "homogeneous_poisson",
    "e_total",
    "e_ionic",
    "e_electronic",
    "n",
    "e_ij_max",
    "weighted_surface_energy_EV_PER_ANG2",
    "weighted_surface_energy",
    "weighted_work_function",
    "surface_anisotropy",
    "shape_factor",
    "has_reconstructed",
    "possible_species",
    "has_props",
    "theoretical",
    "database_IDs"
  ]
}
