{
  "builder_meta": null,
  "nsites": null,
  "elements": null,
  "nelements": null,
  "composition": null,
  "composition_reduced": null,
  "formula_pretty": "ZnCl2",
  "formula_anonymous": "AB2",
  "chemsys": null,
  "volume": 154.69685573005597,
  "density": 2.926450984350554,
  "density_atomic": 25.782809288342662,
  "symmetry": null,
  "property_name": null,
  "material_id": "mp-22909",
  "deprecated": null,
  "deprecation_reasons": null,
  "last_updated": null,
  "origins": null,
  "warnings": null,
  "structure": {
    "@module": "pymatgen.core.structure",
    "@class": "Structure",
    "charge": 0,
    "lattice": {
      "matrix": [
        [5.07815679, 0.0, -2.34898328],
        [-1.0865588800000001, 4.9605511700000005, -2.34898328],
        [-0.15649756, -0.19448722000000002, 6.32528185]
      ],
      "pbc": [true, true, true],
      "a": 5.595122771981207,
      "b": 5.595122926229127,
      "c": 6.330205940328379,
      "alpha": 116.22762988466268,
      "beta": 116.22762913671437,
      "gamma": 89.99998884386852,
      "volume": 154.696855730056
    },
    "properties": {},
    "sites": [
      {
        "species": [{ "element": "Zn", "occu": 1 }],
        "abc": [-0.0, -0.0, -0.0],
        "properties": { "magmom": -0.0 },
        "label": "Zn",
        "xyz": [0.0, 0.0, 0.0]
      },
      {
        "species": [{ "element": "Zn", "occu": 1 }],
        "abc": [0.25, 0.75, 0.5],
        "properties": { "magmom": -0.0 },
        "label": "Zn",
        "xyz": [0.3763712575, 3.6231697675000003, 0.8136576449999997]
      },
      {
        "species": [{ "element": "Cl", "occu": 1 }],
        "abc": [0.35762747, 0.375, 0.25],
        "properties": { "magmom": -0.0 },
        "label": "Cl",
        "xyz": [1.3695043950710215, 1.8115848837500002, -0.1396092149987016]
      },
      {
        "species": [{ "element": "Cl", "occu": 1 }],
        "abc": [0.125, 0.64237253, 0.75],
        "properties": { "magmom": -0.0 },
        "label": "Cl",
        "xyz": [-0.1805791479895665, 3.040656390267361, 2.9414161449987013]
      },
      {
        "species": [{ "element": "Cl", "occu": 1 }],
        "abc": [0.625, 0.10762747, 0.75],
        "properties": { "magmom": -0.0 },
        "label": "Cl",
        "xyz": [2.9395312404895666, 0.38802615723263995, 3.0230317100012982]
      },
      {
        "species": [{ "element": "Cl", "occu": 1 }],
        "abc": [0.89237253, 0.875, 0.25],
        "properties": { "magmom": -0.0 },
        "label": "Cl",
        "xyz": [3.5417442124289793, 4.29186046875, -2.570208060001299]
      }
    ]
  },
  "task_ids": null,
  "uncorrected_energy_per_atom": null,
  "energy_per_atom": -8.362838726666666,
  "formation_energy_per_atom": -1.291011926666667,
  "energy_above_hull": 0.0,
  "is_stable": true,
  "equilibrium_reaction_energy_per_atom": null,
  "decomposes_to": null,
  "xas": null,
  "grain_boundaries": null,
  "band_gap": 4.0533,
  "cbm": null,
  "vbm": null,
  "efermi": -1.53337203,
  "is_gap_direct": null,
  "is_metal": null,
  "es_source_calc_id": null,
  "bandstructure": null,
  "dos": null,
  "dos_energy_up": null,
  "dos_energy_down": null,
  "is_magnetic": null,
  "ordering": null,
  "total_magnetization": 0.0,
  "total_magnetization_normalized_vol": null,
  "total_magnetization_normalized_formula_units": null,
  "num_magnetic_sites": null,
  "num_unique_magnetic_sites": null,
  "types_of_magnetic_species": null,
  "bulk_modulus": null,
  "shear_modulus": null,
  "universal_anisotropy": null,
  "homogeneous_poisson": null,
  "e_total": null,
  "e_ionic": null,
  "e_electronic": null,
  "n": null,
  "e_ij_max": null,
  "weighted_surface_energy_EV_PER_ANG2": null,
  "weighted_surface_energy": null,
  "weighted_work_function": null,
  "surface_anisotropy": null,
  "shape_factor": null,
  "has_reconstructed": null,
  "possible_species": null,
  "has_props": null,
  "theoretical": null,
  "database_IDs": null,
  "fields_not_requested": [
    "builder_meta",
    "nsites",
    "elements",
    "nelements",
    "composition",
    "composition_reduced",
    "chemsys",
    "symmetry",
    "property_name",
    "deprecated",
    "deprecation_reasons",
    "last_updated",
    "origins",
    "warnings",
    "task_ids",
    "uncorrected_energy_per_atom",
    "equilibrium_reaction_energy_per_atom",
    "decomposes_to",
    "xas",
    "grain_boundaries",
    "cbm",
    "vbm",
    "is_gap_direct",
    "is_metal",
    "es_source_calc_id",
    "bandstructure",
    "dos",
    "dos_energy_up",
    "dos_energy_down",
    "is_magnetic",
    "ordering",
    "total_magnetization_normalized_vol",
    "total_magnetization_normalized_formula_units",
    "num_magnetic_sites",
    "num_unique_magnetic_sites",
    "types_of_magnetic_species",
    "bulk_modulus",
    "shear_modulus",
    "universal_anisotropy",
    "homogeneous_poisson",
    "e_total",
    "e_ionic",
    "e_electronic",
    "n",
    "e_ij_max",
    "weighted_surface_energy_EV_PER_ANG2",
    "weighted_surface_energy",
    "weighted_work_function",
    "surface_anisotropy",
    "shape_factor",
    "has_reconstructed",
    "possible_species",
    "has_props",
    "theoretical",
    "database_IDs"
  ]
}
