{"builder_meta": null, "nsites": null, "elements": null, "nelements": null, "composition": null, "composition_reduced": null, "formula_pretty": "ZnCo2", "formula_anonymous": "AB2", "chemsys": null, "volume": 35.49189300214985, "density": 8.574801716631919, "density_atomic": 11.830631000716616, "symmetry": null, "property_name": null, "material_id": "mp-1215431", "deprecated": null, "deprecation_reasons": null, "last_updated": null, "origins": null, "warnings": null, "structure": {"@module": "pymatgen.core.structure", "@class": "Structure", "charge": 0, "lattice": {"matrix": [[1.284772, -2.225291, 0.0], [1.284772, 2.225291, 0.0], [0.0, 0.0, 6.207065]], "pbc": [true, true, true], "a": 2.569544536812896, "b": 2.569544536812896, "c": 6.207065, "alpha": 90.0, "beta": 90.0, "gamma": 120.00001382161453, "volume": 35.49189300214985}, "properties": {}, "sites": [{"species": [{"element": "Zn", "occu": 1}], "abc": [0.0, 0.0, 0.0], "properties": {"magmom": -0.038}, "label": "Zn", "xyz": [0.0, 0.0, 0.0]}, {"species": [{"element": "Co", "occu": 1}], "abc": [0.333333, 0.666667, 0.653270999999999], "properties": {"magmom": 1.545}, "label": "Co", "xyz": [1.284772, 0.7417651501939999, 4.0548955596149945]}, {"species": [{"element": "Co", "occu": 1}], "abc": [0.666667, 0.333333, 0.346729], "properties": {"magmom": 1.545}, "label": "Co", "xyz": [1.284772, -0.7417651501939999, 2.1521694403850002]}]}, "task_ids": null, "uncorrected_energy_per_atom": null, "energy_per_atom": -11.756251440151516, "formation_energy_per_atom": 0.036770181515149006, "energy_above_hull": 0.058917223030301, "is_stable": false, "equilibrium_reaction_energy_per_atom": null, "decomposes_to": null, "xas": null, "grain_boundaries": null, "band_gap": 0.0, "cbm": null, "vbm": null, "efermi": 4.42040924, "is_gap_direct": null, "is_metal": null, "es_source_calc_id": null, "bandstructure": null, "dos": null, "dos_energy_up": null, "dos_energy_down": null, "is_magnetic": null, "ordering": null, "total_magnetization": 2.992656, "total_magnetization_normalized_vol": null, "total_magnetization_normalized_formula_units": null, "num_magnetic_sites": null, "num_unique_magnetic_sites": null, "types_of_magnetic_species": null, "bulk_modulus": null, "shear_modulus": null, "universal_anisotropy": null, "homogeneous_poisson": null, "e_total": null, "e_ionic": null, "e_electronic": null, "n": null, "e_ij_max": null, "weighted_surface_energy_EV_PER_ANG2": null, "weighted_surface_energy": null, "weighted_work_function": null, "surface_anisotropy": null, "shape_factor": null, "has_reconstructed": null, "possible_species": null, "has_props": null, "theoretical": null, "database_IDs": null, "fields_not_requested": ["builder_meta", "nsites", "elements", "nelements", "composition", "composition_reduced", "chemsys", "symmetry", "property_name", "deprecated", "deprecation_reasons", "last_updated", "origins", "warnings", "task_ids", "uncorrected_energy_per_atom", "equilibrium_reaction_energy_per_atom", "decomposes_to", "xas", "grain_boundaries", "cbm", "vbm", "is_gap_direct", "is_metal", "es_source_calc_id", "bandstructure", "dos", "dos_energy_up", "dos_energy_down", "is_magnetic", "ordering", "total_magnetization_normalized_vol", "total_magnetization_normalized_formula_units", "num_magnetic_sites", "num_unique_magnetic_sites", "types_of_magnetic_species", "bulk_modulus", "shear_modulus", "universal_anisotropy", "homogeneous_poisson", "e_total", "e_ionic", "e_electronic", "n", "e_ij_max", "weighted_surface_energy_EV_PER_ANG2", "weighted_surface_energy", "weighted_work_function", "surface_anisotropy", "shape_factor", "has_reconstructed", "possible_species", "has_props", "theoretical", "database_IDs"]}