{
  "builder_meta": null,
  "nsites": null,
  "elements": null,
  "nelements": null,
  "composition": null,
  "composition_reduced": null,
  "formula_pretty": "ZnCu2",
  "formula_anonymous": "AB2",
  "chemsys": null,
  "volume": 36.38652253418803,
  "density": 8.78499533884352,
  "density_atomic": 12.128840844729345,
  "symmetry": null,
  "property_name": null,
  "material_id": "mp-1215401",
  "deprecated": null,
  "deprecation_reasons": null,
  "last_updated": null,
  "origins": null,
  "warnings": null,
  "structure": {
    "@module": "pymatgen.core.structure",
    "@class": "Structure",
    "charge": 0,
    "lattice": {
      "matrix": [
        [1.29191279, -2.23765862, -0.0],
        [1.29191279, 2.23765862, 0.0],
        [-0.0, -0.0, 6.2933738]
      ],
      "pbc": [true, true, true],
      "a": 2.5838256049172297,
      "b": 2.5838256049172297,
      "c": 6.2933738,
      "alpha": 90.0,
      "beta": 90.0,
      "gamma": 120.00000063801157,
      "volume": 36.38652253418803
    },
    "properties": {},
    "sites": [
      {
        "species": [{ "element": "Zn", "occu": 1 }],
        "abc": [0.0, 0.0, 0.0],
        "properties": { "magmom": 0.0 },
        "label": "Zn",
        "xyz": [0.0, 0.0, 0.0]
      },
      {
        "species": [{ "element": "Cu", "occu": 1 }],
        "abc": [0.333333, 0.666667, 0.66214149],
        "properties": { "magmom": -0.0 },
        "label": "Cu",
        "xyz": [1.29191279, 0.7458876984390801, 4.167103905058962]
      },
      {
        "species": [{ "element": "Cu", "occu": 1 }],
        "abc": [0.666667, 0.333333, 0.33785851],
        "properties": { "magmom": -0.0 },
        "label": "Cu",
        "xyz": [1.29191279, -0.7458876984390801, 2.126269894941038]
      }
    ]
  },
  "task_ids": null,
  "uncorrected_energy_per_atom": null,
  "energy_per_atom": -3.185606863333332,
  "formation_energy_per_atom": -0.032887879999999,
  "energy_above_hull": 0.027615473333333,
  "is_stable": false,
  "equilibrium_reaction_energy_per_atom": null,
  "decomposes_to": null,
  "xas": null,
  "grain_boundaries": null,
  "band_gap": 0.0,
  "cbm": null,
  "vbm": null,
  "efermi": 5.7935998699999995,
  "is_gap_direct": null,
  "is_metal": null,
  "es_source_calc_id": null,
  "bandstructure": null,
  "dos": null,
  "dos_energy_up": null,
  "dos_energy_down": null,
  "is_magnetic": null,
  "ordering": null,
  "total_magnetization": 0.0,
  "total_magnetization_normalized_vol": null,
  "total_magnetization_normalized_formula_units": null,
  "num_magnetic_sites": null,
  "num_unique_magnetic_sites": null,
  "types_of_magnetic_species": null,
  "bulk_modulus": null,
  "shear_modulus": null,
  "universal_anisotropy": null,
  "homogeneous_poisson": null,
  "e_total": null,
  "e_ionic": null,
  "e_electronic": null,
  "n": null,
  "e_ij_max": null,
  "weighted_surface_energy_EV_PER_ANG2": null,
  "weighted_surface_energy": null,
  "weighted_work_function": null,
  "surface_anisotropy": null,
  "shape_factor": null,
  "has_reconstructed": null,
  "possible_species": null,
  "has_props": null,
  "theoretical": null,
  "database_IDs": null,
  "fields_not_requested": [
    "builder_meta",
    "nsites",
    "elements",
    "nelements",
    "composition",
    "composition_reduced",
    "chemsys",
    "symmetry",
    "property_name",
    "deprecated",
    "deprecation_reasons",
    "last_updated",
    "origins",
    "warnings",
    "task_ids",
    "uncorrected_energy_per_atom",
    "equilibrium_reaction_energy_per_atom",
    "decomposes_to",
    "xas",
    "grain_boundaries",
    "cbm",
    "vbm",
    "is_gap_direct",
    "is_metal",
    "es_source_calc_id",
    "bandstructure",
    "dos",
    "dos_energy_up",
    "dos_energy_down",
    "is_magnetic",
    "ordering",
    "total_magnetization_normalized_vol",
    "total_magnetization_normalized_formula_units",
    "num_magnetic_sites",
    "num_unique_magnetic_sites",
    "types_of_magnetic_species",
    "bulk_modulus",
    "shear_modulus",
    "universal_anisotropy",
    "homogeneous_poisson",
    "e_total",
    "e_ionic",
    "e_electronic",
    "n",
    "e_ij_max",
    "weighted_surface_energy_EV_PER_ANG2",
    "weighted_surface_energy",
    "weighted_work_function",
    "surface_anisotropy",
    "shape_factor",
    "has_reconstructed",
    "possible_species",
    "has_props",
    "theoretical",
    "database_IDs"
  ]
}
