{"builder_meta": null, "nsites": null, "elements": null, "nelements": null, "composition": null, "composition_reduced": null, "formula_pretty": "ZnCu3", "formula_anonymous": "AB3", "chemsys": null, "volume": 47.71557502785052, "density": 8.910634444572121, "density_atomic": 11.92889375696263, "symmetry": null, "property_name": null, "material_id": "mp-1215518", "deprecated": null, "deprecation_reasons": null, "last_updated": null, "origins": null, "warnings": null, "structure": {"@module": "pymatgen.core.structure", "@class": "Structure", "charge": 0, "lattice": {"matrix": [[1.28072965, -2.21828945, -0.0], [1.28072965, 2.21828945, -0.0], [0.0, 0.0, 8.39758655]], "pbc": [true, true, true], "a": 2.5614598416470296, "b": 2.5614598416470296, "c": 8.39758655, "alpha": 90.0, "beta": 90.0, "gamma": 120.00001399009939, "volume": 47.71557502785052}, "properties": {}, "sites": [{"species": [{"element": "Zn", "occu": 1}], "abc": [0.666667, 0.333333, -0.0], "properties": {"magmom": 0.0}, "label": "Zn", "xyz": [1.28072965, -0.7394312955263, 0.0]}, {"species": [{"element": "Cu", "occu": 1}], "abc": [0.666667, 0.333333, 0.5], "properties": {"magmom": -0.0}, "label": "Cu", "xyz": [1.28072965, -0.7394312955263, 4.198793275]}, {"species": [{"element": "Cu", "occu": 1}], "abc": [0.333333, 0.666667, 0.25407253], "properties": {"magmom": 0.0}, "label": "Cu", "xyz": [1.28072965, 0.7394312955263, 2.1335960606524718]}, {"species": [{"element": "Cu", "occu": 1}], "abc": [0.333333, 0.666667, 0.74592747], "properties": {"magmom": 0.0}, "label": "Cu", "xyz": [1.28072965, 0.7394312955263, 6.2639904893475284]}]}, "task_ids": null, "uncorrected_energy_per_atom": null, "energy_per_atom": -3.410768069999999, "formation_energy_per_atom": -0.021427164999999002, "energy_above_hull": 0.023950350000000002, "is_stable": false, "equilibrium_reaction_energy_per_atom": null, "decomposes_to": null, "xas": null, "grain_boundaries": null, "band_gap": 0.0, "cbm": null, "vbm": null, "efermi": 5.94580738, "is_gap_direct": null, "is_metal": null, "es_source_calc_id": null, "bandstructure": null, "dos": null, "dos_energy_up": null, "dos_energy_down": null, "is_magnetic": null, "ordering": null, "total_magnetization": 0.0, "total_magnetization_normalized_vol": null, "total_magnetization_normalized_formula_units": null, "num_magnetic_sites": null, "num_unique_magnetic_sites": null, "types_of_magnetic_species": null, "bulk_modulus": null, "shear_modulus": null, "universal_anisotropy": null, "homogeneous_poisson": null, "e_total": null, "e_ionic": null, "e_electronic": null, "n": null, "e_ij_max": null, "weighted_surface_energy_EV_PER_ANG2": null, "weighted_surface_energy": null, "weighted_work_function": null, "surface_anisotropy": null, "shape_factor": null, "has_reconstructed": null, "possible_species": null, "has_props": null, "theoretical": null, "database_IDs": null, "fields_not_requested": ["builder_meta", "nsites", "elements", "nelements", "composition", "composition_reduced", "chemsys", "symmetry", "property_name", "deprecated", "deprecation_reasons", "last_updated", "origins", "warnings", "task_ids", "uncorrected_energy_per_atom", "equilibrium_reaction_energy_per_atom", "decomposes_to", "xas", "grain_boundaries", "cbm", "vbm", "is_gap_direct", "is_metal", "es_source_calc_id", "bandstructure", "dos", "dos_energy_up", "dos_energy_down", "is_magnetic", "ordering", "total_magnetization_normalized_vol", "total_magnetization_normalized_formula_units", "num_magnetic_sites", "num_unique_magnetic_sites", "types_of_magnetic_species", "bulk_modulus", "shear_modulus", "universal_anisotropy", "homogeneous_poisson", "e_total", "e_ionic", "e_electronic", "n", "e_ij_max", "weighted_surface_energy_EV_PER_ANG2", "weighted_surface_energy", "weighted_work_function", "surface_anisotropy", "shape_factor", "has_reconstructed", "possible_species", "has_props", "theoretical", "database_IDs"]}