{"builder_meta": null, "nsites": null, "elements": null, "nelements": null, "composition": null, "composition_reduced": null, "formula_pretty": "ZnFe3", "formula_anonymous": "AB3", "chemsys": null, "volume": 48.51882375610379, "density": 7.9724235334828855, "density_atomic": 12.129705939025948, "symmetry": null, "property_name": null, "material_id": "mp-1215526", "deprecated": null, "deprecation_reasons": null, "last_updated": null, "origins": null, "warnings": null, "structure": {"@module": "pymatgen.core.structure", "@class": "Structure", "charge": 0, "lattice": {"matrix": [[-1.474543, -1.424814, 1.424814], [-1.474543, 1.424814, -1.424814], [0.0, -5.77344, -5.77344]], "pbc": [true, true, true], "a": 2.4968914529953037, "b": 2.4968914529953037, "c": 8.164877149547321, "alpha": 90.0, "beta": 90.0, "gamma": 107.60769142397079, "volume": 48.51882375610379}, "properties": {}, "sites": [{"species": [{"element": "Zn", "occu": 1}], "abc": [0.0, 0.0, 0.0], "properties": {"magmom": -0.075}, "label": "Zn", "xyz": [0.0, 0.0, 0.0]}, {"species": [{"element": "Fe", "occu": 1}], "abc": [0.5, 0.5, 0.257286], "properties": {"magmom": 2.295}, "label": "Fe", "xyz": [-1.474543, -1.4854252838400002, -1.4854252838400002]}, {"species": [{"element": "Fe", "occu": 1}], "abc": [0.0, 0.0, 0.5], "properties": {"magmom": 2.368}, "label": "Fe", "xyz": [0.0, -2.88672, -2.88672]}, {"species": [{"element": "Fe", "occu": 1}], "abc": [0.5, 0.5, 0.742714], "properties": {"magmom": 2.295}, "label": "Fe", "xyz": [-1.474543, -4.28801471616, -4.28801471616]}]}, "task_ids": null, "uncorrected_energy_per_atom": null, "energy_per_atom": -6.6474762725000005, "formation_energy_per_atom": 0.019975537500001, "energy_above_hull": 0.035585627916666, "is_stable": false, "equilibrium_reaction_energy_per_atom": null, "decomposes_to": null, "xas": null, "grain_boundaries": null, "band_gap": 0.0, "cbm": null, "vbm": null, "efermi": 4.64753828, "is_gap_direct": null, "is_metal": null, "es_source_calc_id": null, "bandstructure": null, "dos": null, "dos_energy_up": null, "dos_energy_down": null, "is_magnetic": null, "ordering": null, "total_magnetization": 6.7857989, "total_magnetization_normalized_vol": null, "total_magnetization_normalized_formula_units": null, "num_magnetic_sites": null, "num_unique_magnetic_sites": null, "types_of_magnetic_species": null, "bulk_modulus": null, "shear_modulus": null, "universal_anisotropy": null, "homogeneous_poisson": null, "e_total": null, "e_ionic": null, "e_electronic": null, "n": null, "e_ij_max": null, "weighted_surface_energy_EV_PER_ANG2": null, "weighted_surface_energy": null, "weighted_work_function": null, "surface_anisotropy": null, "shape_factor": null, "has_reconstructed": null, "possible_species": null, "has_props": null, "theoretical": null, "database_IDs": null, "fields_not_requested": ["builder_meta", "nsites", "elements", "nelements", "composition", "composition_reduced", "chemsys", "symmetry", "property_name", "deprecated", "deprecation_reasons", "last_updated", "origins", "warnings", "task_ids", "uncorrected_energy_per_atom", "equilibrium_reaction_energy_per_atom", "decomposes_to", "xas", "grain_boundaries", "cbm", "vbm", "is_gap_direct", "is_metal", "es_source_calc_id", "bandstructure", "dos", "dos_energy_up", "dos_energy_down", "is_magnetic", "ordering", "total_magnetization_normalized_vol", "total_magnetization_normalized_formula_units", "num_magnetic_sites", "num_unique_magnetic_sites", "types_of_magnetic_species", "bulk_modulus", "shear_modulus", "universal_anisotropy", "homogeneous_poisson", "e_total", "e_ionic", "e_electronic", "n", "e_ij_max", "weighted_surface_energy_EV_PER_ANG2", "weighted_surface_energy", "weighted_work_function", "surface_anisotropy", "shape_factor", "has_reconstructed", "possible_species", "has_props", "theoretical", "database_IDs"]}