{
  "builder_meta": null,
  "nsites": null,
  "elements": null,
  "nelements": null,
  "composition": null,
  "composition_reduced": null,
  "formula_pretty": "ZnGe",
  "formula_anonymous": "AB",
  "chemsys": null,
  "volume": 383.8995066797481,
  "density": 4.776995096194144,
  "density_atomic": 23.993719167484254,
  "symmetry": null,
  "property_name": null,
  "material_id": "mp-1207544",
  "deprecated": null,
  "deprecation_reasons": null,
  "last_updated": null,
  "origins": null,
  "warnings": null,
  "structure": {
    "@module": "pymatgen.core.structure",
    "@class": "Structure",
    "charge": 0,
    "lattice": {
      "matrix": [
        [0.0, -4.301214, 0.0],
        [-8.122301, 0.0, 0.0],
        [0.0, 0.0, -10.988728]
      ],
      "pbc": [true, true, true],
      "a": 4.301214,
      "b": 8.122301,
      "c": 10.988728,
      "alpha": 90.0,
      "beta": 90.0,
      "gamma": 90.0,
      "volume": 383.8995066797481
    },
    "properties": {},
    "sites": [
      {
        "species": [{ "element": "Zn", "occu": 1 }],
        "abc": [0.493177, 0.988472999999999, 0.882405999999999],
        "properties": { "magmom": -0.0 },
        "label": "Zn",
        "xyz": [-8.028675236372992, -2.1212598168779997, -9.696519519567989]
      },
      {
        "species": [{ "element": "Zn", "occu": 1 }],
        "abc": [0.506823, 0.011526999999999002, 0.382405999999999],
        "properties": { "magmom": -0.0 },
        "label": "Zn",
        "xyz": [-0.09362576362699189, -2.179954183122, -4.202155519567989]
      },
      {
        "species": [{ "element": "Zn", "occu": 1 }],
        "abc": [0.506823, 0.488473, 0.882405999999999],
        "properties": { "magmom": -0.0 },
        "label": "Zn",
        "xyz": [-3.967524736373, -2.179954183122, -9.696519519567989]
      },
      {
        "species": [{ "element": "Zn", "occu": 1 }],
        "abc": [0.493177, 0.511527, 0.382405999999999],
        "properties": { "magmom": -0.0 },
        "label": "Zn",
        "xyz": [-4.154776263626999, -2.1212598168779997, -4.202155519567989]
      },
      {
        "species": [{ "element": "Zn", "occu": 1 }],
        "abc": [0.967808, 0.761809, 0.63285],
        "properties": { "magmom": -0.0 },
        "label": "Zn",
        "xyz": [-6.1876420025089995, -4.162749318912, -6.954216514800001]
      },
      {
        "species": [{ "element": "Zn", "occu": 1 }],
        "abc": [0.032192, 0.23819099999999901, 0.13285000000000002],
        "properties": { "magmom": -0.0 },
        "label": "Zn",
        "xyz": [-1.934658997490992, -0.138464681088, -1.4598525148000003]
      },
      {
        "species": [{ "element": "Zn", "occu": 1 }],
        "abc": [0.032192, 0.261809, 0.63285],
        "properties": { "magmom": -0.0 },
        "label": "Zn",
        "xyz": [-2.1264915025090003, -0.138464681088, -6.954216514800001]
      },
      {
        "species": [{ "element": "Zn", "occu": 1 }],
        "abc": [0.967808, 0.738190999999999, 0.13285000000000002],
        "properties": { "magmom": -0.0 },
        "label": "Zn",
        "xyz": [-5.995809497490993, -4.162749318912, -1.4598525148000003]
      },
      {
        "species": [{ "element": "Ge", "occu": 1 }],
        "abc": [0.988707, 0.9900779999999991, 0.9993700000000001],
        "properties": { "magmom": -0.001 },
        "label": "Ge",
        "xyz": [-8.041711529477993, -4.252640390298, -10.98180510136]
      },
      {
        "species": [{ "element": "Ge", "occu": 1 }],
        "abc": [0.011293, 0.009922, 0.49937000000000004],
        "properties": { "magmom": -0.001 },
        "label": "Ge",
        "xyz": [-0.08058947052200001, -0.048573609702, -5.487441101360001]
      },
      {
        "species": [{ "element": "Ge", "occu": 1 }],
        "abc": [0.011293, 0.490077999999999, 0.9993700000000001],
        "properties": { "magmom": -0.001 },
        "label": "Ge",
        "xyz": [-3.9805610294779923, -0.048573609702, -10.98180510136]
      },
      {
        "species": [{ "element": "Ge", "occu": 1 }],
        "abc": [0.988707, 0.509922, 0.49937000000000004],
        "properties": { "magmom": -0.001 },
        "label": "Ge",
        "xyz": [-4.141739970522, -4.252640390298, -5.487441101360001]
      },
      {
        "species": [{ "element": "Ge", "occu": 1 }],
        "abc": [0.463506, 0.737032999999999, 0.751675],
        "properties": { "magmom": 0.0 },
        "label": "Ge",
        "xyz": [-5.986403872932993, -1.993638496284, -8.2599521194]
      },
      {
        "species": [{ "element": "Ge", "occu": 1 }],
        "abc": [0.536494, 0.262967, 0.251675],
        "properties": { "magmom": 0.0 },
        "label": "Ge",
        "xyz": [-2.135897127067, -2.307575503716, -2.7655881194]
      },
      {
        "species": [{ "element": "Ge", "occu": 1 }],
        "abc": [0.536494, 0.237033, 0.751675],
        "properties": { "magmom": 0.0 },
        "label": "Ge",
        "xyz": [-1.925253372933, -2.307575503716, -8.2599521194]
      },
      {
        "species": [{ "element": "Ge", "occu": 1 }],
        "abc": [0.463506, 0.762967, 0.251675],
        "properties": { "magmom": 0.0 },
        "label": "Ge",
        "xyz": [-6.197047627067, -1.993638496284, -2.7655881194]
      }
    ]
  },
  "task_ids": null,
  "uncorrected_energy_per_atom": null,
  "energy_per_atom": -10.945045281875,
  "formation_energy_per_atom": 0.44624481062500004,
  "energy_above_hull": 0.44624481062500004,
  "is_stable": false,
  "equilibrium_reaction_energy_per_atom": null,
  "decomposes_to": null,
  "xas": null,
  "grain_boundaries": null,
  "band_gap": 0.0,
  "cbm": null,
  "vbm": null,
  "efermi": 0.90370021,
  "is_gap_direct": null,
  "is_metal": null,
  "es_source_calc_id": null,
  "bandstructure": null,
  "dos": null,
  "dos_energy_up": null,
  "dos_energy_down": null,
  "is_magnetic": null,
  "ordering": null,
  "total_magnetization": 0.0014034,
  "total_magnetization_normalized_vol": null,
  "total_magnetization_normalized_formula_units": null,
  "num_magnetic_sites": null,
  "num_unique_magnetic_sites": null,
  "types_of_magnetic_species": null,
  "bulk_modulus": null,
  "shear_modulus": null,
  "universal_anisotropy": null,
  "homogeneous_poisson": null,
  "e_total": null,
  "e_ionic": null,
  "e_electronic": null,
  "n": null,
  "e_ij_max": null,
  "weighted_surface_energy_EV_PER_ANG2": null,
  "weighted_surface_energy": null,
  "weighted_work_function": null,
  "surface_anisotropy": null,
  "shape_factor": null,
  "has_reconstructed": null,
  "possible_species": null,
  "has_props": null,
  "theoretical": null,
  "database_IDs": null,
  "fields_not_requested": [
    "builder_meta",
    "nsites",
    "elements",
    "nelements",
    "composition",
    "composition_reduced",
    "chemsys",
    "symmetry",
    "property_name",
    "deprecated",
    "deprecation_reasons",
    "last_updated",
    "origins",
    "warnings",
    "task_ids",
    "uncorrected_energy_per_atom",
    "equilibrium_reaction_energy_per_atom",
    "decomposes_to",
    "xas",
    "grain_boundaries",
    "cbm",
    "vbm",
    "is_gap_direct",
    "is_metal",
    "es_source_calc_id",
    "bandstructure",
    "dos",
    "dos_energy_up",
    "dos_energy_down",
    "is_magnetic",
    "ordering",
    "total_magnetization_normalized_vol",
    "total_magnetization_normalized_formula_units",
    "num_magnetic_sites",
    "num_unique_magnetic_sites",
    "types_of_magnetic_species",
    "bulk_modulus",
    "shear_modulus",
    "universal_anisotropy",
    "homogeneous_poisson",
    "e_total",
    "e_ionic",
    "e_electronic",
    "n",
    "e_ij_max",
    "weighted_surface_energy_EV_PER_ANG2",
    "weighted_surface_energy",
    "weighted_work_function",
    "surface_anisotropy",
    "shape_factor",
    "has_reconstructed",
    "possible_species",
    "has_props",
    "theoretical",
    "database_IDs"
  ]
}
