{
  "builder_meta": null,
  "nsites": null,
  "elements": null,
  "nelements": null,
  "composition": null,
  "composition_reduced": null,
  "formula_pretty": "ZnH6",
  "formula_anonymous": "AB6",
  "chemsys": null,
  "volume": 559.5468083758631,
  "density": 0.848233180937151,
  "density_atomic": 19.98381458485225,
  "symmetry": null,
  "property_name": null,
  "material_id": "mp-1207466",
  "deprecated": null,
  "deprecation_reasons": null,
  "last_updated": null,
  "origins": null,
  "warnings": null,
  "structure": {
    "@module": "pymatgen.core.structure",
    "@class": "Structure",
    "charge": 0,
    "lattice": {
      "matrix": [
        [5.759033, 0.0, 0.0],
        [0.0, 8.197014, 0.0],
        [0.0, 0.0, 11.853079]
      ],
      "pbc": [true, true, true],
      "a": 5.759033,
      "b": 8.197014,
      "c": 11.853079,
      "alpha": 90.0,
      "beta": 90.0,
      "gamma": 90.0,
      "volume": 559.5468083758631
    },
    "properties": {},
    "sites": [
      {
        "species": [{ "element": "Zn", "occu": 1 }],
        "abc": [0.138005, 0.249271, 0.149875999999999],
        "properties": { "magmom": -0.0 },
        "label": "Zn",
        "xyz": [0.7947753491649999, 2.043277876794, 1.7764920682039882]
      },
      {
        "species": [{ "element": "Zn", "occu": 1 }],
        "abc": [0.861995, 0.749271, 0.850124],
        "properties": { "magmom": -0.0 },
        "label": "Zn",
        "xyz": [4.964257650834999, 6.1417848767939995, 10.076586931796]
      },
      {
        "species": [{ "element": "Zn", "occu": 1 }],
        "abc": [0.861995, 0.249271, 0.649876],
        "properties": { "magmom": -0.0 },
        "label": "Zn",
        "xyz": [4.964257650834999, 2.043277876794, 7.703031568204]
      },
      {
        "species": [{ "element": "Zn", "occu": 1 }],
        "abc": [0.138005, 0.749271, 0.350124],
        "properties": { "magmom": -0.0 },
        "label": "Zn",
        "xyz": [0.7947753491649999, 6.1417848767939995, 4.150047431796]
      },
      {
        "species": [{ "element": "H", "occu": 1 }],
        "abc": [0.173615, 0.409715999999999, 0.085261999999999],
        "properties": { "magmom": 0.0 },
        "label": "H",
        "xyz": [0.9998545142949999, 3.358447788023992, 1.010617221697988]
      },
      {
        "species": [{ "element": "H", "occu": 1 }],
        "abc": [0.826384999999999, 0.909716, 0.914737999999999],
        "properties": { "magmom": 0.0 },
        "label": "H",
        "xyz": [4.759178485704994, 7.4569547880239995, 10.842461778301988]
      },
      {
        "species": [{ "element": "H", "occu": 1 }],
        "abc": [0.826384999999999, 0.409715999999999, 0.585262],
        "properties": { "magmom": 0.0 },
        "label": "H",
        "xyz": [4.759178485704994, 3.358447788023992, 6.937156721697999]
      },
      {
        "species": [{ "element": "H", "occu": 1 }],
        "abc": [0.173615, 0.909716, 0.414738],
        "properties": { "magmom": 0.0 },
        "label": "H",
        "xyz": [0.9998545142949999, 7.4569547880239995, 4.915922278301999]
      },
      {
        "species": [{ "element": "H", "occu": 1 }],
        "abc": [0.563531999999999, 0.253426, 0.125255],
        "properties": { "magmom": -0.0 },
        "label": "H",
        "xyz": [3.245399384555994, 2.0773364699639996, 1.484657410145]
      },
      {
        "species": [{ "element": "H", "occu": 1 }],
        "abc": [0.436467999999999, 0.753425999999999, 0.874745],
        "properties": { "magmom": -0.0 },
        "label": "H",
        "xyz": [2.513633615443994, 6.175843469963992, 10.368421589855]
      },
      {
        "species": [{ "element": "H", "occu": 1 }],
        "abc": [0.436467999999999, 0.253426, 0.625255],
        "properties": { "magmom": -0.0 },
        "label": "H",
        "xyz": [2.513633615443994, 2.0773364699639996, 7.411196910145]
      },
      {
        "species": [{ "element": "H", "occu": 1 }],
        "abc": [0.563531999999999, 0.753425999999999, 0.374745],
        "properties": { "magmom": -0.0 },
        "label": "H",
        "xyz": [3.245399384555994, 6.175843469963992, 4.4418820898549995]
      },
      {
        "species": [{ "element": "H", "occu": 1 }],
        "abc": [0.097551, 0.089476, 0.215133],
        "properties": { "magmom": -0.0 },
        "label": "H",
        "xyz": [0.561799428183, 0.7334360246639999, 2.5499884445069996]
      },
      {
        "species": [{ "element": "H", "occu": 1 }],
        "abc": [0.902449, 0.589476, 0.784867],
        "properties": { "magmom": -0.0 },
        "label": "H",
        "xyz": [5.197233571817, 4.831943024664, 9.303090555492998]
      },
      {
        "species": [{ "element": "H", "occu": 1 }],
        "abc": [0.902449, 0.089476, 0.715133],
        "properties": { "magmom": -0.0 },
        "label": "H",
        "xyz": [5.197233571817, 0.7334360246639999, 8.476527944507]
      },
      {
        "species": [{ "element": "H", "occu": 1 }],
        "abc": [0.097551, 0.589476, 0.284867],
        "properties": { "magmom": -0.0 },
        "label": "H",
        "xyz": [0.561799428183, 4.831943024664, 3.3765510554929996]
      },
      {
        "species": [{ "element": "H", "occu": 1 }],
        "abc": [0.7438600000000001, 0.100900999999999, 0.451457],
        "properties": { "magmom": 0.0 },
        "label": "H",
        "xyz": [4.28391428738, 0.8270869096139918, 5.351155486103]
      },
      {
        "species": [{ "element": "H", "occu": 1 }],
        "abc": [0.25614000000000003, 0.600901, 0.548543],
        "properties": { "magmom": 0.0 },
        "label": "H",
        "xyz": [1.47511871262, 4.925593909613999, 6.501923513896999]
      },
      {
        "species": [{ "element": "H", "occu": 1 }],
        "abc": [0.25614000000000003, 0.100900999999999, 0.951457],
        "properties": { "magmom": 0.0 },
        "label": "H",
        "xyz": [1.47511871262, 0.8270869096139918, 11.277694986102999]
      },
      {
        "species": [{ "element": "H", "occu": 1 }],
        "abc": [0.7438600000000001, 0.600901, 0.048542999999999004],
        "properties": { "magmom": 0.0 },
        "label": "H",
        "xyz": [4.28391428738, 4.925593909613999, 0.5753840138969881]
      },
      {
        "species": [{ "element": "H", "occu": 1 }],
        "abc": [0.170406, 0.05127, 0.985914],
        "properties": { "magmom": 0.0 },
        "label": "H",
        "xyz": [0.9813737773979999, 0.42026090777999997, 11.686116529205998]
      },
      {
        "species": [{ "element": "H", "occu": 1 }],
        "abc": [0.829593999999999, 0.55127, 0.014086],
        "properties": { "magmom": 0.0 },
        "label": "H",
        "xyz": [4.7776592226019945, 4.51876790778, 0.16696247079399998]
      },
      {
        "species": [{ "element": "H", "occu": 1 }],
        "abc": [0.829593999999999, 0.05127, 0.485913999999999],
        "properties": { "magmom": 0.0 },
        "label": "H",
        "xyz": [4.7776592226019945, 0.42026090777999997, 5.759577029205988]
      },
      {
        "species": [{ "element": "H", "occu": 1 }],
        "abc": [0.170406, 0.55127, 0.514085999999999],
        "properties": { "magmom": 0.0 },
        "label": "H",
        "xyz": [0.9813737773979999, 4.51876790778, 6.093501970793988]
      },
      {
        "species": [{ "element": "H", "occu": 1 }],
        "abc": [0.594036, 0.180939, 0.161951999999999],
        "properties": { "magmom": -0.0 },
        "label": "H",
        "xyz": [3.421072927188, 1.4831595161459998, 1.9196298502079883]
      },
      {
        "species": [{ "element": "H", "occu": 1 }],
        "abc": [0.405964, 0.680939, 0.838048],
        "properties": { "magmom": -0.0 },
        "label": "H",
        "xyz": [2.337960072812, 5.581666516145999, 9.933449149791999]
      },
      {
        "species": [{ "element": "H", "occu": 1 }],
        "abc": [0.405964, 0.180939, 0.661952],
        "properties": { "magmom": -0.0 },
        "label": "H",
        "xyz": [2.337960072812, 1.4831595161459998, 7.846169350207999]
      },
      {
        "species": [{ "element": "H", "occu": 1 }],
        "abc": [0.594036, 0.680939, 0.338047999999999],
        "properties": { "magmom": -0.0 },
        "label": "H",
        "xyz": [3.421072927188, 5.581666516145999, 4.0069096497919885]
      }
    ]
  },
  "task_ids": null,
  "uncorrected_energy_per_atom": null,
  "energy_per_atom": -4.052090650357143,
  "formation_energy_per_atom": 0.182377494285713,
  "energy_above_hull": 0.182377494285714,
  "is_stable": false,
  "equilibrium_reaction_energy_per_atom": null,
  "decomposes_to": null,
  "xas": null,
  "grain_boundaries": null,
  "band_gap": 4.6204,
  "cbm": null,
  "vbm": null,
  "efermi": -4.90181768,
  "is_gap_direct": null,
  "is_metal": null,
  "es_source_calc_id": null,
  "bandstructure": null,
  "dos": null,
  "dos_energy_up": null,
  "dos_energy_down": null,
  "is_magnetic": null,
  "ordering": null,
  "total_magnetization": 0.0006634999999990001,
  "total_magnetization_normalized_vol": null,
  "total_magnetization_normalized_formula_units": null,
  "num_magnetic_sites": null,
  "num_unique_magnetic_sites": null,
  "types_of_magnetic_species": null,
  "bulk_modulus": null,
  "shear_modulus": null,
  "universal_anisotropy": null,
  "homogeneous_poisson": null,
  "e_total": null,
  "e_ionic": null,
  "e_electronic": null,
  "n": null,
  "e_ij_max": null,
  "weighted_surface_energy_EV_PER_ANG2": null,
  "weighted_surface_energy": null,
  "weighted_work_function": null,
  "surface_anisotropy": null,
  "shape_factor": null,
  "has_reconstructed": null,
  "possible_species": null,
  "has_props": null,
  "theoretical": null,
  "database_IDs": null,
  "fields_not_requested": [
    "builder_meta",
    "nsites",
    "elements",
    "nelements",
    "composition",
    "composition_reduced",
    "chemsys",
    "symmetry",
    "property_name",
    "deprecated",
    "deprecation_reasons",
    "last_updated",
    "origins",
    "warnings",
    "task_ids",
    "uncorrected_energy_per_atom",
    "equilibrium_reaction_energy_per_atom",
    "decomposes_to",
    "xas",
    "grain_boundaries",
    "cbm",
    "vbm",
    "is_gap_direct",
    "is_metal",
    "es_source_calc_id",
    "bandstructure",
    "dos",
    "dos_energy_up",
    "dos_energy_down",
    "is_magnetic",
    "ordering",
    "total_magnetization_normalized_vol",
    "total_magnetization_normalized_formula_units",
    "num_magnetic_sites",
    "num_unique_magnetic_sites",
    "types_of_magnetic_species",
    "bulk_modulus",
    "shear_modulus",
    "universal_anisotropy",
    "homogeneous_poisson",
    "e_total",
    "e_ionic",
    "e_electronic",
    "n",
    "e_ij_max",
    "weighted_surface_energy_EV_PER_ANG2",
    "weighted_surface_energy",
    "weighted_work_function",
    "surface_anisotropy",
    "shape_factor",
    "has_reconstructed",
    "possible_species",
    "has_props",
    "theoretical",
    "database_IDs"
  ]
}
