{
  "builder_meta": null,
  "nsites": null,
  "elements": null,
  "nelements": null,
  "composition": null,
  "composition_reduced": null,
  "formula_pretty": "ZnI2",
  "formula_anonymous": "AB2",
  "chemsys": null,
  "volume": 1937.107531351394,
  "density": 4.378271017384577,
  "density_atomic": 40.356406903154046,
  "symmetry": null,
  "property_name": null,
  "material_id": "mp-27161",
  "deprecated": null,
  "deprecation_reasons": null,
  "last_updated": null,
  "origins": null,
  "warnings": null,
  "structure": {
    "@module": "pymatgen.core.structure",
    "@class": "Structure",
    "charge": 0,
    "lattice": {
      "matrix": [
        [11.79097759, -0.00546882, -5.43570118],
        [-2.52200569, 11.51715143, -5.43594403],
        [-0.35565516, -0.44201021, 14.68334707]
      ],
      "pbc": [true, true, true],
      "a": 12.983606192199755,
      "b": 12.982864755485826,
      "c": 14.694303140899757,
      "alpha": 116.12761622800355,
      "beta": 116.12393913678216,
      "gamma": 90.08556430578105,
      "volume": 1937.1075313513943
    },
    "properties": {},
    "sites": [
      {
        "species": [{ "element": "Zn", "occu": 1 }],
        "abc": [0.3144026, 0.7869206, 0.87753358],
        "properties": { "magmom": 0.0 },
        "label": "Zn",
        "xyz": [1.4103964342592474, 8.673485500381675, 6.898475199250525]
      },
      {
        "species": [{ "element": "Zn", "occu": 1 }],
        "abc": [0.90930923, 0.93658213, 0.62258139],
        "properties": { "magmom": -0.0 },
        "label": "Zn",
        "xyz": [8.138155008424363, 10.506598038402744, -0.8923626639810482]
      },
      {
        "species": [{ "element": "Zn", "occu": 1 }],
        "abc": [0.71308404, 0.18570334, 0.62258292],
        "properties": { "magmom": 0.0 },
        "label": "Zn",
        "xyz": [7.718188227268792, 1.8596857523655304, 4.256016374122817]
      },
      {
        "species": [{ "element": "Zn", "occu": 1 }],
        "abc": [0.93640793, 0.71292933, 0.12265387],
        "properties": { "magmom": 0.0 },
        "label": "Zn",
        "xyz": [9.199530609140934, 8.151579743246687, -7.164508282599097]
      },
      {
        "species": [{ "element": "Zn", "occu": 1 }],
        "abc": [0.18574656, 0.909322, 0.12223682],
        "properties": { "magmom": 0.0 },
        "label": "Zn",
        "xyz": [-0.14665588743758057, 10.417753435650267, -4.157840639827484]
      },
      {
        "species": [{ "element": "Zn", "occu": 1 }],
        "abc": [0.5907286900000001, 0.31431592, 0.37783342000000003],
        "properties": { "magmom": 0.0 },
        "label": "Zn",
        "xyz": [6.038183801419025, 3.449787229306102, 0.6282308543542676]
      },
      {
        "species": [{ "element": "Zn", "occu": 1 }],
        "abc": [0.78703039, 0.56363288, 0.37728726],
        "properties": { "magmom": 0.0 },
        "label": "Zn",
        "xyz": [7.724188199886612, 6.320376281326654, -1.8020990250972373]
      },
      {
        "species": [{ "element": "Zn", "occu": 1 }],
        "abc": [0.56350206, 0.59073541, 0.87730094],
        "properties": { "magmom": -0.0 },
        "label": "Zn",
        "xyz": [4.842385489890503, 6.41273150797477, 6.607480749083713]
      },
      {
        "species": [{ "element": "Zn", "occu": 1 }],
        "abc": [0.685605399999999, 0.21314821, 0.12242358],
        "properties": { "magmom": 0.0 },
        "label": "Zn",
        "xyz": [7.502856330616988, 2.396998286775061, -3.087819906757143]
      },
      {
        "species": [{ "element": "Zn", "occu": 1 }],
        "abc": [0.09071389, 0.06347116, 0.37733171],
        "properties": { "magmom": 0.0 },
        "label": "Zn",
        "xyz": [0.7753308477277013, 0.5637263948450899, 4.702373186252025]
      },
      {
        "species": [{ "element": "Zn", "occu": 1 }],
        "abc": [0.28692387, 0.81431034, 0.37747712],
        "properties": { "magmom": 0.0 },
        "label": "Zn",
        "xyz": [1.1951659247903, 9.210117620714657, -0.44355028607539815]
      },
      {
        "species": [{ "element": "Zn", "occu": 1 }],
        "abc": [0.06359518, 0.28695142, 0.87736492],
        "properties": { "magmom": -0.0 },
        "label": "Zn",
        "xyz": [-0.2858831327825508, 2.9167109140654097, 10.977117373985449]
      },
      {
        "species": [{ "element": "Zn", "occu": 1 }],
        "abc": [0.81433961, 0.09068894, 0.8777866200000001],
        "properties": { "magmom": -0.0 },
        "label": "Zn",
        "xyz": [9.060952728677313, 0.6520341300188337, 7.969358813884436]
      },
      {
        "species": [{ "element": "Zn", "occu": 1 }],
        "abc": [0.4092009, 0.68565183, 0.62205848],
        "properties": { "magmom": -0.0 },
        "label": "Zn",
        "xyz": [2.874422516855162, 7.619561908923598, 3.182441772742516]
      },
      {
        "species": [{ "element": "Zn", "occu": 1 }],
        "abc": [0.21292952, 0.436367399999999, 0.62265619],
        "properties": { "magmom": 0.0 },
        "label": "Zn",
        "xyz": [1.188675245959513, 4.749324558398104, 5.613186937016414]
      },
      {
        "species": [{ "element": "Zn", "occu": 1 }],
        "abc": [0.43651857, 0.40926448, 0.12265779],
        "properties": { "magmom": -0.0 },
        "label": "Zn",
        "xyz": [4.071189453286259, 4.656957754078183, -2.796496411378792]
      },
      {
        "species": [{ "element": "I", "occu": 1 }],
        "abc": [0.1516197, 0.10995132, 0.24959536000000002],
        "properties": { "magmom": 0.0 },
        "label": "I",
        "xyz": [1.4216767525434544, 1.155173124032008, 2.24304669419573]
      },
      {
        "species": [{ "element": "I", "occu": 1 }],
        "abc": [0.64010646, 0.15124734, 0.75027457],
        "properties": { "magmom": -0.0 },
        "label": "I",
        "xyz": [6.899195250759586, 1.4068088709107593, 6.714942394231007]
      },
      {
        "species": [{ "element": "I", "occu": 1 }],
        "abc": [0.10978155, 0.09866032, 0.74951038],
        "properties": { "magmom": 0.0 },
        "label": "I",
        "xyz": [0.7790426733076831, 0.8043942295750068, 9.872269363728469]
      },
      {
        "species": [{ "element": "I", "occu": 1 }],
        "abc": [0.40136651, 0.39025702, 0.75048322],
        "properties": { "magmom": 0.0 },
        "label": "I",
        "xyz": [3.4813598700976525, 4.1607329490896445, 6.716481859417094]
      },
      {
        "species": [{ "element": "I", "occu": 1 }],
        "abc": [0.34882147, 0.859918699999999, 0.74979878],
        "properties": { "magmom": 0.0 },
        "label": "I",
        "xyz": [1.6775564762747521, 9.570487527351622, 4.438996519763884]
      },
      {
        "species": [{ "element": "I", "occu": 1 }],
        "abc": [0.85965697, 0.40166419000000003, 0.2494691],
        "properties": { "magmom": -0.0 },
        "label": "I",
        "xyz": [9.034471723032505, 4.511058101728106, -3.193221083378973]
      },
      {
        "species": [{ "element": "I", "occu": 1 }],
        "abc": [0.39009626000000003, 0.34838425, 0.25045936],
        "properties": { "magmom": 0.0 },
        "label": "I",
        "xyz": [3.631912035042134, 3.8995552025382985, -0.3366622749190391]
      },
      {
        "species": [{ "element": "I", "occu": 1 }],
        "abc": [0.09837512, 0.64034522, 0.25053002],
        "properties": { "magmom": -0.0 },
        "label": "I",
        "xyz": [-0.544117747418644, 7.263678043641403, -0.33699929655063654]
      },
      {
        "species": [{ "element": "I", "occu": 1 }],
        "abc": [0.84829863, 0.89000813, 0.75023618],
        "properties": { "magmom": 0.0 },
        "label": "I",
        "xyz": [7.490839199315754, 9.914107163156013, 1.566845970402646]
      },
      {
        "species": [{ "element": "I", "occu": 1 }],
        "abc": [0.3599185, 0.84880389, 0.24976302],
        "properties": { "magmom": 0.0 },
        "label": "I",
        "xyz": [2.014273220612098, 9.663436801091457, -2.9031027457287544]
      },
      {
        "species": [{ "element": "I", "occu": 1 }],
        "abc": [0.89024139, 0.9013648400000001, 0.25045771],
        "properties": { "magmom": 0.0 },
        "label": "I",
        "xyz": [8.134492447011228, 10.265581921046044, -6.061297512670334]
      },
      {
        "species": [{ "element": "I", "occu": 1 }],
        "abc": [0.5986284, 0.60973113, 0.24946094],
        "properties": { "magmom": 0.0 },
        "label": "I",
        "xyz": [5.431946599377976, 6.908827682352332, -2.9055078338617197]
      },
      {
        "species": [{ "element": "I", "occu": 1 }],
        "abc": [0.65121499, 0.14010479, 0.25016588],
        "properties": { "magmom": 0.0 },
        "label": "I",
        "xyz": [7.23614348970788, 1.4994708317831031, -0.6281394452396203]
      },
      {
        "species": [{ "element": "I", "occu": 1 }],
        "abc": [0.14041549, 0.59839852, 0.75052241],
        "properties": { "magmom": 0.0 },
        "label": "I",
        "xyz": [-0.1204557442608451, 6.559339895234056, 7.004063522804724]
      },
      {
        "species": [{ "element": "I", "occu": 1 }],
        "abc": [0.60989168, 0.65164711, 0.74950393],
        "properties": { "magmom": 0.0 },
        "label": "I",
        "xyz": [5.281196471770618, 7.170494667479324, 4.14772019259955]
      },
      {
        "species": [{ "element": "I", "occu": 1 }],
        "abc": [0.90170255, 0.3595966, 0.74962417],
        "properties": { "magmom": 0.0 },
        "label": "I",
        "xyz": [9.458442184469984, 3.8052557101708713, 4.150859254148376]
      },
      {
        "species": [{ "element": "I", "occu": 1 }],
        "abc": [0.03505489, 0.24972655, 0.50013885],
        "properties": { "magmom": -0.0 },
        "label": "I",
        "xyz": [-0.3943573203531204, 2.6548803054402783, 5.795664862197904]
      },
      {
        "species": [{ "element": "I", "occu": 1 }],
        "abc": [0.74998129, 0.03521572, 0.00040366],
        "properties": { "magmom": -0.0 },
        "label": "I",
        "xyz": [8.75405477332996, 0.40130484543673317, -4.262177786048797]
      },
      {
        "species": [{ "element": "I", "occu": 1 }],
        "abc": [0.25012755000000003, 0.46496368, 0.000380099999999],
        "properties": { "magmom": 0.0 },
        "label": "I",
        "xyz": [1.7764721055619506, 5.35352120138125, -3.8815540189270474]
      },
      {
        "species": [{ "element": "I", "occu": 1 }],
        "abc": [0.46494905000000003, 0.75019708, 0.49972311],
        "properties": { "magmom": 0.0 },
        "label": "I",
        "xyz": [3.4124734220176576, 8.416707933247249, 0.7322544249554772]
      },
      {
        "species": [{ "element": "I", "occu": 1 }],
        "abc": [0.96498459, 0.75027425, 0.49993511],
        "properties": { "magmom": -0.0 },
        "label": "I",
        "xyz": [9.308111246288188, 8.41476840129672, -1.9830959720864163]
      },
      {
        "species": [{ "element": "I", "occu": 1 }],
        "abc": [0.25009148000000003, 0.96483514, 0.99964523],
        "properties": { "magmom": -0.0 },
        "label": "I",
        "xyz": [0.15997433891910046, 10.668931309039799, 8.073925486798815]
      },
      {
        "species": [{ "element": "I", "occu": 1 }],
        "abc": [0.74973935, 0.53499866, 1.0000107],
        "properties": { "magmom": 0.0 },
        "label": "I",
        "xyz": [7.13523124401858, 5.71554545300577, 7.699922340441217]
      },
      {
        "species": [{ "element": "I", "occu": 1 }],
        "abc": [0.53509481, 0.24982244, 0.50027219],
        "properties": { "magmom": -0.0 },
        "label": "I",
        "xyz": [5.5013129122876245, 2.6531911191342052, 3.079033903832074]
      },
      {
        "species": [{ "element": "I", "occu": 1 }],
        "abc": [0.7593284, 0.50931431, 0.51848262],
        "properties": { "magmom": -0.0 },
        "label": "I",
        "xyz": [7.4843295408588135, 5.632522791647927, 0.7169738964973416]
      },
      {
        "species": [{ "element": "I", "occu": 1 }],
        "abc": [0.50939455, 0.75933594, 0.01851464],
        "properties": { "magmom": 0.0 },
        "label": "I",
        "xyz": [4.084625334965095, 8.734417560203989, -6.624767341331902]
      },
      {
        "species": [{ "element": "I", "occu": 1 }],
        "abc": [0.74071166, 0.9907026600000001, 0.48153597000000004],
        "properties": { "magmom": -0.0 },
        "label": "I",
        "xyz": [6.063896085637459, 11.193177923361109, -2.3411316802347697]
      },
      {
        "species": [{ "element": "I", "occu": 1 }],
        "abc": [0.99068307, 0.74068654, 0.9814968],
        "properties": { "magmom": -0.0 },
        "label": "I",
        "xyz": [9.464031807332502, 8.091349569273547, 5.000270454674995]
      },
      {
        "species": [{ "element": "I", "occu": 1 }],
        "abc": [0.24065009, 0.49064505, 0.48144661],
        "properties": { "magmom": -0.0 },
        "label": "I",
        "xyz": [1.4288612392401412, 5.43671295001484, 3.0940266617282743]
      },
      {
        "species": [{ "element": "I", "occu": 1 }],
        "abc": [0.49038934, 0.2405772, 0.98137797],
        "properties": { "magmom": -0.0 },
        "label": "I",
        "xyz": [4.826400512089798, 2.334303109365943, 10.436539232170512]
      },
      {
        "species": [{ "element": "I", "occu": 1 }],
        "abc": [0.25929833, 0.00932902, 0.51843595],
        "properties": { "magmom": -0.0 },
        "label": "I",
        "xyz": [2.8494685358852996, -0.12312830299062151, 6.152194718487387]
      },
      {
        "species": [{ "element": "I", "occu": 1 }],
        "abc": [0.00935042, 0.25929496, 0.01857583],
        "properties": { "magmom": -0.0 },
        "label": "I",
        "xyz": [-0.5502993616220173, 2.978077477072664, -1.1875836198452665]
      }
    ]
  },
  "task_ids": null,
  "uncorrected_energy_per_atom": null,
  "energy_per_atom": -2.308099532291665,
  "formation_energy_per_atom": -0.8721765856249991,
  "energy_above_hull": 0.0,
  "is_stable": true,
  "equilibrium_reaction_energy_per_atom": null,
  "decomposes_to": null,
  "xas": null,
  "grain_boundaries": null,
  "band_gap": 2.9118,
  "cbm": null,
  "vbm": null,
  "efermi": -0.06536673,
  "is_gap_direct": null,
  "is_metal": null,
  "es_source_calc_id": null,
  "bandstructure": null,
  "dos": null,
  "dos_energy_up": null,
  "dos_energy_down": null,
  "is_magnetic": null,
  "ordering": null,
  "total_magnetization": 0.0,
  "total_magnetization_normalized_vol": null,
  "total_magnetization_normalized_formula_units": null,
  "num_magnetic_sites": null,
  "num_unique_magnetic_sites": null,
  "types_of_magnetic_species": null,
  "bulk_modulus": null,
  "shear_modulus": null,
  "universal_anisotropy": null,
  "homogeneous_poisson": null,
  "e_total": null,
  "e_ionic": null,
  "e_electronic": null,
  "n": null,
  "e_ij_max": null,
  "weighted_surface_energy_EV_PER_ANG2": null,
  "weighted_surface_energy": null,
  "weighted_work_function": null,
  "surface_anisotropy": null,
  "shape_factor": null,
  "has_reconstructed": null,
  "possible_species": null,
  "has_props": null,
  "theoretical": null,
  "database_IDs": null,
  "fields_not_requested": [
    "builder_meta",
    "nsites",
    "elements",
    "nelements",
    "composition",
    "composition_reduced",
    "chemsys",
    "symmetry",
    "property_name",
    "deprecated",
    "deprecation_reasons",
    "last_updated",
    "origins",
    "warnings",
    "task_ids",
    "uncorrected_energy_per_atom",
    "equilibrium_reaction_energy_per_atom",
    "decomposes_to",
    "xas",
    "grain_boundaries",
    "cbm",
    "vbm",
    "is_gap_direct",
    "is_metal",
    "es_source_calc_id",
    "bandstructure",
    "dos",
    "dos_energy_up",
    "dos_energy_down",
    "is_magnetic",
    "ordering",
    "total_magnetization_normalized_vol",
    "total_magnetization_normalized_formula_units",
    "num_magnetic_sites",
    "num_unique_magnetic_sites",
    "types_of_magnetic_species",
    "bulk_modulus",
    "shear_modulus",
    "universal_anisotropy",
    "homogeneous_poisson",
    "e_total",
    "e_ionic",
    "e_electronic",
    "n",
    "e_ij_max",
    "weighted_surface_energy_EV_PER_ANG2",
    "weighted_surface_energy",
    "weighted_work_function",
    "surface_anisotropy",
    "shape_factor",
    "has_reconstructed",
    "possible_species",
    "has_props",
    "theoretical",
    "database_IDs"
  ]
}
