{
  "builder_meta": null,
  "nsites": null,
  "elements": null,
  "nelements": null,
  "composition": null,
  "composition_reduced": null,
  "formula_pretty": "ZnI6",
  "formula_anonymous": "AB6",
  "chemsys": null,
  "volume": 5746.48137224739,
  "density": 0.238927630985651,
  "density_atomic": 820.9259103210558,
  "symmetry": null,
  "property_name": null,
  "material_id": "mp-1206190",
  "deprecated": null,
  "deprecation_reasons": null,
  "last_updated": null,
  "origins": null,
  "warnings": null,
  "structure": {
    "@module": "pymatgen.core.structure",
    "@class": "Structure",
    "charge": 0,
    "lattice": {
      "matrix": [
        [6.021944, -8.695325, 0.0],
        [6.021944, 8.695325, 0.0],
        [0.0, 0.0, 54.871834]
      ],
      "pbc": [true, true, true],
      "a": 10.576979076974721,
      "b": 10.576979076974721,
      "c": 54.871834,
      "alpha": 90.0,
      "beta": 90.0,
      "gamma": 110.59095461667755,
      "volume": 5746.48137224739
    },
    "properties": {},
    "sites": [
      {
        "species": [{ "element": "Zn", "occu": 1 }],
        "abc": [0.0, 0.0, 0.0],
        "properties": { "magmom": -0.001 },
        "label": "Zn",
        "xyz": [0.0, 0.0, 0.0]
      },
      {
        "species": [{ "element": "I", "occu": 1 }],
        "abc": [0.0, 0.0, 0.249994],
        "properties": { "magmom": 0.555 },
        "label": "I",
        "xyz": [0.0, 0.0, 13.717629268996]
      },
      {
        "species": [{ "element": "I", "occu": 1 }],
        "abc": [0.0, 0.0, 0.750006],
        "properties": { "magmom": 0.555 },
        "label": "I",
        "xyz": [0.0, 0.0, 41.154204731004]
      },
      {
        "species": [{ "element": "I", "occu": 1 }],
        "abc": [0.256137, 0.01331, 0.0],
        "properties": { "magmom": 0.313 },
        "label": "I",
        "xyz": [1.622594744968, -2.111459683775, 0.0]
      },
      {
        "species": [{ "element": "I", "occu": 1 }],
        "abc": [0.743862999999999, 0.9866900000000001, 0.0],
        "properties": { "magmom": 0.313 },
        "label": "I",
        "xyz": [10.421293255031994, 2.111459683775009, 0.0]
      },
      {
        "species": [{ "element": "I", "occu": 1 }],
        "abc": [0.01331, 0.256137, 0.0],
        "properties": { "magmom": 0.312 },
        "label": "I",
        "xyz": [1.622594744968, 2.111459683775, 0.0]
      },
      {
        "species": [{ "element": "I", "occu": 1 }],
        "abc": [0.9866900000000001, 0.743862999999999, 0.0],
        "properties": { "magmom": 0.312 },
        "label": "I",
        "xyz": [10.421293255031994, -2.111459683775009, 0.0]
      }
    ]
  },
  "task_ids": null,
  "uncorrected_energy_per_atom": null,
  "energy_per_atom": -1.414690108571428,
  "formation_energy_per_atom": 0.071569791428571,
  "energy_above_hull": 0.445359756696428,
  "is_stable": false,
  "equilibrium_reaction_energy_per_atom": null,
  "decomposes_to": null,
  "xas": null,
  "grain_boundaries": null,
  "band_gap": 0.41280000000000006,
  "cbm": null,
  "vbm": null,
  "efermi": -6.10145915,
  "is_gap_direct": null,
  "is_metal": null,
  "es_source_calc_id": null,
  "bandstructure": null,
  "dos": null,
  "dos_energy_up": null,
  "dos_energy_down": null,
  "is_magnetic": null,
  "ordering": null,
  "total_magnetization": 3.8648009,
  "total_magnetization_normalized_vol": null,
  "total_magnetization_normalized_formula_units": null,
  "num_magnetic_sites": null,
  "num_unique_magnetic_sites": null,
  "types_of_magnetic_species": null,
  "bulk_modulus": null,
  "shear_modulus": null,
  "universal_anisotropy": null,
  "homogeneous_poisson": null,
  "e_total": null,
  "e_ionic": null,
  "e_electronic": null,
  "n": null,
  "e_ij_max": null,
  "weighted_surface_energy_EV_PER_ANG2": null,
  "weighted_surface_energy": null,
  "weighted_work_function": null,
  "surface_anisotropy": null,
  "shape_factor": null,
  "has_reconstructed": null,
  "possible_species": null,
  "has_props": null,
  "theoretical": null,
  "database_IDs": null,
  "fields_not_requested": [
    "builder_meta",
    "nsites",
    "elements",
    "nelements",
    "composition",
    "composition_reduced",
    "chemsys",
    "symmetry",
    "property_name",
    "deprecated",
    "deprecation_reasons",
    "last_updated",
    "origins",
    "warnings",
    "task_ids",
    "uncorrected_energy_per_atom",
    "equilibrium_reaction_energy_per_atom",
    "decomposes_to",
    "xas",
    "grain_boundaries",
    "cbm",
    "vbm",
    "is_gap_direct",
    "is_metal",
    "es_source_calc_id",
    "bandstructure",
    "dos",
    "dos_energy_up",
    "dos_energy_down",
    "is_magnetic",
    "ordering",
    "total_magnetization_normalized_vol",
    "total_magnetization_normalized_formula_units",
    "num_magnetic_sites",
    "num_unique_magnetic_sites",
    "types_of_magnetic_species",
    "bulk_modulus",
    "shear_modulus",
    "universal_anisotropy",
    "homogeneous_poisson",
    "e_total",
    "e_ionic",
    "e_electronic",
    "n",
    "e_ij_max",
    "weighted_surface_energy_EV_PER_ANG2",
    "weighted_surface_energy",
    "weighted_work_function",
    "surface_anisotropy",
    "shape_factor",
    "has_reconstructed",
    "possible_species",
    "has_props",
    "theoretical",
    "database_IDs"
  ]
}
