{"builder_meta": null, "nsites": null, "elements": null, "nelements": null, "composition": null, "composition_reduced": null, "formula_pretty": "ZnN6", "formula_anonymous": "AB6", "chemsys": null, "volume": 195.42196930798923, "density": 2.5397987334883663, "density_atomic": 13.958712093427803, "symmetry": null, "property_name": null, "material_id": "mp-2204873", "deprecated": null, "deprecation_reasons": null, "last_updated": null, "origins": null, "warnings": null, "structure": {"@module": "pymatgen.core.structure", "@class": "Structure", "charge": 0, "lattice": {"matrix": [[-4.41824179, -4.17426387, 1.19376478], [-1.50175725, 5.35435441, 0.19906373], [1.3038269, 0.63834027, -6.86443828]], "pbc": [true, true, true], "a": 6.194385661327378, "b": 5.564531638369533, "c": 7.0162636627621575, "alpha": 89.86292068898427, "beta": 112.4825549803205, "gamma": 116.68179473970635, "volume": 195.42196930798923}, "properties": {}, "sites": [{"species": [{"element": "Zn", "occu": 1}], "abc": [0.717865299999999, 0.024404850000000002, 0.56743574], "properties": {"magmom": -0.0}, "label": "Zn", "xyz": [-2.4685146466401395, -2.5036698856145683, -3.0333071827009035]}, {"species": [{"element": "Zn", "occu": 1}], "abc": [0.28458621, 0.30769707, 0.43249934], "properties": {"magmom": -0.0}, "label": "Zn", "xyz": [-1.1555527178317275, 0.7356629748657679, -2.5678847047347806]}, {"species": [{"element": "N", "occu": 1}], "abc": [0.44557791, 0.09488577000000001, 0.353796599999999], "properties": {"magmom": 0.0}, "label": "N", "xyz": [-1.6498768114736526, -1.1260651127682846, -1.8778113933697091]}, {"species": [{"element": "N", "occu": 1}], "abc": [0.55583016, 0.649656599999999, 0.64567089], "properties": {"magmom": 0.0}, "label": "N", "xyz": [-2.589575475185794, 1.5704676567050222, -3.6393144389127863]}, {"species": [{"element": "N", "occu": 1}], "abc": [0.38387134, 0.04176226, 0.16561339], "properties": {"magmom": -0.0}, "label": "N", "xyz": [-1.5428219802204926, -1.2730526281997037, -0.6702774570043342]}, {"species": [{"element": "N", "occu": 1}], "abc": [0.615244, 0.65706069, 0.83361453], "properties": {"magmom": -0.0}, "label": "N", "xyz": [-2.6181533582994057, 1.4820747268609857, -4.857041920402114]}, {"species": [{"element": "N", "occu": 1}], "abc": [0.32078696, 0.9937624700000001, 0.98821513], "properties": {"magmom": -0.0}, "label": "N", "xyz": [-1.621242876978469, 4.6127245595441435, -6.202775528503695]}, {"species": [{"element": "N", "occu": 1}], "abc": [0.67616949, 0.67109206, 0.01080826], "properties": {"magmom": -0.0}, "label": "N", "xyz": [-3.981205564233228, 0.7776542064802884, 0.8665847774253531]}, {"species": [{"element": "N", "occu": 1}], "abc": [0.00130502, 0.01780707, 0.50026596], "properties": {"magmom": 0.0}, "label": "N", "xyz": [0.6197524254277808, 0.40923777392626054, -3.428942177317182]}, {"species": [{"element": "N", "occu": 1}], "abc": [0.00155398, 0.79804668, 0.5011283400000001], "properties": {"magmom": 0.0}, "label": "N", "xyz": [-0.5519536368609081, 4.586428437735408, -3.2792473248611147]}, {"species": [{"element": "N", "occu": 1}], "abc": [0.00176468, 0.5929288500000001, 0.50203087], "properties": {"magmom": -0.0}, "label": "N", "xyz": [-0.2436706292072367, 3.4878514839517525, -3.326022680432123]}, {"species": [{"element": "N", "occu": 1}], "abc": [0.82669218, 0.26743665, 0.82855722], "properties": {"magmom": -0.0}, "label": "N", "xyz": [-2.973855673570196, -1.4899792527371605, -4.647466952665257]}, {"species": [{"element": "N", "occu": 1}], "abc": [0.17018967000000002, 0.4406139, 0.17071618], "properties": {"magmom": 0.0}, "label": "N", "xyz": [-1.1910498832468424, 1.7577614004786446, -0.8809940006177006]}, {"species": [{"element": "N", "occu": 1}], "abc": [0.9985611, 0.34470309, 0.99964556], "properties": {"magmom": 0.0}, "label": "N", "xyz": [-3.6261799747997063, -1.6844809949606285, -5.601340293800053]}]}, "task_ids": null, "uncorrected_energy_per_atom": null, "energy_per_atom": -8.731518277857143, "formation_energy_per_atom": 0.36606838392857105, "energy_above_hull": 0.37628809892857, "is_stable": false, "equilibrium_reaction_energy_per_atom": null, "decomposes_to": null, "xas": null, "grain_boundaries": null, "band_gap": 3.3933, "cbm": null, "vbm": null, "efermi": -0.52938175, "is_gap_direct": null, "is_metal": null, "es_source_calc_id": null, "bandstructure": null, "dos": null, "dos_energy_up": null, "dos_energy_down": null, "is_magnetic": null, "ordering": null, "total_magnetization": 0.0, "total_magnetization_normalized_vol": null, "total_magnetization_normalized_formula_units": null, "num_magnetic_sites": null, "num_unique_magnetic_sites": null, "types_of_magnetic_species": null, "bulk_modulus": null, "shear_modulus": null, "universal_anisotropy": null, "homogeneous_poisson": null, "e_total": null, "e_ionic": null, "e_electronic": null, "n": null, "e_ij_max": null, "weighted_surface_energy_EV_PER_ANG2": null, "weighted_surface_energy": null, "weighted_work_function": null, "surface_anisotropy": null, "shape_factor": null, "has_reconstructed": null, "possible_species": null, "has_props": null, "theoretical": null, "database_IDs": null, "fields_not_requested": ["builder_meta", "nsites", "elements", "nelements", "composition", "composition_reduced", "chemsys", "symmetry", "property_name", "deprecated", "deprecation_reasons", "last_updated", "origins", "warnings", "task_ids", "uncorrected_energy_per_atom", "equilibrium_reaction_energy_per_atom", "decomposes_to", "xas", "grain_boundaries", "cbm", "vbm", "is_gap_direct", "is_metal", "es_source_calc_id", "bandstructure", "dos", "dos_energy_up", "dos_energy_down", "is_magnetic", "ordering", "total_magnetization_normalized_vol", "total_magnetization_normalized_formula_units", "num_magnetic_sites", "num_unique_magnetic_sites", "types_of_magnetic_species", "bulk_modulus", "shear_modulus", "universal_anisotropy", "homogeneous_poisson", "e_total", "e_ionic", "e_electronic", "n", "e_ij_max", "weighted_surface_energy_EV_PER_ANG2", "weighted_surface_energy", "weighted_work_function", "surface_anisotropy", "shape_factor", "has_reconstructed", "possible_species", "has_props", "theoretical", "database_IDs"]}