{
  "builder_meta": null,
  "nsites": null,
  "elements": null,
  "nelements": null,
  "composition": null,
  "composition_reduced": null,
  "formula_pretty": "ZnNi3",
  "formula_anonymous": "AB3",
  "chemsys": null,
  "volume": 44.16868885632551,
  "density": 9.078880563251134,
  "density_atomic": 11.042172214081377,
  "symmetry": null,
  "property_name": null,
  "material_id": "mp-971804",
  "deprecated": null,
  "deprecation_reasons": null,
  "last_updated": null,
  "origins": null,
  "warnings": null,
  "structure": {
    "@module": "pymatgen.core.structure",
    "@class": "Structure",
    "charge": 0,
    "lattice": {
      "matrix": [
        [-1.79096557, 1.79096557, 3.4425483],
        [1.79096557, -1.79096557, 3.4425483],
        [1.79096557, 1.79096557, -3.4425483]
      ],
      "pbc": [true, true, true],
      "a": 4.2739038528824835,
      "b": 4.2739038528824835,
      "c": 4.2739038528824835,
      "alpha": 130.45115959768845,
      "beta": 130.45115959768845,
      "gamma": 72.68653483845763,
      "volume": 44.16868885632551
    },
    "properties": {},
    "sites": [
      {
        "species": [{ "element": "Zn", "occu": 1 }],
        "abc": [0.0, 0.0, 0.0],
        "properties": { "magmom": -0.035 },
        "label": "Zn",
        "xyz": [0.0, 0.0, 0.0]
      },
      {
        "species": [{ "element": "Ni", "occu": 1 }],
        "abc": [0.749999, 0.25, 0.499998999999999],
        "properties": { "magmom": 0.5 },
        "label": "Ni",
        "xyz": [-1.6653345369377348e-15, 1.790961988068858, 1.721274150000003]
      },
      {
        "species": [{ "element": "Ni", "occu": 1 }],
        "abc": [0.25, 0.749999, 0.499998999999999],
        "properties": { "magmom": 0.5 },
        "label": "Ni",
        "xyz": [1.790961988068858, -1.6653345369377348e-15, 1.721274150000003]
      },
      {
        "species": [{ "element": "Ni", "occu": 1 }],
        "abc": [0.499998999999999, 0.499998999999999, 0.0],
        "properties": { "magmom": 0.726 },
        "label": "Ni",
        "xyz": [0.0, 0.0, 3.4425414149033933]
      }
    ]
  },
  "task_ids": null,
  "uncorrected_energy_per_atom": null,
  "energy_per_atom": -4.7660970825,
  "formation_energy_per_atom": -0.116058669999999,
  "energy_above_hull": 0.011426597500000002,
  "is_stable": false,
  "equilibrium_reaction_energy_per_atom": null,
  "decomposes_to": null,
  "xas": null,
  "grain_boundaries": null,
  "band_gap": 0.0,
  "cbm": null,
  "vbm": null,
  "efermi": 6.41783994,
  "is_gap_direct": null,
  "is_metal": null,
  "es_source_calc_id": null,
  "bandstructure": null,
  "dos": null,
  "dos_energy_up": null,
  "dos_energy_down": null,
  "is_magnetic": null,
  "ordering": null,
  "total_magnetization": 1.5695339,
  "total_magnetization_normalized_vol": null,
  "total_magnetization_normalized_formula_units": null,
  "num_magnetic_sites": null,
  "num_unique_magnetic_sites": null,
  "types_of_magnetic_species": null,
  "bulk_modulus": null,
  "shear_modulus": null,
  "universal_anisotropy": null,
  "homogeneous_poisson": null,
  "e_total": null,
  "e_ionic": null,
  "e_electronic": null,
  "n": null,
  "e_ij_max": null,
  "weighted_surface_energy_EV_PER_ANG2": null,
  "weighted_surface_energy": null,
  "weighted_work_function": null,
  "surface_anisotropy": null,
  "shape_factor": null,
  "has_reconstructed": null,
  "possible_species": null,
  "has_props": null,
  "theoretical": null,
  "database_IDs": null,
  "fields_not_requested": [
    "builder_meta",
    "nsites",
    "elements",
    "nelements",
    "composition",
    "composition_reduced",
    "chemsys",
    "symmetry",
    "property_name",
    "deprecated",
    "deprecation_reasons",
    "last_updated",
    "origins",
    "warnings",
    "task_ids",
    "uncorrected_energy_per_atom",
    "equilibrium_reaction_energy_per_atom",
    "decomposes_to",
    "xas",
    "grain_boundaries",
    "cbm",
    "vbm",
    "is_gap_direct",
    "is_metal",
    "es_source_calc_id",
    "bandstructure",
    "dos",
    "dos_energy_up",
    "dos_energy_down",
    "is_magnetic",
    "ordering",
    "total_magnetization_normalized_vol",
    "total_magnetization_normalized_formula_units",
    "num_magnetic_sites",
    "num_unique_magnetic_sites",
    "types_of_magnetic_species",
    "bulk_modulus",
    "shear_modulus",
    "universal_anisotropy",
    "homogeneous_poisson",
    "e_total",
    "e_ionic",
    "e_electronic",
    "n",
    "e_ij_max",
    "weighted_surface_energy_EV_PER_ANG2",
    "weighted_surface_energy",
    "weighted_work_function",
    "surface_anisotropy",
    "shape_factor",
    "has_reconstructed",
    "possible_species",
    "has_props",
    "theoretical",
    "database_IDs"
  ]
}
