{"builder_meta": null, "nsites": null, "elements": null, "nelements": null, "composition": null, "composition_reduced": null, "formula_pretty": "ZnNi4", "formula_anonymous": "AB4", "chemsys": null, "volume": 56.23478686260236, "density": 8.863996152976506, "density_atomic": 11.246957372520473, "symmetry": null, "property_name": null, "material_id": "mp-1215582", "deprecated": null, "deprecation_reasons": null, "last_updated": null, "origins": null, "warnings": null, "structure": {"@module": "pymatgen.core.structure", "@class": "Structure", "charge": 0, "lattice": {"matrix": [[10.178978, -1.264489, 0.0], [10.178978, 1.264489, 0.0], [10.021896, 0.0, 2.184519]], "pbc": [true, true, true], "a": 10.25721821721684, "b": 10.25721821721684, "c": 10.257218077830704, "alpha": 14.162643610095655, "beta": 14.162643610095655, "gamma": 14.162642709080364, "volume": 56.23478686260236}, "properties": {}, "sites": [{"species": [{"element": "Zn", "occu": 1}], "abc": [0.0, 0.0, 0.0], "properties": {"magmom": -0.018000000000000002}, "label": "Zn", "xyz": [0.0, 0.0, 0.0]}, {"species": [{"element": "Ni", "occu": 1}], "abc": [0.598685999999999, 0.598685999999999, 0.598685999999999], "properties": {"magmom": 0.063}, "label": "Ni", "xyz": [18.18799207447197, 0.0, 1.3078409420339978]}, {"species": [{"element": "Ni", "occu": 1}], "abc": [0.199417999999999, 0.199417999999999, 0.199417999999999], "properties": {"magmom": 0.547}, "label": "Ni", "xyz": [6.05828932613597, 0.0, 0.4356324099419978]}, {"species": [{"element": "Ni", "occu": 1}], "abc": [0.800582, 0.800582, 0.800582], "properties": {"magmom": 0.547}, "label": "Ni", "xyz": [24.321562673864, 0.0, 1.748886590058]}, {"species": [{"element": "Ni", "occu": 1}], "abc": [0.401314, 0.401314, 0.401314], "properties": {"magmom": 0.063}, "label": "Ni", "xyz": [12.191859925528, 0.0, 0.876678057966]}]}, "task_ids": null, "uncorrected_energy_per_atom": null, "energy_per_atom": -4.905219512, "formation_energy_per_atom": -0.029161445999999, "energy_above_hull": 0.072826768, "is_stable": false, "equilibrium_reaction_energy_per_atom": null, "decomposes_to": null, "xas": null, "grain_boundaries": null, "band_gap": 0.0, "cbm": null, "vbm": null, "efermi": 6.87477946, "is_gap_direct": null, "is_metal": null, "es_source_calc_id": null, "bandstructure": null, "dos": null, "dos_energy_up": null, "dos_energy_down": null, "is_magnetic": null, "ordering": null, "total_magnetization": 1.1150655, "total_magnetization_normalized_vol": null, "total_magnetization_normalized_formula_units": null, "num_magnetic_sites": null, "num_unique_magnetic_sites": null, "types_of_magnetic_species": null, "bulk_modulus": null, "shear_modulus": null, "universal_anisotropy": null, "homogeneous_poisson": null, "e_total": null, "e_ionic": null, "e_electronic": null, "n": null, "e_ij_max": null, "weighted_surface_energy_EV_PER_ANG2": null, "weighted_surface_energy": null, "weighted_work_function": null, "surface_anisotropy": null, "shape_factor": null, "has_reconstructed": null, "possible_species": null, "has_props": null, "theoretical": null, "database_IDs": null, "fields_not_requested": ["builder_meta", "nsites", "elements", "nelements", "composition", "composition_reduced", "chemsys", "symmetry", "property_name", "deprecated", "deprecation_reasons", "last_updated", "origins", "warnings", "task_ids", "uncorrected_energy_per_atom", "equilibrium_reaction_energy_per_atom", "decomposes_to", "xas", "grain_boundaries", "cbm", "vbm", "is_gap_direct", "is_metal", "es_source_calc_id", "bandstructure", "dos", "dos_energy_up", "dos_energy_down", "is_magnetic", "ordering", "total_magnetization_normalized_vol", "total_magnetization_normalized_formula_units", "num_magnetic_sites", "num_unique_magnetic_sites", "types_of_magnetic_species", "bulk_modulus", "shear_modulus", "universal_anisotropy", "homogeneous_poisson", "e_total", "e_ionic", "e_electronic", "n", "e_ij_max", "weighted_surface_energy_EV_PER_ANG2", "weighted_surface_energy", "weighted_work_function", "surface_anisotropy", "shape_factor", "has_reconstructed", "possible_species", "has_props", "theoretical", "database_IDs"]}