{"builder_meta": null, "nsites": null, "elements": null, "nelements": null, "composition": null, "composition_reduced": null, "formula_pretty": "ZnO", "formula_anonymous": "AB", "chemsys": null, "volume": 47.397148259900405, "density": 5.70421780686615, "density_atomic": 11.849287064975101, "symmetry": null, "property_name": null, "material_id": "mp-2133", "deprecated": null, "deprecation_reasons": null, "last_updated": null, "origins": null, "warnings": null, "structure": {"@module": "pymatgen.core.structure", "@class": "Structure", "charge": 0, "lattice": {"matrix": [[3.23735118, 0.0, 0.0], [-1.61867509, 2.80362829, 0.0], [0.0, -0.0, 5.2220613]], "pbc": [true, true, true], "a": 3.23735118, "b": 3.2373508669087494, "c": 5.2220613, "alpha": 90.0, "beta": 90.0, "gamma": 119.99999298106427, "volume": 47.397148259900405}, "properties": {}, "sites": [{"species": [{"element": "Zn", "occu": 1}], "abc": [0.666667, 0.333333, 0.5005917], "properties": {"magmom": 0.0}, "label": "Zn", "xyz": [1.6186773753420902, 0.9345418287905699, 2.61412054367121]}, {"species": [{"element": "Zn", "occu": 1}], "abc": [0.333333, 0.666667, 0.0005917], "properties": {"magmom": 0.0}, "label": "Zn", "xyz": [-1.2853420898739643e-06, 1.8690864612094298, 0.00308989367121]}, {"species": [{"element": "O", "occu": 1}], "abc": [0.666667, 0.333333, 0.8797183], "properties": {"magmom": 0.0}, "label": "O", "xyz": [1.6186773753420902, 0.9345418287905699, 4.59394288933179]}, {"species": [{"element": "O", "occu": 1}], "abc": [0.333333, 0.666667, 0.3797183], "properties": {"magmom": 0.0}, "label": "O", "xyz": [-1.2853420898739643e-06, 1.8690864612094298, 1.98291223933179]}]}, "task_ids": null, "uncorrected_energy_per_atom": null, "energy_per_atom": -4.894751419999999, "formation_energy_per_atom": -1.7908991124999991, "energy_above_hull": 0.0, "is_stable": true, "equilibrium_reaction_energy_per_atom": null, "decomposes_to": null, "xas": null, "grain_boundaries": null, "band_gap": 0.7227, "cbm": null, "vbm": null, "efermi": 0.8923141, "is_gap_direct": null, "is_metal": null, "es_source_calc_id": null, "bandstructure": null, "dos": null, "dos_energy_up": null, "dos_energy_down": null, "is_magnetic": null, "ordering": null, "total_magnetization": 0.0, "total_magnetization_normalized_vol": null, "total_magnetization_normalized_formula_units": null, "num_magnetic_sites": null, "num_unique_magnetic_sites": null, "types_of_magnetic_species": null, "bulk_modulus": null, "shear_modulus": null, "universal_anisotropy": null, "homogeneous_poisson": null, "e_total": null, "e_ionic": null, "e_electronic": null, "n": null, "e_ij_max": null, "weighted_surface_energy_EV_PER_ANG2": null, "weighted_surface_energy": null, "weighted_work_function": null, "surface_anisotropy": null, "shape_factor": null, "has_reconstructed": null, "possible_species": null, "has_props": null, "theoretical": null, "database_IDs": null, "fields_not_requested": ["builder_meta", "nsites", "elements", "nelements", "composition", "composition_reduced", "chemsys", "symmetry", "property_name", "deprecated", "deprecation_reasons", "last_updated", "origins", "warnings", "task_ids", "uncorrected_energy_per_atom", "equilibrium_reaction_energy_per_atom", "decomposes_to", "xas", "grain_boundaries", "cbm", "vbm", "is_gap_direct", "is_metal", "es_source_calc_id", "bandstructure", "dos", "dos_energy_up", "dos_energy_down", "is_magnetic", "ordering", "total_magnetization_normalized_vol", "total_magnetization_normalized_formula_units", "num_magnetic_sites", "num_unique_magnetic_sites", "types_of_magnetic_species", "bulk_modulus", "shear_modulus", "universal_anisotropy", "homogeneous_poisson", "e_total", "e_ionic", "e_electronic", "n", "e_ij_max", "weighted_surface_energy_EV_PER_ANG2", "weighted_surface_energy", "weighted_work_function", "surface_anisotropy", "shape_factor", "has_reconstructed", "possible_species", "has_props", "theoretical", "database_IDs"]}