{"builder_meta": null, "nsites": null, "elements": null, "nelements": null, "composition": null, "composition_reduced": null, "formula_pretty": "ZnO2", "formula_anonymous": "AB2", "chemsys": null, "volume": 121.82676206704514, "density": 5.310802143868639, "density_atomic": 10.152230172253761, "symmetry": null, "property_name": null, "material_id": "mp-8484", "deprecated": null, "deprecation_reasons": null, "last_updated": null, "origins": null, "warnings": null, "structure": {"@module": "pymatgen.core.structure", "@class": "Structure", "charge": 0, "lattice": {"matrix": [[4.957327, 0.0, 0.0], [0.0, 4.957327, 0.0], [0.0, 0.0, 4.957327]], "pbc": [true, true, true], "a": 4.957327, "b": 4.957327, "c": 4.957327, "alpha": 90.0, "beta": 90.0, "gamma": 90.0, "volume": 121.82676206704514}, "properties": {}, "sites": [{"species": [{"element": "Zn", "occu": 1}], "abc": [0.0, 0.5, 0.5], "properties": {"magmom": 0.0}, "label": "Zn", "xyz": [0.0, 2.4786635, 2.4786635]}, {"species": [{"element": "Zn", "occu": 1}], "abc": [0.5, 0.5, 0.0], "properties": {"magmom": 0.0}, "label": "Zn", "xyz": [2.4786635, 2.4786635, 0.0]}, {"species": [{"element": "Zn", "occu": 1}], "abc": [0.5, 0.0, 0.5], "properties": {"magmom": 0.0}, "label": "Zn", "xyz": [2.4786635, 0.0, 2.4786635]}, {"species": [{"element": "Zn", "occu": 1}], "abc": [0.0, 0.0, 0.0], "properties": {"magmom": 0.0}, "label": "Zn", "xyz": [0.0, 0.0, 0.0]}, {"species": [{"element": "O", "occu": 1}], "abc": [0.412583, 0.087417, 0.912582999999999], "properties": {"magmom": -0.0}, "label": "O", "xyz": [2.045308845641, 0.433354654359, 4.5239723456409955]}, {"species": [{"element": "O", "occu": 1}], "abc": [0.087417, 0.912582999999999, 0.412583], "properties": {"magmom": -0.0}, "label": "O", "xyz": [0.433354654359, 4.5239723456409955, 2.045308845641]}, {"species": [{"element": "O", "occu": 1}], "abc": [0.912582999999999, 0.412583, 0.087417], "properties": {"magmom": -0.0}, "label": "O", "xyz": [4.5239723456409955, 2.045308845641, 0.433354654359]}, {"species": [{"element": "O", "occu": 1}], "abc": [0.587417, 0.587417, 0.587417], "properties": {"magmom": -0.0}, "label": "O", "xyz": [2.912018154359, 2.912018154359, 2.912018154359]}, {"species": [{"element": "O", "occu": 1}], "abc": [0.412583, 0.412583, 0.412583], "properties": {"magmom": -0.0}, "label": "O", "xyz": [2.045308845641, 2.045308845641, 2.045308845641]}, {"species": [{"element": "O", "occu": 1}], "abc": [0.087417, 0.587417, 0.912582999999999], "properties": {"magmom": -0.0}, "label": "O", "xyz": [0.433354654359, 2.912018154359, 4.5239723456409955]}, {"species": [{"element": "O", "occu": 1}], "abc": [0.912582999999999, 0.087417, 0.587417], "properties": {"magmom": -0.0}, "label": "O", "xyz": [4.5239723456409955, 0.433354654359, 2.912018154359]}, {"species": [{"element": "O", "occu": 1}], "abc": [0.587417, 0.912582999999999, 0.087417], "properties": {"magmom": -0.0}, "label": "O", "xyz": [2.912018154359, 4.5239723456409955, 0.433354654359]}]}, "task_ids": null, "uncorrected_energy_per_atom": null, "energy_per_atom": -4.776999415833333, "formation_energy_per_atom": -1.058444209166666, "energy_above_hull": 0.135488532499999, "is_stable": false, "equilibrium_reaction_energy_per_atom": null, "decomposes_to": null, "xas": null, "grain_boundaries": null, "band_gap": 2.1576, "cbm": null, "vbm": null, "efermi": 2.7733007, "is_gap_direct": null, "is_metal": null, "es_source_calc_id": null, "bandstructure": null, "dos": null, "dos_energy_up": null, "dos_energy_down": null, "is_magnetic": null, "ordering": null, "total_magnetization": 0.0002606, "total_magnetization_normalized_vol": null, "total_magnetization_normalized_formula_units": null, "num_magnetic_sites": null, "num_unique_magnetic_sites": null, "types_of_magnetic_species": null, "bulk_modulus": null, "shear_modulus": null, "universal_anisotropy": null, "homogeneous_poisson": null, "e_total": null, "e_ionic": null, "e_electronic": null, "n": null, "e_ij_max": null, "weighted_surface_energy_EV_PER_ANG2": null, "weighted_surface_energy": null, "weighted_work_function": null, "surface_anisotropy": null, "shape_factor": null, "has_reconstructed": null, "possible_species": null, "has_props": null, "theoretical": null, "database_IDs": null, "fields_not_requested": ["builder_meta", "nsites", "elements", "nelements", "composition", "composition_reduced", "chemsys", "symmetry", "property_name", "deprecated", "deprecation_reasons", "last_updated", "origins", "warnings", "task_ids", "uncorrected_energy_per_atom", "equilibrium_reaction_energy_per_atom", "decomposes_to", "xas", "grain_boundaries", "cbm", "vbm", "is_gap_direct", "is_metal", "es_source_calc_id", "bandstructure", "dos", "dos_energy_up", "dos_energy_down", "is_magnetic", "ordering", "total_magnetization_normalized_vol", "total_magnetization_normalized_formula_units", "num_magnetic_sites", "num_unique_magnetic_sites", "types_of_magnetic_species", "bulk_modulus", "shear_modulus", "universal_anisotropy", "homogeneous_poisson", "e_total", "e_ionic", "e_electronic", "n", "e_ij_max", "weighted_surface_energy_EV_PER_ANG2", "weighted_surface_energy", "weighted_work_function", "surface_anisotropy", "shape_factor", "has_reconstructed", "possible_species", "has_props", "theoretical", "database_IDs"]}