{"builder_meta": null, "nsites": null, "elements": null, "nelements": null, "composition": null, "composition_reduced": null, "formula_pretty": "ZnP2", "formula_anonymous": "AB2", "chemsys": null, "volume": 470.1431866833324, "density": 3.598571490192827, "density_atomic": 19.58929944513885, "symmetry": null, "property_name": null, "material_id": "mp-11025", "deprecated": null, "deprecation_reasons": null, "last_updated": null, "origins": null, "warnings": null, "structure": {"@module": "pymatgen.core.structure", "@class": "Structure", "charge": 0, "lattice": {"matrix": [[5.05271944, -0.0, 0.0], [0.0, 5.05271944, -0.0], [-0.0, 0.0, 18.41534157]], "pbc": [true, true, true], "a": 5.05271944, "b": 5.05271944, "c": 18.41534157, "alpha": 90.0, "beta": 90.0, "gamma": 90.0, "volume": 470.1431866833324}, "properties": {}, "sites": [{"species": [{"element": "Zn", "occu": 1}], "abc": [0.34500034, 0.86303953, 0.44916634], "properties": {"magmom": -0.0}, "label": "Zn", "xyz": [1.7431899247246097, 4.360696610719463, 8.271551572846754]}, {"species": [{"element": "Zn", "occu": 1}], "abc": [0.65499966, 0.13696047, 0.94916634], "properties": {"magmom": -0.0}, "label": "Zn", "xyz": [3.3095295152753903, 0.6920228292805368, 17.47922235784675]}, {"species": [{"element": "Zn", "occu": 1}], "abc": [0.86303953, 0.34500034, 0.55083366], "properties": {"magmom": -0.0}, "label": "Zn", "xyz": [4.360696610719463, 1.7431899247246097, 10.143789997153245]}, {"species": [{"element": "Zn", "occu": 1}], "abc": [0.36303953, 0.15499966, 0.69916634], "properties": {"magmom": -0.0}, "label": "Zn", "xyz": [1.834336890719463, 0.7831697952753904, 12.875386965346753]}, {"species": [{"element": "Zn", "occu": 1}], "abc": [0.63696047, 0.84500034, 0.19916634], "properties": {"magmom": -0.0}, "label": "Zn", "xyz": [3.2183825492805367, 4.269549644724609, 3.6677161803467535]}, {"species": [{"element": "Zn", "occu": 1}], "abc": [0.15499966, 0.36303953, 0.30083366], "properties": {"magmom": -0.0}, "label": "Zn", "xyz": [0.7831697952753904, 1.834336890719463, 5.5399546046532455]}, {"species": [{"element": "Zn", "occu": 1}], "abc": [0.84500034, 0.63696047, 0.80083366], "properties": {"magmom": -0.0}, "label": "Zn", "xyz": [4.269549644724609, 3.2183825492805367, 14.747625389653246]}, {"species": [{"element": "Zn", "occu": 1}], "abc": [0.13696047, 0.65499966, 0.05083366], "properties": {"magmom": -0.0}, "label": "Zn", "xyz": [0.6920228292805368, 3.3095295152753903, 0.9361192121532462]}, {"species": [{"element": "P", "occu": 1}], "abc": [0.99050602, 0.01836965, 0.37596085], "properties": {"magmom": 0.0}, "label": "P", "xyz": [5.004749022691028, 0.092816687660996, 6.9234474696975346]}, {"species": [{"element": "P", "occu": 1}], "abc": [0.00949398, 0.98163035, 0.87596085], "properties": {"magmom": 0.0}, "label": "P", "xyz": [0.047970417308971204, 4.959902752339004, 16.131118254697533]}, {"species": [{"element": "P", "occu": 1}], "abc": [0.01836965, 0.99050602, 0.62403915], "properties": {"magmom": 0.0}, "label": "P", "xyz": [0.092816687660996, 5.004749022691028, 11.491894100302465]}, {"species": [{"element": "P", "occu": 1}], "abc": [0.51836965, 0.50949398, 0.62596085], "properties": {"magmom": 0.0}, "label": "P", "xyz": [2.619176407660996, 2.574330137308971, 11.527282862197534]}, {"species": [{"element": "P", "occu": 1}], "abc": [0.48163035, 0.49050602, 0.12596085], "properties": {"magmom": 0.0}, "label": "P", "xyz": [2.4335430323390037, 2.4783893026910286, 2.319612077197535]}, {"species": [{"element": "P", "occu": 1}], "abc": [0.50949398, 0.51836965, 0.37403915], "properties": {"magmom": 0.0}, "label": "P", "xyz": [2.574330137308971, 2.619176407660996, 6.888058707802465]}, {"species": [{"element": "P", "occu": 1}], "abc": [0.49050602, 0.48163035, 0.87403915], "properties": {"magmom": 0.0}, "label": "P", "xyz": [2.4783893026910286, 2.4335430323390037, 16.095729492802466]}, {"species": [{"element": "P", "occu": 1}], "abc": [0.98163035, 0.00949398, 0.12403915], "properties": {"magmom": 0.0}, "label": "P", "xyz": [4.959902752339004, 0.047970417308971204, 2.2842233153024654]}, {"species": [{"element": "P", "occu": 1}], "abc": [0.8026880200000001, 0.31926596, 0.05924689], "properties": {"magmom": 0.0}, "label": "P", "xyz": [4.055757362909109, 1.6131613226222623, 1.0910517163102174]}, {"species": [{"element": "P", "occu": 1}], "abc": [0.18073404, 0.30268802, 0.80924689], "properties": {"magmom": 0.0}, "label": "P", "xyz": [0.9131983973777376, 1.5293976429091087, 14.902557893810217]}, {"species": [{"element": "P", "occu": 1}], "abc": [0.8192659600000001, 0.69731198, 0.30924689], "properties": {"magmom": 0.0}, "label": "P", "xyz": [4.139521042622262, 3.523321797090891, 5.694887108810217]}, {"species": [{"element": "P", "occu": 1}], "abc": [0.30268802, 0.18073404, 0.19075311], "properties": {"magmom": 0.0}, "label": "P", "xyz": [1.5293976429091087, 0.9131983973777376, 3.5127836761897826]}, {"species": [{"element": "P", "occu": 1}], "abc": [0.69731198, 0.8192659600000001, 0.6907531100000001], "properties": {"magmom": 0.0}, "label": "P", "xyz": [3.523321797090891, 4.139521042622262, 12.720454461189783]}, {"species": [{"element": "P", "occu": 1}], "abc": [0.19731198, 0.68073404, 0.55924689], "properties": {"magmom": 0.0}, "label": "P", "xyz": [0.9969620770908911, 3.4395581173777376, 10.298722501310218]}, {"species": [{"element": "P", "occu": 1}], "abc": [0.31926596, 0.8026880200000001, 0.9407531100000001], "properties": {"magmom": 0.0}, "label": "P", "xyz": [1.6131613226222623, 4.055757362909109, 17.324289853689784]}, {"species": [{"element": "P", "occu": 1}], "abc": [0.68073404, 0.19731198, 0.44075311], "properties": {"magmom": 0.0}, "label": "P", "xyz": [3.4395581173777376, 0.9969620770908911, 8.116619068689783]}]}, "task_ids": null, "uncorrected_energy_per_atom": null, "energy_per_atom": -9.287010225416667, "formation_energy_per_atom": -0.315425149067459, "energy_above_hull": 0.0, "is_stable": true, "equilibrium_reaction_energy_per_atom": null, "decomposes_to": null, "xas": null, "grain_boundaries": null, "band_gap": 1.4617, "cbm": null, "vbm": null, "efermi": 3.55168789, "is_gap_direct": null, "is_metal": null, "es_source_calc_id": null, "bandstructure": null, "dos": null, "dos_energy_up": null, "dos_energy_down": null, "is_magnetic": null, "ordering": null, "total_magnetization": 0.0, "total_magnetization_normalized_vol": null, "total_magnetization_normalized_formula_units": null, "num_magnetic_sites": null, "num_unique_magnetic_sites": null, "types_of_magnetic_species": null, "bulk_modulus": null, "shear_modulus": null, "universal_anisotropy": null, "homogeneous_poisson": null, "e_total": null, "e_ionic": null, "e_electronic": null, "n": null, "e_ij_max": null, "weighted_surface_energy_EV_PER_ANG2": null, "weighted_surface_energy": null, "weighted_work_function": null, "surface_anisotropy": null, "shape_factor": null, "has_reconstructed": null, "possible_species": null, "has_props": null, "theoretical": null, "database_IDs": null, "fields_not_requested": ["builder_meta", "nsites", "elements", "nelements", "composition", "composition_reduced", "chemsys", "symmetry", "property_name", "deprecated", "deprecation_reasons", "last_updated", "origins", "warnings", "task_ids", "uncorrected_energy_per_atom", "equilibrium_reaction_energy_per_atom", "decomposes_to", "xas", "grain_boundaries", "cbm", "vbm", "is_gap_direct", "is_metal", "es_source_calc_id", "bandstructure", "dos", "dos_energy_up", "dos_energy_down", "is_magnetic", "ordering", "total_magnetization_normalized_vol", "total_magnetization_normalized_formula_units", "num_magnetic_sites", "num_unique_magnetic_sites", "types_of_magnetic_species", "bulk_modulus", "shear_modulus", "universal_anisotropy", "homogeneous_poisson", "e_total", "e_ionic", "e_electronic", "n", "e_ij_max", "weighted_surface_energy_EV_PER_ANG2", "weighted_surface_energy", "weighted_work_function", "surface_anisotropy", "shape_factor", "has_reconstructed", "possible_species", "has_props", "theoretical", "database_IDs"]}