{
  "builder_meta": null,
  "nsites": null,
  "elements": null,
  "nelements": null,
  "composition": null,
  "composition_reduced": null,
  "formula_pretty": "ZnP4",
  "formula_anonymous": "AB4",
  "chemsys": null,
  "volume": 372.5902700509102,
  "density": 3.374717940182063,
  "density_atomic": 18.62951350254551,
  "symmetry": null,
  "property_name": null,
  "material_id": "mp-14587",
  "deprecated": null,
  "deprecation_reasons": null,
  "last_updated": null,
  "origins": null,
  "warnings": null,
  "structure": {
    "@module": "pymatgen.core.structure",
    "@class": "Structure",
    "charge": 0,
    "lattice": {
      "matrix": [
        [5.045906, 0.0, 0.0],
        [0.0, 5.045906, 0.0],
        [0.0, 0.0, 14.633668]
      ],
      "pbc": [true, true, true],
      "a": 5.045906,
      "b": 5.045906,
      "c": 14.633668,
      "alpha": 90.0,
      "beta": 90.0,
      "gamma": 90.0,
      "volume": 372.5902700509102
    },
    "properties": {},
    "sites": [
      {
        "species": [{ "element": "Zn", "occu": 1 }],
        "abc": [0.80198, 0.80198, 0.5],
        "properties": { "magmom": 0.0 },
        "label": "Zn",
        "xyz": [4.0467156938799995, 4.0467156938799995, 7.316834]
      },
      {
        "species": [{ "element": "Zn", "occu": 1 }],
        "abc": [0.6980200000000001, 0.30198, 0.75],
        "properties": { "magmom": 0.0 },
        "label": "Zn",
        "xyz": [3.5221433061200003, 1.52376269388, 10.975251]
      },
      {
        "species": [{ "element": "Zn", "occu": 1 }],
        "abc": [0.30198, 0.6980200000000001, 0.25],
        "properties": { "magmom": 0.0 },
        "label": "Zn",
        "xyz": [1.52376269388, 3.5221433061200003, 3.658417]
      },
      {
        "species": [{ "element": "Zn", "occu": 1 }],
        "abc": [0.19802000000000003, 0.19802000000000003, 0.0],
        "properties": { "magmom": 0.0 },
        "label": "Zn",
        "xyz": [0.99919030612, 0.99919030612, 0.0]
      },
      {
        "species": [{ "element": "P", "occu": 1 }],
        "abc": [0.923881, 0.319831, 0.299046],
        "properties": { "magmom": 0.0 },
        "label": "P",
        "xyz": [4.661816681185999, 1.6138371618859997, 4.376139880728]
      },
      {
        "species": [{ "element": "P", "occu": 1 }],
        "abc": [0.076118999999999, 0.680169, 0.799045999999999],
        "properties": { "magmom": 0.0 },
        "label": "P",
        "xyz": [0.38408931881399494, 3.4320688381139997, 11.692973880727987]
      },
      {
        "species": [{ "element": "P", "occu": 1 }],
        "abc": [0.319831, 0.923881, 0.700954],
        "properties": { "magmom": 0.0 },
        "label": "P",
        "xyz": [1.6138371618859997, 4.661816681185999, 10.257528119272]
      },
      {
        "species": [{ "element": "P", "occu": 1 }],
        "abc": [0.819831, 0.576118999999999, 0.049046],
        "properties": { "magmom": 0.0 },
        "label": "P",
        "xyz": [4.136790161885999, 2.907042318813995, 0.717722880728]
      },
      {
        "species": [{ "element": "P", "occu": 1 }],
        "abc": [0.098455, 0.987838, 0.374815],
        "properties": { "magmom": -0.0 },
        "label": "P",
        "xyz": [0.49679467523, 4.984537691228, 5.48491827142]
      },
      {
        "species": [{ "element": "P", "occu": 1 }],
        "abc": [0.512162, 0.598455, 0.624815],
        "properties": { "magmom": -0.0 },
        "label": "P",
        "xyz": [2.5843213087719996, 3.0197476752299997, 9.14333527142]
      },
      {
        "species": [{ "element": "P", "occu": 1 }],
        "abc": [0.487838, 0.401545, 0.124815],
        "properties": { "magmom": -0.0 },
        "label": "P",
        "xyz": [2.461584691228, 2.02615832477, 1.82650127142]
      },
      {
        "species": [{ "element": "P", "occu": 1 }],
        "abc": [0.598455, 0.512162, 0.375185],
        "properties": { "magmom": -0.0 },
        "label": "P",
        "xyz": [3.0197476752299997, 2.5843213087719996, 5.49033272858]
      },
      {
        "species": [{ "element": "P", "occu": 1 }],
        "abc": [0.401545, 0.487838, 0.875185],
        "properties": { "magmom": -0.0 },
        "label": "P",
        "xyz": [2.02615832477, 2.461584691228, 12.80716672858]
      },
      {
        "species": [{ "element": "P", "occu": 1 }],
        "abc": [0.901544999999999, 0.012162, 0.874815],
        "properties": { "magmom": -0.0 },
        "label": "P",
        "xyz": [4.549111324769995, 0.06136830877199999, 12.80175227142]
      },
      {
        "species": [{ "element": "P", "occu": 1 }],
        "abc": [0.987838, 0.098455, 0.625185],
        "properties": { "magmom": -0.0 },
        "label": "P",
        "xyz": [4.984537691228, 0.49679467523, 9.14874972858]
      },
      {
        "species": [{ "element": "P", "occu": 1 }],
        "abc": [0.012162, 0.901544999999999, 0.125185],
        "properties": { "magmom": -0.0 },
        "label": "P",
        "xyz": [0.06136830877199999, 4.549111324769995, 1.8319157285799998]
      },
      {
        "species": [{ "element": "P", "occu": 1 }],
        "abc": [0.680169, 0.076118999999999, 0.200954],
        "properties": { "magmom": 0.0 },
        "label": "P",
        "xyz": [3.4320688381139997, 0.38408931881399494, 2.940694119272]
      },
      {
        "species": [{ "element": "P", "occu": 1 }],
        "abc": [0.423881, 0.180169, 0.450953999999999],
        "properties": { "magmom": 0.0 },
        "label": "P",
        "xyz": [2.138863681186, 0.9091158381139999, 6.599111119271986]
      },
      {
        "species": [{ "element": "P", "occu": 1 }],
        "abc": [0.576118999999999, 0.819831, 0.950954],
        "properties": { "magmom": 0.0 },
        "label": "P",
        "xyz": [2.907042318813995, 4.136790161885999, 13.915945119272]
      },
      {
        "species": [{ "element": "P", "occu": 1 }],
        "abc": [0.180169, 0.423881, 0.549045999999999],
        "properties": { "magmom": 0.0 },
        "label": "P",
        "xyz": [0.9091158381139999, 2.138863681186, 8.034556880727987]
      }
    ]
  },
  "task_ids": null,
  "uncorrected_energy_per_atom": null,
  "energy_per_atom": -9.109611099142857,
  "formation_energy_per_atom": -0.12582952852380702,
  "energy_above_hull": 0.063425560916666,
  "is_stable": false,
  "equilibrium_reaction_energy_per_atom": null,
  "decomposes_to": null,
  "xas": null,
  "grain_boundaries": null,
  "band_gap": 0.966299999999999,
  "cbm": null,
  "vbm": null,
  "efermi": 5.41870544,
  "is_gap_direct": null,
  "is_metal": null,
  "es_source_calc_id": null,
  "bandstructure": null,
  "dos": null,
  "dos_energy_up": null,
  "dos_energy_down": null,
  "is_magnetic": null,
  "ordering": null,
  "total_magnetization": 0.0030843,
  "total_magnetization_normalized_vol": null,
  "total_magnetization_normalized_formula_units": null,
  "num_magnetic_sites": null,
  "num_unique_magnetic_sites": null,
  "types_of_magnetic_species": null,
  "bulk_modulus": null,
  "shear_modulus": null,
  "universal_anisotropy": null,
  "homogeneous_poisson": null,
  "e_total": null,
  "e_ionic": null,
  "e_electronic": null,
  "n": null,
  "e_ij_max": null,
  "weighted_surface_energy_EV_PER_ANG2": null,
  "weighted_surface_energy": null,
  "weighted_work_function": null,
  "surface_anisotropy": null,
  "shape_factor": null,
  "has_reconstructed": null,
  "possible_species": null,
  "has_props": null,
  "theoretical": null,
  "database_IDs": null,
  "fields_not_requested": [
    "builder_meta",
    "nsites",
    "elements",
    "nelements",
    "composition",
    "composition_reduced",
    "chemsys",
    "symmetry",
    "property_name",
    "deprecated",
    "deprecation_reasons",
    "last_updated",
    "origins",
    "warnings",
    "task_ids",
    "uncorrected_energy_per_atom",
    "equilibrium_reaction_energy_per_atom",
    "decomposes_to",
    "xas",
    "grain_boundaries",
    "cbm",
    "vbm",
    "is_gap_direct",
    "is_metal",
    "es_source_calc_id",
    "bandstructure",
    "dos",
    "dos_energy_up",
    "dos_energy_down",
    "is_magnetic",
    "ordering",
    "total_magnetization_normalized_vol",
    "total_magnetization_normalized_formula_units",
    "num_magnetic_sites",
    "num_unique_magnetic_sites",
    "types_of_magnetic_species",
    "bulk_modulus",
    "shear_modulus",
    "universal_anisotropy",
    "homogeneous_poisson",
    "e_total",
    "e_ionic",
    "e_electronic",
    "n",
    "e_ij_max",
    "weighted_surface_energy_EV_PER_ANG2",
    "weighted_surface_energy",
    "weighted_work_function",
    "surface_anisotropy",
    "shape_factor",
    "has_reconstructed",
    "possible_species",
    "has_props",
    "theoretical",
    "database_IDs"
  ]
}
