{"builder_meta": null, "nsites": null, "elements": null, "nelements": null, "composition": null, "composition_reduced": null, "formula_pretty": "ZnPd2", "formula_anonymous": "AB2", "chemsys": null, "volume": 172.97646023571534, "density": 10.684536707775292, "density_atomic": 14.414705019642945, "symmetry": null, "property_name": null, "material_id": "mp-1103252", "deprecated": null, "deprecation_reasons": null, "last_updated": null, "origins": null, "warnings": null, "structure": {"@module": "pymatgen.core.structure", "@class": "Structure", "charge": 0, "lattice": {"matrix": [[0.0, -4.16592258, 0.0], [-5.35763478, 0.0, 0.0], [0.0, 0.0, -7.7500179]], "pbc": [true, true, true], "a": 4.16592258, "b": 5.35763478, "c": 7.7500179, "alpha": 90.0, "beta": 90.0, "gamma": 90.0, "volume": 172.97646023571534}, "properties": {}, "sites": [{"species": [{"element": "Zn", "occu": 1}], "abc": [0.75, 0.1863803, 0.59913732], "properties": {"magmom": -0.0}, "label": "Zn", "xyz": [-0.9985575775868339, -3.124441935, -4.643324954558028]}, {"species": [{"element": "Zn", "occu": 1}], "abc": [0.75, 0.686380299999999, 0.90086268], "properties": {"magmom": -0.0}, "label": "Zn", "xyz": [-3.677374967586829, -3.124441935, -6.981701895441971]}, {"species": [{"element": "Zn", "occu": 1}], "abc": [0.25, 0.8136197, 0.40086268], "properties": {"magmom": -0.0}, "label": "Zn", "xyz": [-4.359077202413165, -1.041480645, -3.106692945441972]}, {"species": [{"element": "Zn", "occu": 1}], "abc": [0.25, 0.3136197, 0.09913732], "properties": {"magmom": -0.0}, "label": "Zn", "xyz": [-1.680259812413166, -1.041480645, -0.768316004558028]}, {"species": [{"element": "Pd", "occu": 1}], "abc": [0.75, 0.67329054, 0.56949112], "properties": {"magmom": -0.0}, "label": "Pd", "xyz": [-3.607244814148981, -3.124441935, -4.413566373891048]}, {"species": [{"element": "Pd", "occu": 1}], "abc": [0.75, 0.17329054, 0.93050888], "properties": {"magmom": -0.0}, "label": "Pd", "xyz": [-0.9284274241489812, -3.124441935, -7.211460476108951]}, {"species": [{"element": "Pd", "occu": 1}], "abc": [0.25, 0.32670946, 0.43050888], "properties": {"magmom": -0.0}, "label": "Pd", "xyz": [-1.7503899658510187, -1.041480645, -3.336451526108952]}, {"species": [{"element": "Pd", "occu": 1}], "abc": [0.25, 0.82670946, 0.06949112], "properties": {"magmom": -0.0}, "label": "Pd", "xyz": [-4.429207355851019, -1.041480645, -0.538557423891048]}, {"species": [{"element": "Pd", "occu": 1}], "abc": [0.75, 0.53794739, 0.22372551000000002], "properties": {"magmom": 0.0}, "label": "Pd", "xyz": [-2.882125646474224, -3.124441935, -1.733876707186629]}, {"species": [{"element": "Pd", "occu": 1}], "abc": [0.75, 0.03794739, 0.27627449], "properties": {"magmom": 0.0}, "label": "Pd", "xyz": [-0.20330825647422418, -3.124441935, -2.1411322428133706]}, {"species": [{"element": "Pd", "occu": 1}], "abc": [0.25, 0.46205261000000003, 0.77627449], "properties": {"magmom": 0.0}, "label": "Pd", "xyz": [-2.475509133525776, -1.041480645, -6.016141192813371]}, {"species": [{"element": "Pd", "occu": 1}], "abc": [0.25, 0.96205261, 0.72372551], "properties": {"magmom": 0.0}, "label": "Pd", "xyz": [-5.154326523525776, -1.041480645, -5.608885657186629]}]}, "task_ids": null, "uncorrected_energy_per_atom": null, "energy_per_atom": -4.335366550833335, "formation_energy_per_atom": -0.462197474166667, "energy_above_hull": 0.0, "is_stable": true, "equilibrium_reaction_energy_per_atom": null, "decomposes_to": null, "xas": null, "grain_boundaries": null, "band_gap": 0.0, "cbm": null, "vbm": null, "efermi": 3.7863569, "is_gap_direct": null, "is_metal": null, "es_source_calc_id": null, "bandstructure": null, "dos": null, "dos_energy_up": null, "dos_energy_down": null, "is_magnetic": null, "ordering": null, "total_magnetization": 0.0, "total_magnetization_normalized_vol": null, "total_magnetization_normalized_formula_units": null, "num_magnetic_sites": null, "num_unique_magnetic_sites": null, "types_of_magnetic_species": null, "bulk_modulus": null, "shear_modulus": null, "universal_anisotropy": null, "homogeneous_poisson": null, "e_total": null, "e_ionic": null, "e_electronic": null, "n": null, "e_ij_max": null, "weighted_surface_energy_EV_PER_ANG2": null, "weighted_surface_energy": null, "weighted_work_function": null, "surface_anisotropy": null, "shape_factor": null, "has_reconstructed": null, "possible_species": null, "has_props": null, "theoretical": null, "database_IDs": null, "fields_not_requested": ["builder_meta", "nsites", "elements", "nelements", "composition", "composition_reduced", "chemsys", "symmetry", "property_name", "deprecated", "deprecation_reasons", "last_updated", "origins", "warnings", "task_ids", "uncorrected_energy_per_atom", "equilibrium_reaction_energy_per_atom", "decomposes_to", "xas", "grain_boundaries", "cbm", "vbm", "is_gap_direct", "is_metal", "es_source_calc_id", "bandstructure", "dos", "dos_energy_up", "dos_energy_down", "is_magnetic", "ordering", "total_magnetization_normalized_vol", "total_magnetization_normalized_formula_units", "num_magnetic_sites", "num_unique_magnetic_sites", "types_of_magnetic_species", "bulk_modulus", "shear_modulus", "universal_anisotropy", "homogeneous_poisson", "e_total", "e_ionic", "e_electronic", "n", "e_ij_max", "weighted_surface_energy_EV_PER_ANG2", "weighted_surface_energy", "weighted_work_function", "surface_anisotropy", "shape_factor", "has_reconstructed", "possible_species", "has_props", "theoretical", "database_IDs"]}