{"builder_meta": null, "nsites": null, "elements": null, "nelements": null, "composition": null, "composition_reduced": null, "formula_pretty": "ZnPd4", "formula_anonymous": "AB4", "chemsys": null, "volume": 75.87247596757388, "density": 10.747935391301072, "density_atomic": 15.174495193514776, "symmetry": null, "property_name": null, "material_id": "mp-1215579", "deprecated": null, "deprecation_reasons": null, "last_updated": null, "origins": null, "warnings": null, "structure": {"@module": "pymatgen.core.structure", "@class": "Structure", "charge": 0, "lattice": {"matrix": [[10.989098, -1.4137300000000002, 0.0], [10.989098, 1.4137300000000002, 0.0], [10.807224, 0.0, 2.441888]], "pbc": [true, true, true], "a": 11.079661879610947, "b": 11.079661879610947, "c": 11.079661889729307, "alpha": 14.66148915590075, "beta": 14.66148915590075, "gamma": 14.661491359110718, "volume": 75.87247596757389}, "properties": {}, "sites": [{"species": [{"element": "Zn", "occu": 1}], "abc": [0.0, 0.0, 0.0], "properties": {"magmom": 0.0}, "label": "Zn", "xyz": [0.0, 0.0, 0.0]}, {"species": [{"element": "Pd", "occu": 1}], "abc": [0.604424, 0.604424, 0.604424], "properties": {"magmom": -0.001}, "label": "Pd", "xyz": [19.81629469808, 0.0, 1.4759357125119998]}, {"species": [{"element": "Pd", "occu": 1}], "abc": [0.201184, 0.201184, 0.201184], "properties": {"magmom": -0.009000000000000001}, "label": "Pd", "xyz": [6.595901937280001, 0.0, 0.491268795392]}, {"species": [{"element": "Pd", "occu": 1}], "abc": [0.798816, 0.798816, 0.798816], "properties": {"magmom": -0.009000000000000001}, "label": "Pd", "xyz": [26.189518062719998, 0.0, 1.950619204608]}, {"species": [{"element": "Pd", "occu": 1}], "abc": [0.395576, 0.395576, 0.395576], "properties": {"magmom": -0.001}, "label": "Pd", "xyz": [12.96912530192, 0.0, 0.965952287488]}]}, "task_ids": null, "uncorrected_energy_per_atom": null, "energy_per_atom": -4.626360446, "formation_energy_per_atom": -0.230506275999999, "energy_above_hull": 0.04681220850000101, "is_stable": false, "equilibrium_reaction_energy_per_atom": null, "decomposes_to": null, "xas": null, "grain_boundaries": null, "band_gap": 0.0, "cbm": null, "vbm": null, "efermi": 3.4613183, "is_gap_direct": null, "is_metal": null, "es_source_calc_id": null, "bandstructure": null, "dos": null, "dos_energy_up": null, "dos_energy_down": null, "is_magnetic": null, "ordering": null, "total_magnetization": 0.020821199999999002, "total_magnetization_normalized_vol": null, "total_magnetization_normalized_formula_units": null, "num_magnetic_sites": null, "num_unique_magnetic_sites": null, "types_of_magnetic_species": null, "bulk_modulus": null, "shear_modulus": null, "universal_anisotropy": null, "homogeneous_poisson": null, "e_total": null, "e_ionic": null, "e_electronic": null, "n": null, "e_ij_max": null, "weighted_surface_energy_EV_PER_ANG2": null, "weighted_surface_energy": null, "weighted_work_function": null, "surface_anisotropy": null, "shape_factor": null, "has_reconstructed": null, "possible_species": null, "has_props": null, "theoretical": null, "database_IDs": null, "fields_not_requested": ["builder_meta", "nsites", "elements", "nelements", "composition", "composition_reduced", "chemsys", "symmetry", "property_name", "deprecated", "deprecation_reasons", "last_updated", "origins", "warnings", "task_ids", "uncorrected_energy_per_atom", "equilibrium_reaction_energy_per_atom", "decomposes_to", "xas", "grain_boundaries", "cbm", "vbm", "is_gap_direct", "is_metal", "es_source_calc_id", "bandstructure", "dos", "dos_energy_up", "dos_energy_down", "is_magnetic", "ordering", "total_magnetization_normalized_vol", "total_magnetization_normalized_formula_units", "num_magnetic_sites", "num_unique_magnetic_sites", "types_of_magnetic_species", "bulk_modulus", "shear_modulus", "universal_anisotropy", "homogeneous_poisson", "e_total", "e_ionic", "e_electronic", "n", "e_ij_max", "weighted_surface_energy_EV_PER_ANG2", "weighted_surface_energy", "weighted_work_function", "surface_anisotropy", "shape_factor", "has_reconstructed", "possible_species", "has_props", "theoretical", "database_IDs"]}