{"builder_meta": null, "nsites": null, "elements": null, "nelements": null, "composition": null, "composition_reduced": null, "formula_pretty": "ZnS", "formula_anonymous": "AB", "chemsys": null, "volume": 1094.3999128517012, "density": 4.141139565305906, "density_atomic": 19.542855586637522, "symmetry": null, "property_name": null, "material_id": "mp-554820", "deprecated": null, "deprecation_reasons": null, "last_updated": null, "origins": null, "warnings": null, "structure": {"@module": "pymatgen.core.structure", "@class": "Structure", "charge": 0, "lattice": {"matrix": [[1.90439394, -3.29850637, 0.0], [1.90439394, 3.29850637, -0.0], [0.0, 0.0, 87.11078676]], "pbc": [true, true, true], "a": 3.808787280964809, "b": 3.808787280964809, "c": 87.11078676, "alpha": 90.0, "beta": 90.0, "gamma": 119.99998959462755, "volume": 1094.3999128517012}, "properties": {}, "sites": [{"species": [{"element": "Zn", "occu": 1}], "abc": [0.0, -0.0, 0.07142576], "properties": {"magmom": 0.0}, "label": "Zn", "xyz": [0.0, 0.0, 6.221954148530938]}, {"species": [{"element": "Zn", "occu": 1}], "abc": [0.333333, 0.666667, 0.3214279], "properties": {"magmom": -0.0}, "label": "Zn", "xyz": [1.9043939400000003, 1.0995043223375802, 27.9998372556146]}, {"species": [{"element": "Zn", "occu": 1}], "abc": [0.333333, 0.666667, 0.214296799999999], "properties": {"magmom": 0.0}, "label": "Zn", "xyz": [1.9043939400000003, 1.0995043223375802, 18.667562848150283]}, {"species": [{"element": "Zn", "occu": 1}], "abc": [0.666667, 0.333333, 0.14286344], "properties": {"magmom": 0.0}, "label": "Zn", "xyz": [1.9043939400000003, -1.0995043223375802, 12.444946657640054]}, {"species": [{"element": "Zn", "occu": 1}], "abc": [0.666667, 0.333333, 0.35714384], "properties": {"magmom": -0.0}, "label": "Zn", "xyz": [1.9043939400000003, -1.0995043223375802, 31.111080888887557]}, {"species": [{"element": "Zn", "occu": 1}], "abc": [0.0, -0.0, 0.39286574], "properties": {"magmom": -0.0}, "label": "Zn", "xyz": [0.0, 0.0, 34.2228437024496]}, {"species": [{"element": "Zn", "occu": 1}], "abc": [0.666667, 0.333333, 0.46429231], "properties": {"magmom": -0.0}, "label": "Zn", "xyz": [1.9043939400000003, -1.0995043223375802, 40.44486841071781]}, {"species": [{"element": "Zn", "occu": 1}], "abc": [-0.0, -0.0, 0.82142129], "properties": {"magmom": 0.0}, "label": "Zn", "xyz": [0.0, 0.0, 71.55465483331412]}, {"species": [{"element": "Zn", "occu": 1}], "abc": [0.333333, 0.666667, 0.64285942], "properties": {"magmom": 0.0}, "label": "Zn", "xyz": [1.9043939400000003, 1.0995043223375802, 55.999989852277274]}, {"species": [{"element": "Zn", "occu": 1}], "abc": [0.666667, 0.333333, 0.571431799999999], "properties": {"magmom": 0.0}, "label": "Zn", "xyz": [1.9043939400000003, -1.0995043223375802, 49.777873677682884]}, {"species": [{"element": "Zn", "occu": 1}], "abc": [0.666667, 0.333333, 0.78570871], "properties": {"magmom": -0.0}, "label": "Zn", "xyz": [1.9043939400000003, -1.0995043223375802, 68.44370389228467]}, {"species": [{"element": "Zn", "occu": 1}], "abc": [0.333333, 0.666667, 0.53571956], "properties": {"magmom": 0.0}, "label": "Zn", "xyz": [1.9043939400000003, 1.0995043223375802, 46.66695235432102]}, {"species": [{"element": "Zn", "occu": 1}], "abc": [0.666667, 0.333333, 0.85715597], "properties": {"magmom": -0.0}, "label": "Zn", "xyz": [1.9043939400000003, -1.0995043223375802, 74.66753092273095]}, {"species": [{"element": "Zn", "occu": 1}], "abc": [0.333333, 0.666667, 0.8928621600000001], "properties": {"magmom": 0.0}, "label": "Zn", "xyz": [1.9043939400000003, 1.0995043223375802, 77.777925225833]}, {"species": [{"element": "Zn", "occu": 1}], "abc": [-0.0, 0.0, 0.28571786], "properties": {"magmom": 0.0}, "label": "Zn", "xyz": [0.0, 0.0, 24.88910757598353]}, {"species": [{"element": "Zn", "occu": 1}], "abc": [0.0, 0.0, 0.6071445], "properties": {"magmom": 0.0}, "label": "Zn", "xyz": [0.0, 0.0, 52.88883507200681]}, {"species": [{"element": "Zn", "occu": 1}], "abc": [0.666667, 0.333333, 0.67857137], "properties": {"magmom": 0.0}, "label": "Zn", "xyz": [1.9043939400000003, -1.0995043223375802, 59.11088591351106]}, {"species": [{"element": "Zn", "occu": 1}], "abc": [-0.0, 0.0, 0.71429456], "properties": {"magmom": 0.0}, "label": "Zn", "xyz": [0.0, 0.0, 62.22276109998803]}, {"species": [{"element": "Zn", "occu": 1}], "abc": [0.333333, 0.666667, 0.10714483], "properties": {"magmom": -0.0}, "label": "Zn", "xyz": [1.9043939400000003, 1.0995043223375802, 9.33347043856645]}, {"species": [{"element": "Zn", "occu": 1}], "abc": [-0.0, 0.0, 0.92857249], "properties": {"magmom": 0.0}, "label": "Zn", "xyz": [0.0, 0.0, 80.88868016759223]}, {"species": [{"element": "Zn", "occu": 1}], "abc": [0.666667, 0.333333, 0.035727590000000004], "properties": {"magmom": 0.0}, "label": "Zn", "xyz": [1.9043939400000003, -1.0995043223375802, 3.1122584739387085]}, {"species": [{"element": "Zn", "occu": 1}], "abc": [0.0, -0.0, 0.17857434], "properties": {"magmom": 0.0}, "label": "Zn", "xyz": [0.0, 0.0, 15.555751252547738]}, {"species": [{"element": "Zn", "occu": 1}], "abc": [0.333333, 0.666667, 0.99999939], "properties": {"magmom": 0.0}, "label": "Zn", "xyz": [1.9043939400000003, 1.0995043223375802, 87.11073362242007]}, {"species": [{"element": "Zn", "occu": 1}], "abc": [0.0, -0.0, 0.49999862], "properties": {"magmom": -0.0}, "label": "Zn", "xyz": [0.0, 0.0, 43.55527316711427]}, {"species": [{"element": "Zn", "occu": 1}], "abc": [0.666667, 0.333333, 0.96428569], "properties": {"magmom": 0.0}, "label": "Zn", "xyz": [1.9043939400000003, -1.0995043223375802, 83.99968511730945]}, {"species": [{"element": "Zn", "occu": 1}], "abc": [0.333333, 0.666667, 0.42857329], "properties": {"magmom": 0.0}, "label": "Zn", "xyz": [1.9043939400000003, 1.0995043223375802, 37.33335647622164]}, {"species": [{"element": "Zn", "occu": 1}], "abc": [0.666667, 0.333333, 0.25000429], "properties": {"magmom": 0.0}, "label": "Zn", "xyz": [1.9043939400000003, -1.0995043223375802, 21.7780703952752]}, {"species": [{"element": "Zn", "occu": 1}], "abc": [0.333333, 0.666667, 0.74999666], "properties": {"magmom": 0.0}, "label": "Zn", "xyz": [1.9043939400000003, 1.0995043223375802, 65.33279911997222]}, {"species": [{"element": "S", "occu": 1}], "abc": [-0.0, 0.0, 0.20535532], "properties": {"magmom": -0.0}, "label": "S", "xyz": [0.0, 0.0, 17.88866349055156]}, {"species": [{"element": "S", "occu": 1}], "abc": [0.333333, 0.666667, 0.3482096], "properties": {"magmom": 0.0}, "label": "S", "xyz": [1.9043939400000003, 1.0995043223375802, 30.332812213384894]}, {"species": [{"element": "S", "occu": 1}], "abc": [0.666667, 0.333333, 0.8124722], "properties": {"magmom": 0.0}, "label": "S", "xyz": [1.9043939400000003, -1.0995043223375802, 70.77509256262806]}, {"species": [{"element": "S", "occu": 1}], "abc": [0.666667, 0.333333, 0.99104451], "properties": {"magmom": -0.0}, "label": "S", "xyz": [1.9043939400000003, -1.0995043223375802, 86.33066698027869]}, {"species": [{"element": "S", "occu": 1}], "abc": [0.333333, 0.666667, 0.45535498], "properties": {"magmom": 0.0}, "label": "S", "xyz": [1.9043939400000003, 1.0995043223375802, 39.66633056288406]}, {"species": [{"element": "S", "occu": 1}], "abc": [0.333333, 0.666667, 0.02680453], "properties": {"magmom": -0.0}, "label": "S", "xyz": [1.9043939400000003, 1.0995043223375802, 2.334963697032023]}, {"species": [{"element": "S", "occu": 1}], "abc": [0.0, 0.0, 0.6339251300000001], "properties": {"magmom": -0.0}, "label": "S", "xyz": [0.0, 0.0, 55.22171682123528]}, {"species": [{"element": "S", "occu": 1}], "abc": [0.0, 0.0, 0.848228], "properties": {"magmom": 0.0}, "label": "S", "xyz": [0.0, 0.0, 73.88980843186127]}, {"species": [{"element": "S", "occu": 1}], "abc": [0.333333, 0.666667, 0.91964201], "properties": {"magmom": 0.0}, "label": "S", "xyz": [1.9043939400000003, 1.0995043223375802, 80.11073902864779]}, {"species": [{"element": "S", "occu": 1}], "abc": [0.0, 0.0, 0.41964822], "properties": {"magmom": 0.0}, "label": "S", "xyz": [0.0, 0.0, 36.555886606633564]}, {"species": [{"element": "S", "occu": 1}], "abc": [0.0, 0.0, 0.09820889000000001], "properties": {"magmom": 0.0}, "label": "S", "xyz": [0.0, 0.0, 8.555053674726297]}, {"species": [{"element": "S", "occu": 1}], "abc": [0.333333, 0.666667, 0.13392577], "properties": {"magmom": -0.0}, "label": "S", "xyz": [1.9043939400000003, 1.0995043223375802, 11.666379192138805]}, {"species": [{"element": "S", "occu": 1}], "abc": [0.0, 0.0, 0.31249747], "properties": {"magmom": -0.0}, "label": "S", "xyz": [0.0, 0.0, 27.221900472209494]}, {"species": [{"element": "S", "occu": 1}], "abc": [0.666667, 0.333333, 0.8839263900000001], "properties": {"magmom": -0.0}, "label": "S", "xyz": [1.9043939400000003, -1.0995043223375802, 76.9995232708266]}, {"species": [{"element": "S", "occu": 1}], "abc": [0.0, 0.0, 0.52677879], "properties": {"magmom": 0.0}, "label": "S", "xyz": [0.0, 0.0, 45.88811484538083]}, {"species": [{"element": "S", "occu": 1}], "abc": [0.666667, 0.333333, 0.38392879], "properties": {"magmom": 0.0}, "label": "S", "xyz": [1.9043939400000003, -1.0995043223375802, 33.44433895671482]}, {"species": [{"element": "S", "occu": 1}], "abc": [0.333333, 0.666667, 0.66963597], "properties": {"magmom": -0.0}, "label": "S", "xyz": [1.9043939400000003, 1.0995043223375802, 58.33251618949575]}, {"species": [{"element": "S", "occu": 1}], "abc": [0.333333, 0.666667, 0.77678412], "properties": {"magmom": 0.0}, "label": "S", "xyz": [1.9043939400000003, 1.0995043223375802, 67.66627583587425]}, {"species": [{"element": "S", "occu": 1}], "abc": [0.666667, 0.333333, 0.5982099], "properties": {"magmom": -0.0}, "label": "S", "xyz": [1.9043939400000003, -1.0995043223375802, 52.11053503662092]}, {"species": [{"element": "S", "occu": 1}], "abc": [0.333333, 0.666667, 0.24107333], "properties": {"magmom": -0.0}, "label": "S", "xyz": [1.9043939400000003, 1.0995043223375802, 21.00008744315311]}, {"species": [{"element": "S", "occu": 1}], "abc": [-0.0, 0.0, 0.7410712700000001], "properties": {"magmom": 0.0}, "label": "S", "xyz": [0.0, 0.0, 64.55530137493238]}, {"species": [{"element": "S", "occu": 1}], "abc": [0.0, 0.0, 0.95535281], "properties": {"magmom": -0.0}, "label": "S", "xyz": [0.0, 0.0, 83.2215349124768]}, {"species": [{"element": "S", "occu": 1}], "abc": [0.666667, 0.333333, 0.70535421], "properties": {"magmom": -0.0}, "label": "S", "xyz": [1.9043939400000003, -1.0995043223375802, 61.443960177578255]}, {"species": [{"element": "S", "occu": 1}], "abc": [0.666667, 0.333333, 0.27678726], "properties": {"magmom": -0.0}, "label": "S", "xyz": [1.9043939400000003, -1.0995043223375802, 24.111155983744673]}, {"species": [{"element": "S", "occu": 1}], "abc": [0.666667, 0.333333, 0.06249789], "properties": {"magmom": -0.0}, "label": "S", "xyz": [1.9043939400000003, -1.0995043223375802, 5.444240368739936]}, {"species": [{"element": "S", "occu": 1}], "abc": [0.666667, 0.333333, 0.49106895], "properties": {"magmom": 0.0}, "label": "S", "xyz": [1.9043939400000003, -1.0995043223375802, 42.7774025879071]}, {"species": [{"element": "S", "occu": 1}], "abc": [0.333333, 0.666667, 0.56249701], "properties": {"magmom": -0.0}, "label": "S", "xyz": [1.9043939400000003, 1.0995043223375802, 48.99955709124758]}, {"species": [{"element": "S", "occu": 1}], "abc": [0.666667, 0.333333, 0.16963851], "properties": {"magmom": -0.0}, "label": "S", "xyz": [1.9043939400000003, -1.0995043223375802, 14.777344070894125]}]}, "task_ids": null, "uncorrected_energy_per_atom": null, "energy_per_atom": -9.435018265714286, "formation_energy_per_atom": -0.9622174221205351, "energy_above_hull": 0.0, "is_stable": true, "equilibrium_reaction_energy_per_atom": null, "decomposes_to": null, "xas": null, "grain_boundaries": null, "band_gap": 2.0195, "cbm": null, "vbm": null, "efermi": 1.87931033, "is_gap_direct": null, "is_metal": null, "es_source_calc_id": null, "bandstructure": null, "dos": null, "dos_energy_up": null, "dos_energy_down": null, "is_magnetic": null, "ordering": null, "total_magnetization": 0.0, "total_magnetization_normalized_vol": null, "total_magnetization_normalized_formula_units": null, "num_magnetic_sites": null, "num_unique_magnetic_sites": null, "types_of_magnetic_species": null, "bulk_modulus": null, "shear_modulus": null, "universal_anisotropy": null, "homogeneous_poisson": null, "e_total": null, "e_ionic": null, "e_electronic": null, "n": null, "e_ij_max": null, "weighted_surface_energy_EV_PER_ANG2": null, "weighted_surface_energy": null, "weighted_work_function": null, "surface_anisotropy": null, "shape_factor": null, "has_reconstructed": null, "possible_species": null, "has_props": null, "theoretical": null, "database_IDs": null, "fields_not_requested": ["builder_meta", "nsites", "elements", "nelements", "composition", "composition_reduced", "chemsys", "symmetry", "property_name", "deprecated", "deprecation_reasons", "last_updated", "origins", "warnings", "task_ids", "uncorrected_energy_per_atom", "equilibrium_reaction_energy_per_atom", "decomposes_to", "xas", "grain_boundaries", "cbm", "vbm", "is_gap_direct", "is_metal", "es_source_calc_id", "bandstructure", "dos", "dos_energy_up", "dos_energy_down", "is_magnetic", "ordering", "total_magnetization_normalized_vol", "total_magnetization_normalized_formula_units", "num_magnetic_sites", "num_unique_magnetic_sites", "types_of_magnetic_species", "bulk_modulus", "shear_modulus", "universal_anisotropy", "homogeneous_poisson", "e_total", "e_ionic", "e_electronic", "n", "e_ij_max", "weighted_surface_energy_EV_PER_ANG2", "weighted_surface_energy", "weighted_work_function", "surface_anisotropy", "shape_factor", "has_reconstructed", "possible_species", "has_props", "theoretical", "database_IDs"]}