{
  "builder_meta": null,
  "nsites": null,
  "elements": null,
  "nelements": null,
  "composition": null,
  "composition_reduced": null,
  "formula_pretty": "ZnS2",
  "formula_anonymous": "AB2",
  "chemsys": null,
  "volume": 210.15992820545503,
  "density": 4.094111983860375,
  "density_atomic": 17.513327350454585,
  "symmetry": null,
  "property_name": null,
  "material_id": "mp-1102743",
  "deprecated": null,
  "deprecation_reasons": null,
  "last_updated": null,
  "origins": null,
  "warnings": null,
  "structure": {
    "@module": "pymatgen.core.structure",
    "@class": "Structure",
    "charge": 0,
    "lattice": {
      "matrix": [
        [5.94543046, -0.0, 0.0],
        [-0.0, 5.94543046, -0.0],
        [-0.0, 0.0, 5.94543046]
      ],
      "pbc": [true, true, true],
      "a": 5.94543046,
      "b": 5.94543046,
      "c": 5.94543046,
      "alpha": 90.0,
      "beta": 90.0,
      "gamma": 90.0,
      "volume": 210.15992820545503
    },
    "properties": {},
    "sites": [
      {
        "species": [{ "element": "Zn", "occu": 1 }],
        "abc": [0.5, 0.5, -0.0],
        "properties": { "magmom": 0.0 },
        "label": "Zn",
        "xyz": [2.97271523, 2.97271523, 0.0]
      },
      {
        "species": [{ "element": "Zn", "occu": 1 }],
        "abc": [0.5, 0.0, 0.5],
        "properties": { "magmom": 0.0 },
        "label": "Zn",
        "xyz": [2.97271523, 0.0, 2.97271523]
      },
      {
        "species": [{ "element": "Zn", "occu": 1 }],
        "abc": [-0.0, 0.5, 0.5],
        "properties": { "magmom": 0.0 },
        "label": "Zn",
        "xyz": [0.0, 2.97271523, 2.97271523]
      },
      {
        "species": [{ "element": "Zn", "occu": 1 }],
        "abc": [-0.0, 0.0, -0.0],
        "properties": { "magmom": 0.0 },
        "label": "Zn",
        "xyz": [0.0, 0.0, 0.0]
      },
      {
        "species": [{ "element": "S", "occu": 1 }],
        "abc": [0.10024639, 0.89975361, 0.39975361],
        "properties": { "magmom": 0.0 },
        "label": "S",
        "xyz": [0.5960079406110395, 5.34942251938896, 2.3767072893889605]
      },
      {
        "species": [{ "element": "S", "occu": 1 }],
        "abc": [0.89975361, 0.39975361, 0.10024639],
        "properties": { "magmom": 0.0 },
        "label": "S",
        "xyz": [5.34942251938896, 2.3767072893889605, 0.5960079406110395]
      },
      {
        "species": [{ "element": "S", "occu": 1 }],
        "abc": [0.39975361, 0.10024639, 0.89975361],
        "properties": { "magmom": 0.0 },
        "label": "S",
        "xyz": [2.3767072893889605, 0.5960079406110395, 5.34942251938896]
      },
      {
        "species": [{ "element": "S", "occu": 1 }],
        "abc": [0.60024639, 0.60024639, 0.60024639],
        "properties": { "magmom": 0.0 },
        "label": "S",
        "xyz": [3.5687231706110394, 3.5687231706110394, 3.5687231706110394]
      },
      {
        "species": [{ "element": "S", "occu": 1 }],
        "abc": [0.89975361, 0.10024639, 0.60024639],
        "properties": { "magmom": 0.0 },
        "label": "S",
        "xyz": [5.34942251938896, 0.5960079406110395, 3.5687231706110394]
      },
      {
        "species": [{ "element": "S", "occu": 1 }],
        "abc": [0.10024639, 0.60024639, 0.89975361],
        "properties": { "magmom": 0.0 },
        "label": "S",
        "xyz": [0.5960079406110395, 3.5687231706110394, 5.34942251938896]
      },
      {
        "species": [{ "element": "S", "occu": 1 }],
        "abc": [0.60024639, 0.89975361, 0.10024639],
        "properties": { "magmom": 0.0 },
        "label": "S",
        "xyz": [3.5687231706110394, 5.34942251938896, 0.5960079406110395]
      },
      {
        "species": [{ "element": "S", "occu": 1 }],
        "abc": [0.39975361, 0.39975361, 0.39975361],
        "properties": { "magmom": 0.0 },
        "label": "S",
        "xyz": [2.3767072893889605, 2.3767072893889605, 2.3767072893889605]
      }
    ]
  },
  "task_ids": null,
  "uncorrected_energy_per_atom": null,
  "energy_per_atom": -8.82260282,
  "formation_energy_per_atom": -0.495735896874999,
  "energy_above_hull": 0.14574238453869,
  "is_stable": false,
  "equilibrium_reaction_energy_per_atom": null,
  "decomposes_to": null,
  "xas": null,
  "grain_boundaries": null,
  "band_gap": 1.4156,
  "cbm": null,
  "vbm": null,
  "efermi": 4.65550768,
  "is_gap_direct": null,
  "is_metal": null,
  "es_source_calc_id": null,
  "bandstructure": null,
  "dos": null,
  "dos_energy_up": null,
  "dos_energy_down": null,
  "is_magnetic": null,
  "ordering": null,
  "total_magnetization": 0.0,
  "total_magnetization_normalized_vol": null,
  "total_magnetization_normalized_formula_units": null,
  "num_magnetic_sites": null,
  "num_unique_magnetic_sites": null,
  "types_of_magnetic_species": null,
  "bulk_modulus": null,
  "shear_modulus": null,
  "universal_anisotropy": null,
  "homogeneous_poisson": null,
  "e_total": null,
  "e_ionic": null,
  "e_electronic": null,
  "n": null,
  "e_ij_max": null,
  "weighted_surface_energy_EV_PER_ANG2": null,
  "weighted_surface_energy": null,
  "weighted_work_function": null,
  "surface_anisotropy": null,
  "shape_factor": null,
  "has_reconstructed": null,
  "possible_species": null,
  "has_props": null,
  "theoretical": null,
  "database_IDs": null,
  "fields_not_requested": [
    "builder_meta",
    "nsites",
    "elements",
    "nelements",
    "composition",
    "composition_reduced",
    "chemsys",
    "symmetry",
    "property_name",
    "deprecated",
    "deprecation_reasons",
    "last_updated",
    "origins",
    "warnings",
    "task_ids",
    "uncorrected_energy_per_atom",
    "equilibrium_reaction_energy_per_atom",
    "decomposes_to",
    "xas",
    "grain_boundaries",
    "cbm",
    "vbm",
    "is_gap_direct",
    "is_metal",
    "es_source_calc_id",
    "bandstructure",
    "dos",
    "dos_energy_up",
    "dos_energy_down",
    "is_magnetic",
    "ordering",
    "total_magnetization_normalized_vol",
    "total_magnetization_normalized_formula_units",
    "num_magnetic_sites",
    "num_unique_magnetic_sites",
    "types_of_magnetic_species",
    "bulk_modulus",
    "shear_modulus",
    "universal_anisotropy",
    "homogeneous_poisson",
    "e_total",
    "e_ionic",
    "e_electronic",
    "n",
    "e_ij_max",
    "weighted_surface_energy_EV_PER_ANG2",
    "weighted_surface_energy",
    "weighted_work_function",
    "surface_anisotropy",
    "shape_factor",
    "has_reconstructed",
    "possible_species",
    "has_props",
    "theoretical",
    "database_IDs"
  ]
}
