{
  "builder_meta": null,
  "nsites": null,
  "elements": null,
  "nelements": null,
  "composition": null,
  "composition_reduced": null,
  "formula_pretty": "ZnSb",
  "formula_anonymous": "AB",
  "chemsys": null,
  "volume": 391.75922728067167,
  "density": 6.346784757848934,
  "density_atomic": 24.48495170504198,
  "symmetry": null,
  "property_name": null,
  "material_id": "mp-753",
  "deprecated": null,
  "deprecation_reasons": null,
  "last_updated": null,
  "origins": null,
  "warnings": null,
  "structure": {
    "@module": "pymatgen.core.structure",
    "@class": "Structure",
    "charge": 0,
    "lattice": {
      "matrix": [
        [6.22274292, -0.0, 0.0],
        [-0.0, 7.73399725, 0.0],
        [0.0, 0.0, 8.14016788]
      ],
      "pbc": [true, true, true],
      "a": 6.22274292,
      "b": 7.73399725,
      "c": 8.14016788,
      "alpha": 90.0,
      "beta": 90.0,
      "gamma": 90.0,
      "volume": 391.75922728067167
    },
    "properties": {},
    "sites": [
      {
        "species": [{ "element": "Zn", "occu": 1 }],
        "abc": [0.46076497, 0.10378246, 0.87345371],
        "properties": { "magmom": -0.0 },
        "label": "Zn",
        "xyz": [2.8672219548515123, 0.802653260238235, 7.110059834808835]
      },
      {
        "species": [{ "element": "Zn", "occu": 1 }],
        "abc": [0.96076497, 0.39621754000000003, 0.12654629],
        "properties": { "magmom": -0.0 },
        "label": "Zn",
        "xyz": [5.978593414851512, 3.064345364761765, 1.0301080451911653]
      },
      {
        "species": [{ "element": "Zn", "occu": 1 }],
        "abc": [0.5392350300000001, 0.60378246, 0.6265462900000001],
        "properties": { "magmom": -0.0 },
        "label": "Zn",
        "xyz": [3.355520965148488, 4.669651885238235, 5.100191985191166]
      },
      {
        "species": [{ "element": "Zn", "occu": 1 }],
        "abc": [0.039235030000000004, 0.89621754, 0.37345371],
        "properties": { "magmom": -0.0 },
        "label": "Zn",
        "xyz": [0.24414950514848763, 6.931343989761765, 3.0399758948088347]
      },
      {
        "species": [{ "element": "Zn", "occu": 1 }],
        "abc": [0.5392350300000001, 0.89621754, 0.12654629],
        "properties": { "magmom": -0.0 },
        "label": "Zn",
        "xyz": [3.355520965148488, 6.931343989761765, 1.0301080451911653]
      },
      {
        "species": [{ "element": "Zn", "occu": 1 }],
        "abc": [0.039235030000000004, 0.60378246, 0.87345371],
        "properties": { "magmom": -0.0 },
        "label": "Zn",
        "xyz": [0.24414950514848763, 4.669651885238235, 7.110059834808835]
      },
      {
        "species": [{ "element": "Zn", "occu": 1 }],
        "abc": [0.46076497, 0.39621754000000003, 0.37345371],
        "properties": { "magmom": -0.0 },
        "label": "Zn",
        "xyz": [2.8672219548515123, 3.064345364761765, 3.0399758948088347]
      },
      {
        "species": [{ "element": "Zn", "occu": 1 }],
        "abc": [0.96076497, 0.10378246, 0.6265462900000001],
        "properties": { "magmom": -0.0 },
        "label": "Zn",
        "xyz": [5.978593414851512, 0.802653260238235, 5.100191985191166]
      },
      {
        "species": [{ "element": "Sb", "occu": 1 }],
        "abc": [0.14089299, 0.08405623, 0.10877972],
        "properties": { "magmom": 0.0 },
        "label": "Sb",
        "xyz": [0.8767408560001307, 0.6500906516653675, 0.8854851827393936]
      },
      {
        "species": [{ "element": "Sb", "occu": 1 }],
        "abc": [0.64089299, 0.41594377, 0.89122028],
        "properties": { "magmom": 0.0 },
        "label": "Sb",
        "xyz": [3.9881123160001306, 3.2169079733346324, 7.254682697260606]
      },
      {
        "species": [{ "element": "Sb", "occu": 1 }],
        "abc": [0.85910701, 0.5840562300000001, 0.39122028000000003],
        "properties": { "magmom": 0.0 },
        "label": "Sb",
        "xyz": [5.346002063999869, 4.517089276665368, 3.1845987572606065]
      },
      {
        "species": [{ "element": "Sb", "occu": 1 }],
        "abc": [0.35910701, 0.91594377, 0.60877972],
        "properties": { "magmom": 0.0 },
        "label": "Sb",
        "xyz": [2.2346306039998693, 7.083906598334632, 4.955569122739393]
      },
      {
        "species": [{ "element": "Sb", "occu": 1 }],
        "abc": [0.85910701, 0.91594377, 0.89122028],
        "properties": { "magmom": 0.0 },
        "label": "Sb",
        "xyz": [5.346002063999869, 7.083906598334632, 7.254682697260606]
      },
      {
        "species": [{ "element": "Sb", "occu": 1 }],
        "abc": [0.35910701, 0.5840562300000001, 0.10877972],
        "properties": { "magmom": 0.0 },
        "label": "Sb",
        "xyz": [2.2346306039998693, 4.517089276665368, 0.8854851827393936]
      },
      {
        "species": [{ "element": "Sb", "occu": 1 }],
        "abc": [0.14089299, 0.41594377, 0.60877972],
        "properties": { "magmom": 0.0 },
        "label": "Sb",
        "xyz": [0.8767408560001307, 3.2169079733346324, 4.955569122739393]
      },
      {
        "species": [{ "element": "Sb", "occu": 1 }],
        "abc": [0.64089299, 0.08405623, 0.39122028000000003],
        "properties": { "magmom": 0.0 },
        "label": "Sb",
        "xyz": [3.9881123160001306, 0.6500906516653675, 3.1845987572606065]
      }
    ]
  },
  "task_ids": null,
  "uncorrected_energy_per_atom": null,
  "energy_per_atom": -17.3699069225,
  "formation_energy_per_atom": -0.06144775499999901,
  "energy_above_hull": 0.0,
  "is_stable": true,
  "equilibrium_reaction_energy_per_atom": null,
  "decomposes_to": null,
  "xas": null,
  "grain_boundaries": null,
  "band_gap": 0.028200000000000003,
  "cbm": null,
  "vbm": null,
  "efermi": 4.7378534,
  "is_gap_direct": null,
  "is_metal": null,
  "es_source_calc_id": null,
  "bandstructure": null,
  "dos": null,
  "dos_energy_up": null,
  "dos_energy_down": null,
  "is_magnetic": null,
  "ordering": null,
  "total_magnetization": 0.0,
  "total_magnetization_normalized_vol": null,
  "total_magnetization_normalized_formula_units": null,
  "num_magnetic_sites": null,
  "num_unique_magnetic_sites": null,
  "types_of_magnetic_species": null,
  "bulk_modulus": null,
  "shear_modulus": null,
  "universal_anisotropy": null,
  "homogeneous_poisson": null,
  "e_total": null,
  "e_ionic": null,
  "e_electronic": null,
  "n": null,
  "e_ij_max": null,
  "weighted_surface_energy_EV_PER_ANG2": null,
  "weighted_surface_energy": null,
  "weighted_work_function": null,
  "surface_anisotropy": null,
  "shape_factor": null,
  "has_reconstructed": null,
  "possible_species": null,
  "has_props": null,
  "theoretical": null,
  "database_IDs": null,
  "fields_not_requested": [
    "builder_meta",
    "nsites",
    "elements",
    "nelements",
    "composition",
    "composition_reduced",
    "chemsys",
    "symmetry",
    "property_name",
    "deprecated",
    "deprecation_reasons",
    "last_updated",
    "origins",
    "warnings",
    "task_ids",
    "uncorrected_energy_per_atom",
    "equilibrium_reaction_energy_per_atom",
    "decomposes_to",
    "xas",
    "grain_boundaries",
    "cbm",
    "vbm",
    "is_gap_direct",
    "is_metal",
    "es_source_calc_id",
    "bandstructure",
    "dos",
    "dos_energy_up",
    "dos_energy_down",
    "is_magnetic",
    "ordering",
    "total_magnetization_normalized_vol",
    "total_magnetization_normalized_formula_units",
    "num_magnetic_sites",
    "num_unique_magnetic_sites",
    "types_of_magnetic_species",
    "bulk_modulus",
    "shear_modulus",
    "universal_anisotropy",
    "homogeneous_poisson",
    "e_total",
    "e_ionic",
    "e_electronic",
    "n",
    "e_ij_max",
    "weighted_surface_energy_EV_PER_ANG2",
    "weighted_surface_energy",
    "weighted_work_function",
    "surface_anisotropy",
    "shape_factor",
    "has_reconstructed",
    "possible_species",
    "has_props",
    "theoretical",
    "database_IDs"
  ]
}
