{"builder_meta": null, "nsites": null, "elements": null, "nelements": null, "composition": null, "composition_reduced": null, "formula_pretty": "ZnTe", "formula_anonymous": "AB", "chemsys": null, "volume": 171.17748428055455, "density": 5.616959252306423, "density_atomic": 28.52958071342576, "symmetry": null, "property_name": null, "material_id": "mp-2176", "deprecated": null, "deprecation_reasons": null, "last_updated": null, "origins": null, "warnings": null, "structure": {"@module": "pymatgen.core.structure", "@class": "Structure", "charge": 0, "lattice": {"matrix": [[4.32281272, -0.00020256, 0.0], [-2.16123088, 3.74376758, -0.0], [-0.0, -0.0, 10.57750131]], "pbc": [true, true, true], "a": 4.322812724745816, "b": 4.32281327490844, "c": 10.57750131, "alpha": 90.0, "beta": 90.0, "gamma": 119.99999490438097, "volume": 171.17748428055455}, "properties": {}, "sites": [{"species": [{"element": "Zn", "occu": 1}], "abc": [0.66660313, 0.6673303700000001, 0.69339317], "properties": {"magmom": -0.0}, "label": "Zn", "xyz": [1.439345486749988, 2.4981947772253923, 7.334367164020053]}, {"species": [{"element": "Zn", "occu": 1}], "abc": [0.00072723, 0.33339687, 0.36005917], "properties": {"magmom": -0.0}, "label": "Zn", "xyz": [-0.7174039316449801, 1.248160245871766, 3.8085263423525126]}, {"species": [{"element": "Zn", "occu": 1}], "abc": [0.33266963, 0.99927277, 0.02672617], "properties": {"magmom": -0.0}, "label": "Zn", "xyz": [-0.7215906599454445, 3.740977614342544, 0.2826960981862827]}, {"species": [{"element": "Te", "occu": 1}], "abc": [0.66744543, 0.66687124, 0.44327383000000004], "properties": {"magmom": 0.0}, "label": "Te", "xyz": [1.4439788778379783, 2.4964757306000984, 4.688729517513718]}, {"species": [{"element": "Te", "occu": 1}], "abc": [0.33312876, 0.00057319, 0.77660683], "properties": {"magmom": 0.0}, "label": "Te", "xyz": [1.43881444519772, 0.0020784115775546, 8.214559761679947]}, {"species": [{"element": "Te", "occu": 1}], "abc": [0.99942681, 0.33255457, 0.10994083], "properties": {"magmom": 0.0}, "label": "Te", "xyz": [3.6016077210079014, 1.244804573852207, 1.1628992733474874]}]}, "task_ids": null, "uncorrected_energy_per_atom": null, "energy_per_atom": -2.885687785, "formation_energy_per_atom": -0.6841630333333321, "energy_above_hull": 0.0, "is_stable": true, "equilibrium_reaction_energy_per_atom": null, "decomposes_to": null, "xas": null, "grain_boundaries": null, "band_gap": 1.073299999999999, "cbm": null, "vbm": null, "efermi": 2.85423966, "is_gap_direct": null, "is_metal": null, "es_source_calc_id": null, "bandstructure": null, "dos": null, "dos_energy_up": null, "dos_energy_down": null, "is_magnetic": null, "ordering": null, "total_magnetization": 0.0, "total_magnetization_normalized_vol": null, "total_magnetization_normalized_formula_units": null, "num_magnetic_sites": null, "num_unique_magnetic_sites": null, "types_of_magnetic_species": null, "bulk_modulus": null, "shear_modulus": null, "universal_anisotropy": null, "homogeneous_poisson": null, "e_total": null, "e_ionic": null, "e_electronic": null, "n": null, "e_ij_max": null, "weighted_surface_energy_EV_PER_ANG2": null, "weighted_surface_energy": null, "weighted_work_function": null, "surface_anisotropy": null, "shape_factor": null, "has_reconstructed": null, "possible_species": null, "has_props": null, "theoretical": null, "database_IDs": null, "fields_not_requested": ["builder_meta", "nsites", "elements", "nelements", "composition", "composition_reduced", "chemsys", "symmetry", "property_name", "deprecated", "deprecation_reasons", "last_updated", "origins", "warnings", "task_ids", "uncorrected_energy_per_atom", "equilibrium_reaction_energy_per_atom", "decomposes_to", "xas", "grain_boundaries", "cbm", "vbm", "is_gap_direct", "is_metal", "es_source_calc_id", "bandstructure", "dos", "dos_energy_up", "dos_energy_down", "is_magnetic", "ordering", "total_magnetization_normalized_vol", "total_magnetization_normalized_formula_units", "num_magnetic_sites", "num_unique_magnetic_sites", "types_of_magnetic_species", "bulk_modulus", "shear_modulus", "universal_anisotropy", "homogeneous_poisson", "e_total", "e_ionic", "e_electronic", "n", "e_ij_max", "weighted_surface_energy_EV_PER_ANG2", "weighted_surface_energy", "weighted_work_function", "surface_anisotropy", "shape_factor", "has_reconstructed", "possible_species", "has_props", "theoretical", "database_IDs"]}