{"builder_meta": null, "nsites": null, "elements": null, "nelements": null, "composition": null, "composition_reduced": null, "formula_pretty": "Zr2Al3", "formula_anonymous": "A2B3", "chemsys": null, "volume": 185.74767959278702, "density": 4.709331813444076, "density_atomic": 18.574767959278702, "symmetry": null, "property_name": null, "material_id": "mp-1482", "deprecated": null, "deprecation_reasons": null, "last_updated": null, "origins": null, "warnings": null, "structure": {"@module": "pymatgen.core.structure", "@class": "Structure", "charge": 0, "lattice": {"matrix": [[5.44238634, 0.00119533, -1.03537836], [-2.9918137, 4.54621096, -1.03534157], [0.00435879, 0.00815275, 7.50252084]], "pbc": [true, true, true], "a": 5.539998091244138, "b": 5.539938219412006, "c": 7.502526535842251, "alpha": 100.7374425553558, "beta": 100.73812135615087, "gamma": 119.69775860916525, "volume": 185.74767959278702}, "properties": {}, "sites": [{"species": [{"element": "Zr", "occu": 1}], "abc": [0.86532466, 0.72772182, 0.6053903700000001], "properties": {"magmom": -0.0}, "label": "Zr", "xyz": [2.534861767875063, 3.3143468587800022, 2.8925747882798962]}, {"species": [{"element": "Zr", "occu": 1}], "abc": [0.12232302, 0.25995324000000003, 0.39463172], "properties": {"magmom": 0.0}, "label": "Zr", "xyz": [-0.11028241488102238, 1.185165818906237, 2.564941699959011]}, {"species": [{"element": "Zr", "occu": 1}], "abc": [0.97769491, 0.6152993800000001, 0.10538125], "properties": {"magmom": 0.0}, "label": "Zr", "xyz": [3.4805916429247103, 2.7993086000799123, -0.8587041543351241]}, {"species": [{"element": "Zr", "occu": 1}], "abc": [0.50994103, 0.87232001, 0.89462301], "properties": {"magmom": -0.0}, "label": "Zr", "xyz": [0.16937661300515097, 3.973653975645477, 5.2807967004346015]}, {"species": [{"element": "Al", "occu": 1}], "abc": [0.134577299999999, 0.13448364000000002, 0.99997142], "properties": {"magmom": 0.0}, "label": "Al", "xyz": [0.3344303280419903, 0.6197043793871084, 7.223731490810251]}, {"species": [{"element": "Al", "occu": 1}], "abc": [0.38449631, 0.88458143, 0.49997832000000003], "properties": {"magmom": -0.0}, "label": "Al", "xyz": [-0.5517460752137529, 4.026029590301085, 2.4371546799452926]}, {"species": [{"element": "Al", "occu": 1}], "abc": [0.45485035, 0.31681176, 0.7688123], "properties": {"magmom": -0.0}, "label": "Al", "xyz": [1.530980659060224, 1.44710472631658, 4.969079708377043]}, {"species": [{"element": "Al", "occu": 1}], "abc": [0.54802701, 0.68596206, 0.23119848], "properties": {"magmom": -0.0}, "label": "Al", "xyz": [0.9313117700094602, 3.121068211849861, 0.4569510713659857]}, {"species": [{"element": "Al", "occu": 1}], "abc": [0.56680201, 0.20482057, 0.26880184], "properties": {"magmom": 0.0}, "label": "Al", "xyz": [2.473142180112908, 0.9340265098151206, 1.2177776203597472]}, {"species": [{"element": "Al", "occu": 1}], "abc": [0.935960399999999, 0.29804408, 0.73120928], "properties": {"magmom": 0.0}, "label": "Al", "xyz": [4.205352921690606, 1.3620514110615687, 4.208262291908046]}]}, "task_ids": null, "uncorrected_energy_per_atom": null, "energy_per_atom": -13.720164376, "formation_energy_per_atom": -0.5809886159999991, "energy_above_hull": 0.007218464399997001, "is_stable": false, "equilibrium_reaction_energy_per_atom": null, "decomposes_to": null, "xas": null, "grain_boundaries": null, "band_gap": 0.0, "cbm": null, "vbm": null, "efermi": 5.79503639, "is_gap_direct": null, "is_metal": null, "es_source_calc_id": null, "bandstructure": null, "dos": null, "dos_energy_up": null, "dos_energy_down": null, "is_magnetic": null, "ordering": null, "total_magnetization": 0.0, "total_magnetization_normalized_vol": null, "total_magnetization_normalized_formula_units": null, "num_magnetic_sites": null, "num_unique_magnetic_sites": null, "types_of_magnetic_species": null, "bulk_modulus": null, "shear_modulus": null, "universal_anisotropy": null, "homogeneous_poisson": null, "e_total": null, "e_ionic": null, "e_electronic": null, "n": null, "e_ij_max": null, "weighted_surface_energy_EV_PER_ANG2": null, "weighted_surface_energy": null, "weighted_work_function": null, "surface_anisotropy": null, "shape_factor": null, "has_reconstructed": null, "possible_species": null, "has_props": null, "theoretical": null, "database_IDs": null, "fields_not_requested": ["builder_meta", "nsites", "elements", "nelements", "composition", "composition_reduced", "chemsys", "symmetry", "property_name", "deprecated", "deprecation_reasons", "last_updated", "origins", "warnings", "task_ids", "uncorrected_energy_per_atom", "equilibrium_reaction_energy_per_atom", "decomposes_to", "xas", "grain_boundaries", "cbm", "vbm", "is_gap_direct", "is_metal", "es_source_calc_id", "bandstructure", "dos", "dos_energy_up", "dos_energy_down", "is_magnetic", "ordering", "total_magnetization_normalized_vol", "total_magnetization_normalized_formula_units", "num_magnetic_sites", "num_unique_magnetic_sites", "types_of_magnetic_species", "bulk_modulus", "shear_modulus", "universal_anisotropy", "homogeneous_poisson", "e_total", "e_ionic", "e_electronic", "n", "e_ij_max", "weighted_surface_energy_EV_PER_ANG2", "weighted_surface_energy", "weighted_work_function", "surface_anisotropy", "shape_factor", "has_reconstructed", "possible_species", "has_props", "theoretical", "database_IDs"]}