{"builder_meta": null, "nsites": null, "elements": null, "nelements": null, "composition": null, "composition_reduced": null, "formula_pretty": "Zr2Ag", "formula_anonymous": "AB2", "chemsys": null, "volume": 63.911047912578965, "density": 7.54300559155713, "density_atomic": 21.30368263752632, "symmetry": null, "property_name": null, "material_id": "mp-2221", "deprecated": null, "deprecation_reasons": null, "last_updated": null, "origins": null, "warnings": null, "structure": {"@module": "pymatgen.core.structure", "@class": "Structure", "charge": 0, "lattice": {"matrix": [[3.14682517, 0.0, -0.823962899999999], [-0.21574576, 3.13942091, -0.823962899999999], [0.01099934, 0.01178127, 6.46306352]], "pbc": [true, true, true], "a": 3.2529100066128387, "b": 3.252910196067456, "c": 6.463083617543413, "alpha": 104.5753532115046, "beta": 104.5753549364987, "gamma": 89.99999635756382, "volume": 63.911047912578965}, "properties": {}, "sites": [{"species": [{"element": "Zr", "occu": 1}], "abc": [0.66265668, 0.66265668, 0.32531236], "properties": {"magmom": -0.0}, "label": "Zr", "xyz": [1.9458775719008012, 2.084190830090676, 1.0105054070067647]}, {"species": [{"element": "Zr", "occu": 1}], "abc": [0.33734332, 0.33734332, 0.67468764], "properties": {"magmom": -0.0}, "label": "Zr", "xyz": [0.9962011780991987, 1.0670113499093241, 3.8046323129932373]}, {"species": [{"element": "Ag", "occu": 1}], "abc": [-0.0, 0.0, -0.0], "properties": {"magmom": -0.0}, "label": "Ag", "xyz": [0.0, 0.0, 0.0]}]}, "task_ids": null, "uncorrected_energy_per_atom": null, "energy_per_atom": -22.394325716666668, "formation_energy_per_atom": -0.10917206500000001, "energy_above_hull": 0.0, "is_stable": true, "equilibrium_reaction_energy_per_atom": null, "decomposes_to": null, "xas": null, "grain_boundaries": null, "band_gap": 0.0, "cbm": null, "vbm": null, "efermi": 4.21032925, "is_gap_direct": null, "is_metal": null, "es_source_calc_id": null, "bandstructure": null, "dos": null, "dos_energy_up": null, "dos_energy_down": null, "is_magnetic": null, "ordering": null, "total_magnetization": 8e-07, "total_magnetization_normalized_vol": null, "total_magnetization_normalized_formula_units": null, "num_magnetic_sites": null, "num_unique_magnetic_sites": null, "types_of_magnetic_species": null, "bulk_modulus": null, "shear_modulus": null, "universal_anisotropy": null, "homogeneous_poisson": null, "e_total": null, "e_ionic": null, "e_electronic": null, "n": null, "e_ij_max": null, "weighted_surface_energy_EV_PER_ANG2": null, "weighted_surface_energy": null, "weighted_work_function": null, "surface_anisotropy": null, "shape_factor": null, "has_reconstructed": null, "possible_species": null, "has_props": null, "theoretical": null, "database_IDs": null, "fields_not_requested": ["builder_meta", "nsites", "elements", "nelements", "composition", "composition_reduced", "chemsys", "symmetry", "property_name", "deprecated", "deprecation_reasons", "last_updated", "origins", "warnings", "task_ids", "uncorrected_energy_per_atom", "equilibrium_reaction_energy_per_atom", "decomposes_to", "xas", "grain_boundaries", "cbm", "vbm", "is_gap_direct", "is_metal", "es_source_calc_id", "bandstructure", "dos", "dos_energy_up", "dos_energy_down", "is_magnetic", "ordering", "total_magnetization_normalized_vol", "total_magnetization_normalized_formula_units", "num_magnetic_sites", "num_unique_magnetic_sites", "types_of_magnetic_species", "bulk_modulus", "shear_modulus", "universal_anisotropy", "homogeneous_poisson", "e_total", "e_ionic", "e_electronic", "n", "e_ij_max", "weighted_surface_energy_EV_PER_ANG2", "weighted_surface_energy", "weighted_work_function", "surface_anisotropy", "shape_factor", "has_reconstructed", "possible_species", "has_props", "theoretical", "database_IDs"]}