{"builder_meta": null, "nsites": null, "elements": null, "nelements": null, "composition": null, "composition_reduced": null, "formula_pretty": "Zr2Co", "formula_anonymous": "AB2", "chemsys": null, "volume": 110.09891711566502, "density": 7.281141626833729, "density_atomic": 18.349819519277503, "symmetry": null, "property_name": null, "material_id": "mp-628", "deprecated": null, "deprecation_reasons": null, "last_updated": null, "origins": null, "warnings": null, "structure": {"@module": "pymatgen.core.structure", "@class": "Structure", "charge": 0, "lattice": {"matrix": [[5.04357554, 0.05896072, -1.44460805], [-2.85247297, 4.15987165, -1.44460805], [-0.03062325, -0.05896072, 5.24629417]], "pbc": [true, true, true], "a": 5.24671544990902, "b": 5.246715792491447, "c": 5.246714845321734, "alpha": 106.32289356877716, "beta": 106.32291636614603, "gamma": 115.96992174167747, "volume": 110.09891711566502}, "properties": {}, "sites": [{"species": [{"element": "Zr", "occu": 1}], "abc": [0.67529846, 0.17529846000000002, 0.85059393], "properties": {"magmom": -0.0}, "label": "Zr", "xyz": [2.87983672565617, 0.7188835469187208, 3.2336868180591827]}, {"species": [{"element": "Zr", "occu": 1}], "abc": [0.17529846000000002, 0.32470154, 0.5], "properties": {"magmom": -0.0}, "label": "Zr", "xyz": [-0.05738296611170541, 1.3315720943738323, 1.9008430599999997]}, {"species": [{"element": "Zr", "occu": 1}], "abc": [0.8247015400000001, 0.67529846, 0.5], "properties": {"magmom": -0.0}, "label": "Zr", "xyz": [2.217862286111706, 2.828299555626168, 0.45623500999999944]}, {"species": [{"element": "Zr", "occu": 1}], "abc": [0.32470154, 0.8247015400000001, 0.14940607], "properties": {"magmom": -0.0}, "label": "Zr", "xyz": [-0.7193574056561701, 3.4409881030812803, -0.8766087480591824]}, {"species": [{"element": "Co", "occu": 1}], "abc": [0.25, 0.25, -0.0], "properties": {"magmom": -0.0}, "label": "Co", "xyz": [0.5477756425, 1.0547080925, -0.722304025]}, {"species": [{"element": "Co", "occu": 1}], "abc": [0.75, 0.75, -0.0], "properties": {"magmom": -0.0}, "label": "Co", "xyz": [1.6433269275000004, 3.1641242775000005, -2.166912075]}]}, "task_ids": null, "uncorrected_energy_per_atom": null, "energy_per_atom": -19.754566739999998, "formation_energy_per_atom": -0.176628426666667, "energy_above_hull": 0.043680501666667, "is_stable": false, "equilibrium_reaction_energy_per_atom": null, "decomposes_to": null, "xas": null, "grain_boundaries": null, "band_gap": 0.0, "cbm": null, "vbm": null, "efermi": 4.49378539, "is_gap_direct": null, "is_metal": null, "es_source_calc_id": null, "bandstructure": null, "dos": null, "dos_energy_up": null, "dos_energy_down": null, "is_magnetic": null, "ordering": null, "total_magnetization": 3.5e-06, "total_magnetization_normalized_vol": null, "total_magnetization_normalized_formula_units": null, "num_magnetic_sites": null, "num_unique_magnetic_sites": null, "types_of_magnetic_species": null, "bulk_modulus": null, "shear_modulus": null, "universal_anisotropy": null, "homogeneous_poisson": null, "e_total": null, "e_ionic": null, "e_electronic": null, "n": null, "e_ij_max": null, "weighted_surface_energy_EV_PER_ANG2": null, "weighted_surface_energy": null, "weighted_work_function": null, "surface_anisotropy": null, "shape_factor": null, "has_reconstructed": null, "possible_species": null, "has_props": null, "theoretical": null, "database_IDs": null, "fields_not_requested": ["builder_meta", "nsites", "elements", "nelements", "composition", "composition_reduced", "chemsys", "symmetry", "property_name", "deprecated", "deprecation_reasons", "last_updated", "origins", "warnings", "task_ids", "uncorrected_energy_per_atom", "equilibrium_reaction_energy_per_atom", "decomposes_to", "xas", "grain_boundaries", "cbm", "vbm", "is_gap_direct", "is_metal", "es_source_calc_id", "bandstructure", "dos", "dos_energy_up", "dos_energy_down", "is_magnetic", "ordering", "total_magnetization_normalized_vol", "total_magnetization_normalized_formula_units", "num_magnetic_sites", "num_unique_magnetic_sites", "types_of_magnetic_species", "bulk_modulus", "shear_modulus", "universal_anisotropy", "homogeneous_poisson", "e_total", "e_ionic", "e_electronic", "n", "e_ij_max", "weighted_surface_energy_EV_PER_ANG2", "weighted_surface_energy", "weighted_work_function", "surface_anisotropy", "shape_factor", "has_reconstructed", "possible_species", "has_props", "theoretical", "database_IDs"]}