{
  "builder_meta": null,
  "nsites": null,
  "elements": null,
  "nelements": null,
  "composition": null,
  "composition_reduced": null,
  "formula_pretty": "Zr2Cd",
  "formula_anonymous": "AB2",
  "chemsys": null,
  "volume": 66.85774339604652,
  "density": 7.323383407337112,
  "density_atomic": 22.28591446534884,
  "symmetry": null,
  "property_name": null,
  "material_id": "mp-1018104",
  "deprecated": null,
  "deprecation_reasons": null,
  "last_updated": null,
  "origins": null,
  "warnings": null,
  "structure": {
    "@module": "pymatgen.core.structure",
    "@class": "Structure",
    "charge": 0,
    "lattice": {
      "matrix": [
        [3.09052394, -0.00425572, 0.00084387],
        [-0.00425572, 3.090525, 0.00084489],
        [-1.5411896600000001, -1.541189629999999, 6.99899751]
      ],
      "pbc": [true, true, true],
      "a": 3.0905269853185913,
      "b": 3.0905280455962263,
      "c": 7.330518207377747,
      "alpha": 102.10431485376503,
      "beta": 102.1043335492223,
      "gamma": 90.15779070239863,
      "volume": 66.85774339604652
    },
    "properties": {},
    "sites": [
      {
        "species": [{ "element": "Zr", "occu": 1 }],
        "abc": [0.6690959200000001, 0.6690959200000001, 0.33774133],
        "properties": { "magmom": -0.0 },
        "label": "Zr",
        "xyz": [1.5444860284770145, 1.54448674785093, 2.3649806701199476]
      },
      {
        "species": [{ "element": "Zr", "occu": 1 }],
        "abc": [0.33087533, 0.33087533, 0.66219592],
        "properties": { "magmom": -0.0 },
        "label": "Zr",
        "xyz": [0.000600510962825318, 0.0006008815565532455, 4.63526636423445]
      },
      {
        "species": [{ "element": "Cd", "occu": 1 }],
        "abc": [2.875e-5, 2.875e-5, 6.275000000000002e-5],
        "properties": { "magmom": -0.0 },
        "label": "Cd",
        "xyz": [
          -7.979439840000033e-6, -7.979407482499958e-6, 0.0004392356456025001
        ]
      }
    ]
  },
  "task_ids": null,
  "uncorrected_energy_per_atom": null,
  "energy_per_atom": -22.004236993333333,
  "formation_energy_per_atom": -0.13604649333333402,
  "energy_above_hull": 0.0,
  "is_stable": true,
  "equilibrium_reaction_energy_per_atom": null,
  "decomposes_to": null,
  "xas": null,
  "grain_boundaries": null,
  "band_gap": 0.0,
  "cbm": null,
  "vbm": null,
  "efermi": 3.76163975,
  "is_gap_direct": null,
  "is_metal": null,
  "es_source_calc_id": null,
  "bandstructure": null,
  "dos": null,
  "dos_energy_up": null,
  "dos_energy_down": null,
  "is_magnetic": null,
  "ordering": null,
  "total_magnetization": 4.299999999999999e-6,
  "total_magnetization_normalized_vol": null,
  "total_magnetization_normalized_formula_units": null,
  "num_magnetic_sites": null,
  "num_unique_magnetic_sites": null,
  "types_of_magnetic_species": null,
  "bulk_modulus": null,
  "shear_modulus": null,
  "universal_anisotropy": null,
  "homogeneous_poisson": null,
  "e_total": null,
  "e_ionic": null,
  "e_electronic": null,
  "n": null,
  "e_ij_max": null,
  "weighted_surface_energy_EV_PER_ANG2": null,
  "weighted_surface_energy": null,
  "weighted_work_function": null,
  "surface_anisotropy": null,
  "shape_factor": null,
  "has_reconstructed": null,
  "possible_species": null,
  "has_props": null,
  "theoretical": null,
  "database_IDs": null,
  "fields_not_requested": [
    "builder_meta",
    "nsites",
    "elements",
    "nelements",
    "composition",
    "composition_reduced",
    "chemsys",
    "symmetry",
    "property_name",
    "deprecated",
    "deprecation_reasons",
    "last_updated",
    "origins",
    "warnings",
    "task_ids",
    "uncorrected_energy_per_atom",
    "equilibrium_reaction_energy_per_atom",
    "decomposes_to",
    "xas",
    "grain_boundaries",
    "cbm",
    "vbm",
    "is_gap_direct",
    "is_metal",
    "es_source_calc_id",
    "bandstructure",
    "dos",
    "dos_energy_up",
    "dos_energy_down",
    "is_magnetic",
    "ordering",
    "total_magnetization_normalized_vol",
    "total_magnetization_normalized_formula_units",
    "num_magnetic_sites",
    "num_unique_magnetic_sites",
    "types_of_magnetic_species",
    "bulk_modulus",
    "shear_modulus",
    "universal_anisotropy",
    "homogeneous_poisson",
    "e_total",
    "e_ionic",
    "e_electronic",
    "n",
    "e_ij_max",
    "weighted_surface_energy_EV_PER_ANG2",
    "weighted_surface_energy",
    "weighted_work_function",
    "surface_anisotropy",
    "shape_factor",
    "has_reconstructed",
    "possible_species",
    "has_props",
    "theoretical",
    "database_IDs"
  ]
}
