{"builder_meta": null, "nsites": null, "elements": null, "nelements": null, "composition": null, "composition_reduced": null, "formula_pretty": "Zr2Cu", "formula_anonymous": "AB2", "chemsys": null, "volume": 58.009996856272245, "density": 7.041590575522222, "density_atomic": 19.336665618757415, "symmetry": null, "property_name": null, "material_id": "mp-193", "deprecated": null, "deprecation_reasons": null, "last_updated": null, "origins": null, "warnings": null, "structure": {"@module": "pymatgen.core.structure", "@class": "Structure", "charge": 0, "lattice": {"matrix": [[3.10507573, 1e-08, -0.85888002], [-0.23757012, 3.0959745, -0.85888002], [-0.00187001, -0.0020185, 6.03550861]], "pbc": [true, true, true], "a": 3.22167195378273, "b": 3.2216723227731072, "c": 6.035509237227939, "alpha": 105.4794644871919, "beta": 105.47947106410867, "gamma": 89.99999058281516, "volume": 58.009996856272245}, "properties": {}, "sites": [{"species": [{"element": "Zr", "occu": 1}], "abc": [0.34627444, 0.34627444, 0.69254989], "properties": {"magmom": -0.0}, "label": "Zr", "xyz": [0.9916488240798096, 1.0706589277515595, 3.585074428044175]}, {"species": [{"element": "Zr", "occu": 1}], "abc": [0.65372556, 0.65372556, 0.30745011], "properties": {"magmom": -0.0}, "label": "Zr", "xyz": [1.8739867759201907, 2.023297082248441, 0.7326741419558247]}, {"species": [{"element": "Cu", "occu": 1}], "abc": [0.0, 0.0, 0.0], "properties": {"magmom": 0.0}, "label": "Cu", "xyz": [0.0, 0.0, 0.0]}]}, "task_ids": null, "uncorrected_energy_per_atom": null, "energy_per_atom": -7.19899144, "formation_energy_per_atom": -0.13412213, "energy_above_hull": 0.0, "is_stable": true, "equilibrium_reaction_energy_per_atom": null, "decomposes_to": null, "xas": null, "grain_boundaries": null, "band_gap": 0.0, "cbm": null, "vbm": null, "efermi": 4.93404086, "is_gap_direct": null, "is_metal": null, "es_source_calc_id": null, "bandstructure": null, "dos": null, "dos_energy_up": null, "dos_energy_down": null, "is_magnetic": null, "ordering": null, "total_magnetization": 6.4e-06, "total_magnetization_normalized_vol": null, "total_magnetization_normalized_formula_units": null, "num_magnetic_sites": null, "num_unique_magnetic_sites": null, "types_of_magnetic_species": null, "bulk_modulus": null, "shear_modulus": null, "universal_anisotropy": null, "homogeneous_poisson": null, "e_total": null, "e_ionic": null, "e_electronic": null, "n": null, "e_ij_max": null, "weighted_surface_energy_EV_PER_ANG2": null, "weighted_surface_energy": null, "weighted_work_function": null, "surface_anisotropy": null, "shape_factor": null, "has_reconstructed": null, "possible_species": null, "has_props": null, "theoretical": null, "database_IDs": null, "fields_not_requested": ["builder_meta", "nsites", "elements", "nelements", "composition", "composition_reduced", "chemsys", "symmetry", "property_name", "deprecated", "deprecation_reasons", "last_updated", "origins", "warnings", "task_ids", "uncorrected_energy_per_atom", "equilibrium_reaction_energy_per_atom", "decomposes_to", "xas", "grain_boundaries", "cbm", "vbm", "is_gap_direct", "is_metal", "es_source_calc_id", "bandstructure", "dos", "dos_energy_up", "dos_energy_down", "is_magnetic", "ordering", "total_magnetization_normalized_vol", "total_magnetization_normalized_formula_units", "num_magnetic_sites", "num_unique_magnetic_sites", "types_of_magnetic_species", "bulk_modulus", "shear_modulus", "universal_anisotropy", "homogeneous_poisson", "e_total", "e_ionic", "e_electronic", "n", "e_ij_max", "weighted_surface_energy_EV_PER_ANG2", "weighted_surface_energy", "weighted_work_function", "surface_anisotropy", "shape_factor", "has_reconstructed", "possible_species", "has_props", "theoretical", "database_IDs"]}