{"builder_meta": null, "nsites": null, "elements": null, "nelements": null, "composition": null, "composition_reduced": null, "formula_pretty": "Zr2Cl5", "formula_anonymous": "A2B5", "chemsys": null, "volume": 5173.57403385775, "density": 2.7709315936170533, "density_atomic": 30.79508353486756, "symmetry": null, "property_name": null, "material_id": "mp-648774", "deprecated": null, "deprecation_reasons": null, "last_updated": null, "origins": null, "warnings": null, "structure": {"@module": "pymatgen.core.structure", "@class": "Structure", "charge": 0, "lattice": {"matrix": [[17.79212932, 0.0, -6.29046771], [-8.89606466, 15.40843568, -6.29046771], [0.0, 0.0, 18.87140312]], "pbc": [true, true, true], "a": 18.87140296189333, "b": 18.871402718138114, "c": 18.87140312, "alpha": 109.47122107659533, "beta": 109.47122081494132, "gamma": 109.47122071569406, "volume": 5173.57403385775}, "properties": {}, "sites": [{"species": [{"element": "Zr", "occu": 1}], "abc": [0.97267731, 0.9531403900000001, 0.8554715900000001], "properties": {"magmom": 0.511}, "label": "Zr", "xyz": [8.826801946652113, 14.686402393325116, 4.029655175400894]}, {"species": [{"element": "Zr", "occu": 1}], "abc": [0.88279428, 0.02732269, 0.48046308], "properties": {"magmom": 0.511}, "label": "Zr", "xyz": [15.463725575791157, 0.4209999114695792, 3.3419510548487708]}, {"species": [{"element": "Zr", "occu": 1}], "abc": [0.0976688, 0.45314039, 0.48046308], "properties": {"magmom": 0.511}, "label": "Zr", "xyz": [-2.293430289368401, 6.982184553325116, 5.6021650428905545]}, {"species": [{"element": "Zr", "occu": 1}], "abc": [0.4023312, 0.01953692, 0.04685961], "properties": {"magmom": 0.511}, "label": "Zr", "xyz": [6.984527036293537, 0.3010333752053056, -1.769441196382422]}, {"species": [{"element": "Zr", "occu": 1}], "abc": [0.35547159, 0.45314039, 0.47267731], "properties": {"magmom": 0.511}, "label": "Zr", "xyz": [2.293430289368402, 6.982184553325116, 3.833536512578042]}, {"species": [{"element": "Zr", "occu": 1}], "abc": [0.47267731, 0.35547159, 0.45314039], "properties": {"magmom": 0.511}, "label": "Zr", "xyz": [5.24763757671672, 5.477261130582331, 3.3419510551219975]}, {"species": [{"element": "Zr", "occu": 1}], "abc": [0.8554715900000001, 0.38279428, 0.9023312], "properties": {"magmom": 0.511}, "label": "Zr", "xyz": [11.815298492507875, 5.89826104205191, 9.238984351323287]}, {"species": [{"element": "Zr", "occu": 1}], "abc": [0.61720572, 0.01953692, 0.47267731], "properties": {"magmom": 0.511}, "label": "Zr", "xyz": [10.807602283706462, 0.3010333752053056, 4.914675046187053]}, {"species": [{"element": "Zr", "occu": 1}], "abc": [0.04685961, 0.4023312, 0.01953692], "properties": {"magmom": 0.511}, "label": "Zr", "xyz": [-2.7454321289306267, 6.199294417257216, -2.4569311928905546]}, {"species": [{"element": "Zr", "occu": 1}], "abc": [0.02732269, 0.04685961, 0.14452841], "properties": {"magmom": 0.511}, "label": "Zr", "xyz": [0.0692627133478882, 0.7220332866748849, 2.260812524599106]}, {"species": [{"element": "Zr", "occu": 1}], "abc": [0.64452841, 0.5976688, 0.11720572], "properties": {"magmom": 0.511}, "label": "Zr", "xyz": [6.150632531069374, 9.209141262742785, -5.602165048867242]}, {"species": [{"element": "Zr", "occu": 1}], "abc": [0.9531403900000001, 0.8554715900000001, 0.97267731], "properties": {"magmom": 0.511}, "label": "Zr", "xyz": [9.348066499562226, 13.181478970582333, 6.978770362578041]}, {"species": [{"element": "Zr", "occu": 1}], "abc": [0.14452841, 0.61720572, 0.0976688], "properties": {"magmom": 0.511}, "label": "Zr", "xyz": [-2.9192338325078735, 9.510174637948088, -2.9485166513232857]}, {"species": [{"element": "Zr", "occu": 1}], "abc": [0.54685961, 0.52732269, 0.64452841], "properties": {"magmom": 0.511}, "label": "Zr", "xyz": [5.03870015407963, 8.12521775146958, 5.406046374599108]}, {"species": [{"element": "Zr", "occu": 1}], "abc": [0.64452841, 0.54685961, 0.52732269], "properties": {"magmom": 0.511}, "label": "Zr", "xyz": [6.602634370631599, 8.426251126674886, 2.456931187421958]}, {"species": [{"element": "Zr", "occu": 1}], "abc": [0.35547159, 0.4023312, 0.88279428], "properties": {"magmom": 0.511}, "label": "Zr", "xyz": [2.745432128930627, 6.199294417257216, 11.892632748867243]}, {"species": [{"element": "Zr", "occu": 1}], "abc": [0.48046308, 0.88279428, 0.02732269], "properties": {"magmom": 0.511}, "label": "Zr", "xyz": [0.69506625648736, 13.602478882051912, -8.059908906187053]}, {"species": [{"element": "Zr", "occu": 1}], "abc": [0.01953692, 0.04685961, 0.4023312], "properties": {"magmom": 0.511}, "label": "Zr", "xyz": [-0.06926271334788825, 0.7220332866748849, 7.174889034932298]}, {"species": [{"element": "Zr", "occu": 1}], "abc": [0.88279428, 0.35547159, 0.4023312], "properties": {"magmom": 0.511}, "label": "Zr", "xyz": [12.544491743283283, 5.477261130582331, -0.19671720867671283]}, {"species": [{"element": "Zr", "occu": 1}], "abc": [0.61720572, 0.0976688, 0.14452841], "properties": {"magmom": 0.511}, "label": "Zr", "xyz": [10.1125360272191, 1.5049234227427841, -1.76944119735911]}, {"species": [{"element": "Zr", "occu": 1}], "abc": [0.51953692, 0.11720572, 0.97267731], "properties": {"magmom": 0.511}, "label": "Zr", "xyz": [8.200998403512639, 1.8059567979480897, 14.350376606187053]}, {"species": [{"element": "Zr", "occu": 1}], "abc": [0.45314039, 0.48046308, 0.0976688], "properties": {"magmom": 0.511}, "label": "Zr", "xyz": [3.7881017925724816, 7.403184464794695, -4.029655184932298]}, {"species": [{"element": "Zr", "occu": 1}], "abc": [0.45314039, 0.47267731, 0.35547159], "properties": {"magmom": 0.511}, "label": "Zr", "xyz": [3.85736450592037, 7.283217928530421, 0.8844213254008935]}, {"species": [{"element": "Zr", "occu": 1}], "abc": [0.98046308, 0.52732269, 0.38279428], "properties": {"magmom": 0.511}, "label": "Zr", "xyz": [12.75342916592037, 8.12521775146958, -2.260812529872334]}, {"species": [{"element": "Zr", "occu": 1}], "abc": [0.97267731, 0.51953692, 0.11720572], "properties": {"magmom": 0.511}, "label": "Zr", "xyz": [12.684166452572484, 8.005251215205305, -7.174889040127667]}, {"species": [{"element": "Zr", "occu": 1}], "abc": [0.98046308, 0.9531403900000001, 0.5976688], "properties": {"magmom": 0.511}, "label": "Zr", "xyz": [8.965327373347888, 14.686402393325116, -0.8844213349322985]}, {"species": [{"element": "Zr", "occu": 1}], "abc": [0.01953692, 0.47267731, 0.61720572], "properties": {"magmom": 0.511}, "label": "Zr", "xyz": [-3.85736450592037, 7.283217928530421, 8.551280229872331]}, {"species": [{"element": "Zr", "occu": 1}], "abc": [0.9023312, 0.54685961, 0.51953692], "properties": {"magmom": 0.511}, "label": "Zr", "xyz": [11.189494949368402, 8.426251126674886, 0.6883026571094444]}, {"species": [{"element": "Zr", "occu": 1}], "abc": [0.4023312, 0.88279428, 0.35547159], "properties": {"magmom": 0.511}, "label": "Zr", "xyz": [-0.6950662564873618, 13.602478882051912, -1.3757926626408903]}, {"species": [{"element": "Zr", "occu": 1}], "abc": [0.5976688, 0.11720572, 0.64452841], "properties": {"magmom": 0.511}, "label": "Zr", "xyz": [9.591130916487362, 1.8059567979480897, 7.666260362640892]}, {"species": [{"element": "Zr", "occu": 1}], "abc": [0.11720572, 0.64452841, 0.5976688], "properties": {"magmom": 0.511}, "label": "Zr", "xyz": [-3.6484270832832806, 9.931174549417669, 6.4871849086767135]}, {"species": [{"element": "Zr", "occu": 1}], "abc": [0.04685961, 0.14452841, 0.02732269], "properties": {"magmom": 0.511}, "label": "Zr", "xyz": [-0.4520018395622253, 2.2269567094176685, -0.6883026625780412]}, {"species": [{"element": "Zr", "occu": 1}], "abc": [0.47267731, 0.61720572, 0.01953692], "properties": {"magmom": 0.511}, "label": "Zr", "xyz": [2.9192338325078744, 9.510174637948088, -6.48718491484877]}, {"species": [{"element": "Zr", "occu": 1}], "abc": [0.5976688, 0.98046308, 0.9531403900000001], "properties": {"magmom": 0.511}, "label": "Zr", "xyz": [1.9115376237064634, 15.107402304794695, 8.059908896382423]}, {"species": [{"element": "Zr", "occu": 1}], "abc": [0.8554715900000001, 0.97267731, 0.9531403900000001], "properties": {"magmom": 0.511}, "label": "Zr", "xyz": [6.567660915791155, 14.987435768530421, 6.487184905121998]}, {"species": [{"element": "Zr", "occu": 1}], "abc": [0.9023312, 0.8554715900000001, 0.38279428], "properties": {"magmom": 0.511}, "label": "Zr", "xyz": [8.444062820437775, 13.181478970582333, -3.833536521132757]}, {"species": [{"element": "Zr", "occu": 1}], "abc": [0.9531403900000001, 0.5976688, 0.98046308], "properties": {"magmom": 0.511}, "label": "Zr", "xyz": [11.641496788930628, 9.209141262742785, 8.747398892890555]}, {"species": [{"element": "Zr", "occu": 1}], "abc": [0.52732269, 0.38279428, 0.98046308], "properties": {"magmom": 0.511}, "label": "Zr", "xyz": [5.976830827492127, 5.89826104205191, 12.77765261484877]}, {"species": [{"element": "Zr", "occu": 1}], "abc": [0.52732269, 0.64452841, 0.54685961], "properties": {"magmom": 0.511}, "label": "Zr", "xyz": [3.6484270832832806, 9.931174549417669, 2.948516644878004]}, {"species": [{"element": "Zr", "occu": 1}], "abc": [0.0976688, 0.14452841, 0.61720572], "properties": {"magmom": 0.511}, "label": "Zr", "xyz": [0.4520018395622256, 2.2269567094176685, 10.124004221132756]}, {"species": [{"element": "Zr", "occu": 1}], "abc": [0.38279428, 0.98046308, 0.52732269], "properties": {"magmom": 0.511}, "label": "Zr", "xyz": [-1.9115376237064634, 15.107402304794695, 1.3757926538129475]}, {"species": [{"element": "Zr", "occu": 1}], "abc": [0.11720572, 0.97267731, 0.51953692], "properties": {"magmom": 0.511}, "label": "Zr", "xyz": [-6.567660915791155, 14.987435768530421, 2.948516645151228]}, {"species": [{"element": "Zr", "occu": 1}], "abc": [0.51953692, 0.9023312, 0.54685961], "properties": {"magmom": 0.511}, "label": "Zr", "xyz": [1.2164713672191017, 13.903512257257216, 1.3757926536175802]}, {"species": [{"element": "Zr", "occu": 1}], "abc": [0.38279428, 0.9023312, 0.8554715900000001], "properties": {"magmom": 0.511}, "label": "Zr", "xyz": [-1.2164713672191034, 13.903512257257216, 8.059908897359112]}, {"species": [{"element": "Zr", "occu": 1}], "abc": [0.54685961, 0.51953692, 0.9023312], "properties": {"magmom": 0.511}, "label": "Zr", "xyz": [5.107962867427519, 8.005251215205305, 10.320122884932298]}, {"species": [{"element": "Zr", "occu": 1}], "abc": [0.14452841, 0.02732269, 0.04685961], "properties": {"magmom": 0.511}, "label": "Zr", "xyz": [2.328403744208846, 0.4209999114695792, -0.19671720512199764]}, {"species": [{"element": "Zr", "occu": 1}], "abc": [0.48046308, 0.0976688, 0.45314039], "properties": {"magmom": 0.511}, "label": "Zr", "xyz": [7.679593292780898, 1.5049234227427841, 4.914675046382422]}, {"species": [{"element": "Zr", "occu": 1}], "abc": [0.02732269, 0.48046308, 0.88279428], "properties": {"magmom": 0.511}, "label": "Zr", "xyz": [-3.788101792572482, 7.403184464794695, 13.465356740127667]}, {"species": [{"element": "Cl", "occu": 1}], "abc": [0.31628498, 0.52142214, 0.8952029100000001], "properties": {"magmom": 0.006}, "label": "Cl", "xyz": [0.9887781935380415, 8.034299506317955, 11.624165400009984]}, {"species": [{"element": "Cl", "occu": 1}], "abc": [0.64140936, 0.23061626000000002, 0.12745987], "properties": {"magmom": 0.006}, "label": "Cl", "xyz": [9.360461119571063, 3.553435808972157, -3.0801024165099355]}, {"species": [{"element": "Cl", "occu": 1}], "abc": [0.26938374, 0.8585906400000001, 0.37254013], "properties": {"magmom": 0.006}, "label": "Cl", "xyz": [-2.845167511125527, 13.229538651890037, -0.06513144349006339]}, {"species": [{"element": "Cl", "occu": 1}], "abc": [0.47857786, 0.87378077, 0.7948628400000001], "properties": {"magmom": 0.006}, "label": "Cl", "xyz": [0.7417089462242679, 13.463594792965873, 6.493208784393227]}, {"species": [{"element": "Cl", "occu": 1}], "abc": [0.89684361, 0.12745987, 0.98605051], "properties": {"magmom": 0.006}, "label": "Cl", "xyz": [14.822866243860451, 1.9639572086761616, 12.16480870471096]}, {"species": [{"element": "Cl", "occu": 1}], "abc": [0.64140936, 0.910793099999999, 0.51394949], "properties": {"magmom": 0.006}, "label": "Cl", "xyz": [3.3095639706965976, 14.033896899137794, -0.06513144490415002]}, {"species": [{"element": "Cl", "occu": 1}], "abc": [0.14140936, 0.62745987, 0.73061626], "properties": {"magmom": 0.006}, "label": "Cl", "xyz": [-3.065949954896759, 9.668175048676162, 8.951206903959168]}, {"species": [{"element": "Cl", "occu": 1}], "abc": [0.51394949, 0.37254013, 0.60315639], "properties": {"magmom": 0.006}, "label": "Cl", "xyz": [5.830114705103242, 5.740260631323839, 5.805973050233767]}, {"species": [{"element": "Cl", "occu": 1}], "abc": [0.10706085, 0.30353042, 0.05353042], "properties": {"magmom": 0.029}, "label": "Cl", "xyz": [-0.7953857542878353, 4.676928953493386, -1.5726169909399812]}, {"species": [{"element": "Cl", "occu": 1}], "abc": [0.62621923, 0.10479709, 0.92108207], "properties": {"magmom": 0.006}, "label": "Cl", "xyz": [10.209491834010985, 1.6147592207161712, 12.78367649313103]}, {"species": [{"element": "Cl", "occu": 1}], "abc": [0.8585906400000001, 0.37254013, 0.26938374], "properties": {"magmom": 0.006}, "label": "Cl", "xyz": [11.962014614896761, 5.740260631323839, -2.660739203959168]}, {"species": [{"element": "Cl", "occu": 1}], "abc": [0.31628498, 0.29486284, 0.42108207000000003], "properties": {"magmom": 0.006}, "label": "Cl", "xyz": [3.004264375662379, 4.543375104562132, 4.102003861827167]}, {"species": [{"element": "Cl", "occu": 1}], "abc": [0.94646958, 0.89293915, 0.69646958], "properties": {"magmom": 0.029}, "label": "Cl", "xyz": [8.896064748960647, 13.758795458928873, 1.5726169834399837]}, {"species": [{"element": "Cl", "occu": 1}], "abc": [0.7948628400000001, 0.47857786, 0.87378077], "properties": {"magmom": 0.006}, "label": "Cl", "xyz": [9.884842853538043, 7.374136173682046, 8.478931545224205]}, {"species": [{"element": "Cl", "occu": 1}], "abc": [0.75, 0.19646958, 0.30353042], "properties": {"magmom": 0.029}, "label": "Cl", "xyz": [11.596290902596957, 3.0272888865066143, -0.22569141648435043]}, {"species": [{"element": "Cl", "occu": 1}], "abc": [0.62745987, 0.39684361, 0.48605051], "properties": {"magmom": 0.006}, "label": "Cl", "xyz": [7.633500735682565, 6.114739239704005, 2.7291071447109587]}, {"species": [{"element": "Cl", "occu": 1}], "abc": [0.39293915, 0.44646958000000003, 0.19646958], "properties": {"magmom": 0.029}, "label": "Cl", "xyz": [3.019401919287835, 6.879397806506615, -1.5726168665600193]}, {"species": [{"element": "Cl", "occu": 1}], "abc": [0.70513716, 0.57891793, 0.6837150200000001], "properties": {"magmom": 0.006}, "label": "Cl", "xyz": [7.395800200944178, 8.920219688403742, 4.825354680112721]}, {"species": [{"element": "Cl", "occu": 1}], "abc": [0.73061626, 0.089206899999999, 0.10315639], "properties": {"magmom": 0.006}, "label": "Cl", "xyz": [12.205628630696598, 1.3745387808621767, -3.2103652957962194]}, {"species": [{"element": "Cl", "occu": 1}], "abc": [0.98605051, 0.89684361, 0.12745987], "properties": {"magmom": 0.006}, "label": "Cl", "xyz": [9.565559445504132, 13.818957079704004, -9.43893807481607]}, {"species": [{"element": "Cl", "occu": 1}], "abc": [0.87254013, 0.35859064, 0.76938374], "properties": {"magmom": 0.006}, "label": "Cl", "xyz": [12.33430130993883, 5.525320811890036, 6.774962356040833]}, {"species": [{"element": "Cl", "occu": 1}], "abc": [0.89684361, 0.26938374, 0.910793099999999], "properties": {"magmom": 0.006}, "label": "Cl", "xyz": [13.560302319543016, 4.150782031027843, 9.851828261320586]}, {"species": [{"element": "Cl", "occu": 1}], "abc": [0.37254013, 0.26938374, 0.8585906400000001], "properties": {"magmom": 0.006}, "label": "Cl", "xyz": [4.231827000456984, 4.150782031027843, 12.164808705985559]}, {"species": [{"element": "Cl", "occu": 1}], "abc": [0.87378077, 0.7948628400000001, 0.47857786], "properties": {"magmom": 0.006}, "label": "Cl", "xyz": [8.47526923669794, 12.247592944562133, -1.4651130278359101]}, {"species": [{"element": "Cl", "occu": 1}], "abc": [0.410793099999999, 0.14140936, 0.01394949], "properties": {"magmom": 0.006}, "label": "Cl", "xyz": [6.050897148874458, 2.178897028109965, -3.2103652949041517]}, {"species": [{"element": "Cl", "occu": 1}], "abc": [0.7948628400000001, 0.81628498, 0.92108207], "properties": {"magmom": 0.006}, "label": "Cl", "xyz": [6.880578477875663, 12.577674610880088, 7.2472377118271645]}, {"species": [{"element": "Cl", "occu": 1}], "abc": [0.07891793, 0.37378077, 0.8952029100000001], "properties": {"magmom": 0.006}, "label": "Cl", "xyz": [-1.9210598823578806, 5.759376952965874, 14.046048434098102]}, {"species": [{"element": "Cl", "occu": 1}], "abc": [0.23061626000000002, 0.12745987, 0.64140936], "properties": {"magmom": 0.006}, "label": "Cl", "xyz": [2.9692630761395495, 1.9639572086761616, 9.851828264014442]}, {"species": [{"element": "Cl", "occu": 1}], "abc": [0.6837150200000001, 0.70513716, 0.57891793], "properties": {"magmom": 0.006}, "label": "Cl", "xyz": [5.891800284337622, 10.86506057543787, 2.188463838172833]}, {"species": [{"element": "Cl", "occu": 1}], "abc": [0.42108207000000003, 0.31628498, 0.29486284], "properties": {"magmom": 0.006}, "label": "Cl", "xyz": [4.678255010706486, 4.873456770880086, 0.9260919003051056]}, {"species": [{"element": "Cl", "occu": 1}], "abc": [0.05353042, 0.44646958000000003, 0.75], "properties": {"magmom": 0.029}, "label": "Cl", "xyz": [-3.019402097209129, 6.879397806506615, 11.008318485]}, {"species": [{"element": "Cl", "occu": 1}], "abc": [0.75, 0.05353042, 0.44646958000000003], "properties": {"magmom": 0.029}, "label": "Cl", "xyz": [12.867886912403044, 0.8248200334933856, 3.3709252639843523]}, {"species": [{"element": "Cl", "occu": 1}], "abc": [0.60479709, 0.97857786, 0.18371502], "properties": {"magmom": 0.006}, "label": "Cl", "xyz": [2.055136120235252, 15.078354013682045, -6.493208794179003]}, {"species": [{"element": "Cl", "occu": 1}], "abc": [0.51394949, 0.64140936, 0.910793099999999], "properties": {"magmom": 0.006}, "label": "Cl", "xyz": [3.4382366499388297, 9.883114868109965, 9.92019620962672]}, {"species": [{"element": "Cl", "occu": 1}], "abc": [0.44646958000000003, 0.19646958, 0.39293915], "properties": {"magmom": 0.029}, "label": "Cl", "xyz": [6.195838417403044, 3.0272888865066143, 3.3709250758056246]}, {"species": [{"element": "Cl", "occu": 1}], "abc": [0.12621923000000002, 0.20513716, 0.52142214], "properties": {"magmom": 0.006}, "label": "Cl", "xyz": [0.4207954233020583, 3.160842735437869, 7.75558072783591]}, {"species": [{"element": "Cl", "occu": 1}], "abc": [0.19646958, 0.30353042, 0.75], "properties": {"magmom": 0.029}, "label": "Cl", "xyz": [0.7953859322091286, 4.676928953493386, 11.008318485]}, {"species": [{"element": "Cl", "occu": 1}], "abc": [0.19646958, 0.39293915, 0.44646958000000003], "properties": {"magmom": 0.029}, "label": "Cl", "xyz": [8.896064684904559e-08, 6.054577618928873, 4.717850840939981]}, {"species": [{"element": "Cl", "occu": 1}], "abc": [0.69646958, 0.94646958, 0.89293915], "properties": {"magmom": 0.029}, "label": "Cl", "xyz": [3.971822252403042, 14.583615646506615, 6.516158925805627]}, {"species": [{"element": "Cl", "occu": 1}], "abc": [0.12621923000000002, 0.42108207000000003, 0.60479709], "properties": {"magmom": 0.006}, "label": "Cl", "xyz": [-1.5002644590558223, 6.488215991596258, 7.970588535901898]}, {"species": [{"element": "Cl", "occu": 1}], "abc": [0.910793099999999, 0.89684361, 0.26938374], "properties": {"magmom": 0.006}, "label": "Cl", "xyz": [8.226569874495855, 13.818957079704004, -6.287231204152359]}, {"species": [{"element": "Cl", "occu": 1}], "abc": [0.01394949, 0.10315639, 0.87254013], "properties": {"magmom": 0.006}, "label": "Cl", "xyz": [-0.6694947855041307, 1.5894786002959953, 15.729405774816069]}, {"species": [{"element": "Cl", "occu": 1}], "abc": [0.89293915, 0.69646958, 0.94646958], "properties": {"magmom": 0.029}, "label": "Cl", "xyz": [9.691450414287836, 10.731506726506614, 7.863084690939985]}, {"species": [{"element": "Cl", "occu": 1}], "abc": [0.47857786, 0.10479709, 0.6837150200000001], "properties": {"magmom": 0.006}, "label": "Cl", "xyz": [7.582637485989017, 1.6147592207161712, 9.232960475820999]}, {"species": [{"element": "Cl", "occu": 1}], "abc": [0.07891793, 0.20513716, 0.18371502], "properties": {"magmom": 0.006}, "label": "Cl", "xyz": [-0.4207954233020583, 3.160842735437869, 1.680120830112719]}, {"species": [{"element": "Cl", "occu": 1}], "abc": [0.8952029100000001, 0.07891793, 0.37378077], "properties": {"magmom": 0.006}, "label": "Cl", "xyz": [15.225506934246969, 1.2160018484037425, 0.9260918995159253]}, {"species": [{"element": "Cl", "occu": 1}], "abc": [0.39684361, 0.48605051, 0.62745987], "properties": {"magmom": 0.006}, "label": "Cl", "xyz": [2.7367560639496693, 7.489278020566196, 6.287231195183931]}, {"species": [{"element": "Cl", "occu": 1}], "abc": [0.57891793, 0.6837150200000001, 0.70513716], "properties": {"magmom": 0.006}, "label": "Cl", "xyz": [4.217809649293514, 10.534978909119914, 5.364375799694896]}, {"species": [{"element": "Cl", "occu": 1}], "abc": [0.23061626000000002, 0.60315639, 0.5892069], "properties": {"magmom": 0.006}, "label": "Cl", "xyz": [-1.2625639243174342, 9.293696440295996, 5.874340998679397]}, {"species": [{"element": "Cl", "occu": 1}], "abc": [0.02142214, 0.81628498, 0.39520291], "properties": {"magmom": 0.006}, "label": "Cl", "xyz": [-6.8805784778756625, 12.577674610880088, 2.1884638400099847]}, {"species": [{"element": "Cl", "occu": 1}], "abc": [0.55353042, 0.25, 0.94646958], "properties": {"magmom": 0.029}, "label": "Cl", "xyz": [7.624468650193915, 3.85210892, 12.806626823984354]}, {"species": [{"element": "Cl", "occu": 1}], "abc": [0.81628498, 0.39520291, 0.02142214], "properties": {"magmom": 0.006}, "label": "Cl", "xyz": [11.007697284953455, 6.089458619283829, -7.216559613467956]}, {"species": [{"element": "Cl", "occu": 1}], "abc": [0.35859064, 0.76938374, 0.87254013], "properties": {"magmom": 0.006}, "label": "Cl", "xyz": [-0.4643964595710628, 11.854999871027843, 9.370570116509935]}, {"species": [{"element": "Cl", "occu": 1}], "abc": [0.92108207, 0.62621923, 0.10479709], "properties": {"magmom": 0.006}, "label": "Cl", "xyz": [10.817124542357881, 9.649058727034127, -7.755580734098102]}, {"species": [{"element": "Cl", "occu": 1}], "abc": [0.60479709, 0.12621923000000002, 0.42108207000000003], "properties": {"magmom": 0.006}, "label": "Cl", "xyz": [9.637773606224268, 1.9448408870341267, 3.347974933131031]}, {"species": [{"element": "Cl", "occu": 1}], "abc": [0.10315639, 0.87254013, 0.01394949], "properties": {"magmom": 0.006}, "label": "Cl", "xyz": [-5.926801583860451, 13.444478471323839, -5.87434100471096]}, {"species": [{"element": "Cl", "occu": 1}], "abc": [0.48605051, 0.62745987, 0.39684361], "properties": {"magmom": 0.006}, "label": "Cl", "xyz": [3.065949954896759, 9.668175048676162, 0.48449464976623435]}, {"species": [{"element": "Cl", "occu": 1}], "abc": [0.60315639, 0.51394949, 0.37254013], "properties": {"magmom": 0.006}, "label": "Cl", "xyz": [6.159308596050332, 7.919157659433804, 0.00323650481607185]}, {"species": [{"element": "Cl", "occu": 1}], "abc": [0.80353042, 0.69646958, 0.25], "properties": {"magmom": 0.029}, "label": "Cl", "xyz": [8.100678727790871, 10.731506726506614, -4.717850784999999]}, {"species": [{"element": "Cl", "occu": 1}], "abc": [0.29486284, 0.42108207000000003, 0.31628498], "properties": {"magmom": 0.006}, "label": "Cl", "xyz": [1.5002644590558232, 6.488215991596258, 1.4651130198872817]}, {"species": [{"element": "Cl", "occu": 1}], "abc": [0.60315639, 0.5892069, 0.23061626000000002], "properties": {"magmom": 0.006}, "label": "Cl", "xyz": [5.4898138105462015, 9.078756620862192, -3.1484703658476345]}, {"species": [{"element": "Cl", "occu": 1}], "abc": [0.37378077, 0.8952029100000001, 0.07891793], "properties": {"magmom": 0.006}, "label": "Cl", "xyz": [-1.313427174010985, 13.79367645928383, -6.493208793131032]}, {"species": [{"element": "Cl", "occu": 1}], "abc": [0.35859064, 0.089206899999999, 0.48605051], "properties": {"magmom": 0.006}, "label": "Cl", "xyz": [5.586500689303421, 1.3745387808621767, 6.355599144904163]}, {"species": [{"element": "Cl", "occu": 1}], "abc": [0.70513716, 0.62621923, 0.02142214], "properties": {"magmom": 0.006}, "label": "Cl", "xyz": [6.97500477764212, 9.649058727034127, -7.970588542164091]}, {"species": [{"element": "Cl", "occu": 1}], "abc": [0.52142214, 0.8952029100000001, 0.31628498], "properties": {"magmom": 0.006}, "label": "Cl", "xyz": [1.3134271740109833, 13.79367645928383, -2.942492775820998]}, {"species": [{"element": "Cl", "occu": 1}], "abc": [0.02142214, 0.70513716, 0.62621923], "properties": {"magmom": 0.006}, "label": "Cl", "xyz": [-5.891800284337621, 10.86506057543787, 7.247237714775794]}, {"species": [{"element": "Cl", "occu": 1}], "abc": [0.29486284, 0.37378077, 0.97857786], "properties": {"magmom": 0.006}, "label": "Cl", "xyz": [1.9210598823578815, 5.759376952965874, 14.261056242164091]}, {"species": [{"element": "Cl", "occu": 1}], "abc": [0.37378077, 0.97857786, 0.29486284], "properties": {"magmom": 0.006}, "label": "Cl", "xyz": [-2.055136120235252, 15.078354013682045, -2.942492775606775]}, {"species": [{"element": "Cl", "occu": 1}], "abc": [0.8585906400000001, 0.98605051, 0.5892069], "properties": {"magmom": 0.006}, "label": "Cl", "xyz": [6.50418660483559, 15.193495860566196, -0.48449465962673877]}, {"species": [{"element": "Cl", "occu": 1}], "abc": [0.01394949, 0.410793099999999, 0.14140936], "properties": {"magmom": 0.006}, "label": "Cl", "xyz": [-3.406250849453791, 6.329679059137793, -0.0032365099555593524]}, {"species": [{"element": "Cl", "occu": 1}], "abc": [0.5892069, 0.23061626000000002, 0.60315639], "properties": {"magmom": 0.006}, "label": "Cl", "xyz": [8.431668200428938, 3.553435808972157, 6.225336264203774]}, {"species": [{"element": "Cl", "occu": 1}], "abc": [0.81628498, 0.92108207, 0.7948628400000001], "properties": {"magmom": 0.006}, "label": "Cl", "xyz": [6.3294422742469685, 14.192433831596258, 4.071325750305109]}, {"species": [{"element": "Cl", "occu": 1}], "abc": [0.20513716, 0.52142214, 0.12621923000000002], "properties": {"magmom": 0.006}, "label": "Cl", "xyz": [-0.9887781935380406, 8.034299506317955, -2.1884638452242045]}, {"species": [{"element": "Cl", "occu": 1}], "abc": [0.10479709, 0.6837150200000001, 0.47857786], "properties": {"magmom": 0.006}, "label": "Cl", "xyz": [-4.217809649293515, 10.534978909119914, 4.071325753467955]}, {"species": [{"element": "Cl", "occu": 1}], "abc": [0.30353042, 0.75, 0.19646958], "properties": {"magmom": 0.029}, "label": "Cl", "xyz": [-1.2715960098060854, 11.556326760000001, -2.919542443515648]}, {"species": [{"element": "Cl", "occu": 1}], "abc": [0.5892069, 0.8585906400000001, 0.98605051], "properties": {"magmom": 0.006}, "label": "Cl", "xyz": [2.845167511125525, 13.229538651890037, 9.500832994904158]}, {"species": [{"element": "Cl", "occu": 1}], "abc": [0.76938374, 0.39684361, 0.410793099999999], "properties": {"magmom": 0.006}, "label": "Cl", "xyz": [10.158628584317434, 6.114739239704005, 0.41612670132058494]}, {"species": [{"element": "Cl", "occu": 1}], "abc": [0.089206899999999, 0.10315639, 0.73061626], "properties": {"magmom": 0.006}, "label": "Cl", "xyz": [0.6694947855041129, 1.5894786002959953, 12.57769890415237]}, {"species": [{"element": "Cl", "occu": 1}], "abc": [0.910793099999999, 0.51394949, 0.64140936], "properties": {"magmom": 0.006}, "label": "Cl", "xyz": [11.632820723949653, 7.919157659433804, 3.1419973400444405]}, {"species": [{"element": "Cl", "occu": 1}], "abc": [0.62745987, 0.73061626, 0.14140936], "properties": {"magmom": 0.006}, "label": "Cl", "xyz": [4.664237659543017, 11.257653648972157, -5.874341005985558]}, {"species": [{"element": "Cl", "occu": 1}], "abc": [0.92108207, 0.7948628400000001, 0.81628498], "properties": {"magmom": 0.006}, "label": "Cl", "xyz": [9.316860083302057, 12.247592944562133, 4.610346869887282]}, {"species": [{"element": "Cl", "occu": 1}], "abc": [0.69646958, 0.25, 0.80353042], "properties": {"magmom": 0.029}, "label": "Cl", "xyz": [10.167660669806086, 3.85210892, 9.210010143515648]}, {"species": [{"element": "Cl", "occu": 1}], "abc": [0.18371502, 0.07891793, 0.20513716], "properties": {"magmom": 0.006}, "label": "Cl", "xyz": [2.566622385753033, 1.2160018484037425, 2.2191419496948948]}, {"species": [{"element": "Cl", "occu": 1}], "abc": [0.97857786, 0.18371502, 0.60479709], "properties": {"magmom": 0.006}, "label": "Cl", "xyz": [15.776643137875663, 2.8307610691199137, 4.102003859990017]}, {"species": [{"element": "Cl", "occu": 1}], "abc": [0.25, 0.80353042, 0.69646958], "properties": {"magmom": 0.029}, "label": "Cl", "xyz": [-2.7002262425969574, 12.381146793493386, 6.516159116484353]}, {"species": [{"element": "Cl", "occu": 1}], "abc": [0.12745987, 0.98605051, 0.89684361], "properties": {"magmom": 0.006}, "label": "Cl", "xyz": [-6.5041866048355885, 15.193495860566196, 9.920196209766235]}, {"species": [{"element": "Cl", "occu": 1}], "abc": [0.87378077, 0.57891793, 0.39520291], "properties": {"magmom": 0.006}, "label": "Cl", "xyz": [10.396329119055823, 8.920219688403742, -1.6801208359018966]}, {"species": [{"element": "Cl", "occu": 1}], "abc": [0.18371502, 0.60479709, 0.97857786], "properties": {"magmom": 0.006}, "label": "Cl", "xyz": [-2.1116326249534536, 9.318977060716172, 13.507027313467955]}, {"species": [{"element": "Cl", "occu": 1}], "abc": [0.089206899999999, 0.48605051, 0.35859064], "properties": {"magmom": 0.006}, "label": "Cl", "xyz": [-2.736756063949686, 7.489278020566196, 3.148470359955573]}, {"species": [{"element": "Cl", "occu": 1}], "abc": [0.80353042, 0.60706085, 0.55353042], "properties": {"magmom": 0.029}, "label": "Cl", "xyz": [8.896064571039354, 9.353858061071127, 1.5726168590600196]}, {"species": [{"element": "Cl", "occu": 1}], "abc": [0.97857786, 0.29486284, 0.37378077], "properties": {"magmom": 0.006}, "label": "Cl", "xyz": [14.787864944337622, 4.543375104562132, -0.9567700147757945]}, {"species": [{"element": "Cl", "occu": 1}], "abc": [0.98605051, 0.5892069, 0.8585906400000001], "properties": {"magmom": 0.006}, "label": "Cl", "xyz": [12.302315509453798, 9.078756620862192, 6.293704209955566]}, {"species": [{"element": "Cl", "occu": 1}], "abc": [0.52142214, 0.12621923000000002, 0.20513716], "properties": {"magmom": 0.006}, "label": "Cl", "xyz": [8.154355713775733, 1.9448408870341267, -0.20274108439322314]}, {"species": [{"element": "Cl", "occu": 1}], "abc": [0.12745987, 0.64140936, 0.23061626000000002], "properties": {"magmom": 0.006}, "label": "Cl", "xyz": [-3.4382366499388293, 9.883114868109965, -0.4844946560408321]}, {"species": [{"element": "Cl", "occu": 1}], "abc": [0.57891793, 0.39520291, 0.87378077], "properties": {"magmom": 0.006}, "label": "Cl", "xyz": [6.784432035046547, 6.089458619283829, 10.361793459515926]}, {"species": [{"element": "Cl", "occu": 1}], "abc": [0.55353042, 0.80353042, 0.60706085], "properties": {"magmom": 0.029}, "label": "Cl", "xyz": [2.7002262425969574, 12.381146793493386, 2.919542624194376]}, {"species": [{"element": "Cl", "occu": 1}], "abc": [0.10479709, 0.92108207, 0.62621923], "properties": {"magmom": 0.006}, "label": "Cl", "xyz": [-6.329442274246968, 14.192433831596258, 5.3643758004840745]}, {"species": [{"element": "Cl", "occu": 1}], "abc": [0.8952029100000001, 0.31628498, 0.52142214], "properties": {"magmom": 0.006}, "label": "Cl", "xyz": [13.113874309293516, 4.873456770880086, 2.2191419465320443]}, {"species": [{"element": "Cl", "occu": 1}], "abc": [0.44646958000000003, 0.75, 0.05353042], "properties": {"magmom": 0.029}, "label": "Cl", "xyz": [1.2715960098060863, 11.556326760000001, -6.516159123984351]}, {"species": [{"element": "Cl", "occu": 1}], "abc": [0.20513716, 0.18371502, 0.07891793], "properties": {"magmom": 0.006}, "label": "Cl", "xyz": [2.0154861821243384, 2.8307610691199137, -0.9567700118271663]}, {"species": [{"element": "Cl", "occu": 1}], "abc": [0.62621923, 0.02142214, 0.70513716], "properties": {"magmom": 0.006}, "label": "Cl", "xyz": [10.951200780235252, 0.3300816663179552, 9.232960475606777]}, {"species": [{"element": "Cl", "occu": 1}], "abc": [0.26938374, 0.910793099999999, 0.89684361], "properties": {"magmom": 0.006}, "label": "Cl", "xyz": [-3.3095639706965816, 14.033896899137794, 9.500832995796234]}, {"species": [{"element": "Cl", "occu": 1}], "abc": [0.14140936, 0.01394949, 0.410793099999999], "properties": {"magmom": 0.006}, "label": "Cl", "xyz": [2.391878055164412, 0.2149398194338032, 6.77496235962672]}, {"species": [{"element": "Cl", "occu": 1}], "abc": [0.87254013, 0.01394949, 0.10315639], "properties": {"magmom": 0.006}, "label": "Cl", "xyz": [15.400251264835589, 0.2149398194338032, -3.6297285097662333]}, {"species": [{"element": "Cl", "occu": 1}], "abc": [0.39520291, 0.87378077, 0.57891793], "properties": {"magmom": 0.006}, "label": "Cl", "xyz": [-0.7417089462242661, 13.463594792965873, 2.9424927668689698]}, {"species": [{"element": "Cl", "occu": 1}], "abc": [0.42108207000000003, 0.60479709, 0.12621923000000002], "properties": {"magmom": 0.006}, "label": "Cl", "xyz": [2.1116326249534527, 9.318977060716172, -4.071325759515926]}, {"species": [{"element": "Cl", "occu": 1}], "abc": [0.05353042, 0.10706085, 0.30353042], "properties": {"magmom": 0.029}, "label": "Cl", "xyz": [-8.896064662700098e-08, 1.649640221071128, 4.717850716560019]}, {"species": [{"element": "Cl", "occu": 1}], "abc": [0.48605051, 0.35859064, 0.089206899999999], "properties": {"magmom": 0.006}, "label": "Cl", "xyz": [5.457828010061171, 5.525320811890036, -3.6297285096267577]}, {"species": [{"element": "Cl", "occu": 1}], "abc": [0.76938374, 0.87254013, 0.35859064], "properties": {"magmom": 0.006}, "label": "Cl", "xyz": [5.926801583860451, 13.444478471323839, -3.56136056401444]}, {"species": [{"element": "Cl", "occu": 1}], "abc": [0.10315639, 0.73061626, 0.089206899999999], "properties": {"magmom": 0.006}, "label": "Cl", "xyz": [-4.6642376595430175, 11.257653648972157, -3.5613605613206216]}, {"species": [{"element": "Cl", "occu": 1}], "abc": [0.73061626, 0.14140936, 0.62745987], "properties": {"magmom": 0.006}, "label": "Cl", "xyz": [11.741232171125526, 2.178897028109965, 6.355599143490066]}, {"species": [{"element": "Cl", "occu": 1}], "abc": [0.39520291, 0.02142214, 0.81628498], "properties": {"magmom": 0.006}, "label": "Cl", "xyz": [6.84092853976475, 0.3300816663179552, 12.783676494179002]}, {"species": [{"element": "Cl", "occu": 1}], "abc": [0.37254013, 0.60315639, 0.51394949], "properties": {"magmom": 0.006}, "label": "Cl", "xyz": [1.2625639243174342, 9.293696440295996, 3.561360555289041]}, {"species": [{"element": "Cl", "occu": 1}], "abc": [0.6837150200000001, 0.47857786, 0.10479709], "properties": {"magmom": 0.006}, "label": "Cl", "xyz": [7.90728646646196, 7.374136173682046, -5.333697700009983]}, {"species": [{"element": "Cl", "occu": 1}], "abc": [0.60706085, 0.55353042, 0.80353042], "properties": {"magmom": 0.029}, "label": "Cl", "xyz": [5.876662740712164, 8.529037873493385, 7.863084566560019]}, {"species": [{"element": "Cl", "occu": 1}], "abc": [0.410793099999999, 0.76938374, 0.39684361], "properties": {"magmom": 0.006}, "label": "Cl", "xyz": [0.4643964595710468, 11.854999871027843, 0.06513143579623293]}, {"species": [{"element": "Cl", "occu": 1}], "abc": [0.94646958, 0.55353042, 0.25], "properties": {"magmom": 0.029}, "label": "Cl", "xyz": [11.915466757209131, 8.529037873493385, -4.717850784999999]}, {"species": [{"element": "Cl", "occu": 1}], "abc": [0.30353042, 0.05353042, 0.10706085], "properties": {"magmom": 0.029}, "label": "Cl", "xyz": [4.9242424075969575, 0.8248200334933856, -0.22569122580562473]}, {"species": [{"element": "Cl", "occu": 1}], "abc": [0.25, 0.94646958, 0.55353042], "properties": {"magmom": 0.029}, "label": "Cl", "xyz": [-3.9718222524030438, 14.583615646506615, 2.9195424360156483]}, {"species": [{"element": "Cl", "occu": 1}], "abc": [0.39684361, 0.410793099999999, 0.76938374], "properties": {"magmom": 0.006}, "label": "Cl", "xyz": [3.406250849453808, 6.329679059137793, 9.43893806584764]}]}, "task_ids": null, "uncorrected_energy_per_atom": null, "energy_per_atom": -12.760218154702383, "formation_energy_per_atom": -1.8656783979166702, "energy_above_hull": 0.059570202440475006, "is_stable": false, "equilibrium_reaction_energy_per_atom": null, "decomposes_to": null, "xas": null, "grain_boundaries": null, "band_gap": 0.0, "cbm": null, "vbm": null, "efermi": 1.4043882, "is_gap_direct": null, "is_metal": null, "es_source_calc_id": null, "bandstructure": null, "dos": null, "dos_energy_up": null, "dos_energy_down": null, "is_magnetic": null, "ordering": null, "total_magnetization": 39.9866708, "total_magnetization_normalized_vol": null, "total_magnetization_normalized_formula_units": null, "num_magnetic_sites": null, "num_unique_magnetic_sites": null, "types_of_magnetic_species": null, "bulk_modulus": null, "shear_modulus": null, "universal_anisotropy": null, "homogeneous_poisson": null, "e_total": null, "e_ionic": null, "e_electronic": null, "n": null, "e_ij_max": null, "weighted_surface_energy_EV_PER_ANG2": null, "weighted_surface_energy": null, "weighted_work_function": null, "surface_anisotropy": null, "shape_factor": null, "has_reconstructed": null, "possible_species": null, "has_props": null, "theoretical": null, "database_IDs": null, "fields_not_requested": ["builder_meta", "nsites", "elements", "nelements", "composition", "composition_reduced", "chemsys", "symmetry", "property_name", "deprecated", "deprecation_reasons", "last_updated", "origins", "warnings", "task_ids", "uncorrected_energy_per_atom", "equilibrium_reaction_energy_per_atom", "decomposes_to", "xas", "grain_boundaries", "cbm", "vbm", "is_gap_direct", "is_metal", "es_source_calc_id", "bandstructure", "dos", "dos_energy_up", "dos_energy_down", "is_magnetic", "ordering", "total_magnetization_normalized_vol", "total_magnetization_normalized_formula_units", "num_magnetic_sites", "num_unique_magnetic_sites", "types_of_magnetic_species", "bulk_modulus", "shear_modulus", "universal_anisotropy", "homogeneous_poisson", "e_total", "e_ionic", "e_electronic", "n", "e_ij_max", "weighted_surface_energy_EV_PER_ANG2", "weighted_surface_energy", "weighted_work_function", "surface_anisotropy", "shape_factor", "has_reconstructed", "possible_species", "has_props", "theoretical", "database_IDs"]}