{
  "builder_meta": null,
  "nsites": null,
  "elements": null,
  "nelements": null,
  "composition": null,
  "composition_reduced": null,
  "formula_pretty": "Zr2Fe",
  "formula_anonymous": "AB2",
  "chemsys": null,
  "volume": 111.28662257978525,
  "density": 7.111274052973014,
  "density_atomic": 18.547770429964206,
  "symmetry": null,
  "property_name": null,
  "material_id": "mp-1159",
  "deprecated": null,
  "deprecation_reasons": null,
  "last_updated": null,
  "origins": null,
  "warnings": null,
  "structure": {
    "@module": "pymatgen.core.structure",
    "@class": "Structure",
    "charge": 0,
    "lattice": {
      "matrix": [
        [5.0370473, 0.15510859999999901, -1.49141724],
        [-2.77359575, 4.20750144, -1.49141724],
        [-0.08047488, -0.15510858, 5.25258913]
      ],
      "pbc": [true, true, true],
      "a": 5.255495177811551,
      "b": 5.2554949467951495,
      "c": 5.2554949763552035,
      "alpha": 107.4079177411935,
      "beta": 107.40791621925194,
      "gamma": 113.68164766800562,
      "volume": 111.28662257978523
    },
    "properties": {},
    "sites": [
      {
        "species": [{ "element": "Zr", "occu": 1 }],
        "abc": [0.68085047, 0.18085047, 0.86169894],
        "properties": { "magmom": 0.0 },
        "label": "Zr",
        "xyz": [2.8585248078471013, 0.732877477189813, 3.2409948479363155]
      },
      {
        "species": [{ "element": "Zr", "occu": 1 }],
        "abc": [0.18085047, 0.31914953, 0.5],
        "properties": { "magmom": 0.0 },
        "label": "Zr",
        "xyz": [-0.01447684840526646, 1.2933192802613651, 1.8805859449999998]
      },
      {
        "species": [{ "element": "Zr", "occu": 1 }],
        "abc": [0.81914953, 0.68085047, 0.5],
        "properties": { "magmom": 0.0 },
        "label": "Zr",
        "xyz": [2.1974535184052666, 2.9141821797386336, 0.3891687049999999]
      },
      {
        "species": [{ "element": "Zr", "occu": 1 }],
        "abc": [0.31914953, 0.81914953, 0.13830106],
        "properties": { "magmom": 0.0 },
        "label": "Zr",
        "xyz": [-0.6755481378471012, 3.474623982810186, -0.9712401979363167]
      },
      {
        "species": [{ "element": "Fe", "occu": 1 }],
        "abc": [0.25, 0.25, 0.0],
        "properties": { "magmom": -0.0 },
        "label": "Fe",
        "xyz": [0.5658628875, 1.0906525099999997, -0.74570862]
      },
      {
        "species": [{ "element": "Fe", "occu": 1 }],
        "abc": [0.75, 0.75, 0.0],
        "properties": { "magmom": -0.0 },
        "label": "Fe",
        "xyz": [1.6975886624999998, 3.271957529999999, -2.23712586]
      }
    ]
  },
  "task_ids": null,
  "uncorrected_energy_per_atom": null,
  "energy_per_atom": -8.660942765,
  "formation_energy_per_atom": -0.139135274999998,
  "energy_above_hull": 0.004575485666668,
  "is_stable": false,
  "equilibrium_reaction_energy_per_atom": null,
  "decomposes_to": null,
  "xas": null,
  "grain_boundaries": null,
  "band_gap": 0.0,
  "cbm": null,
  "vbm": null,
  "efermi": 4.46749331,
  "is_gap_direct": null,
  "is_metal": null,
  "es_source_calc_id": null,
  "bandstructure": null,
  "dos": null,
  "dos_energy_up": null,
  "dos_energy_down": null,
  "is_magnetic": null,
  "ordering": null,
  "total_magnetization": 6e-7,
  "total_magnetization_normalized_vol": null,
  "total_magnetization_normalized_formula_units": null,
  "num_magnetic_sites": null,
  "num_unique_magnetic_sites": null,
  "types_of_magnetic_species": null,
  "bulk_modulus": null,
  "shear_modulus": null,
  "universal_anisotropy": null,
  "homogeneous_poisson": null,
  "e_total": null,
  "e_ionic": null,
  "e_electronic": null,
  "n": null,
  "e_ij_max": null,
  "weighted_surface_energy_EV_PER_ANG2": null,
  "weighted_surface_energy": null,
  "weighted_work_function": null,
  "surface_anisotropy": null,
  "shape_factor": null,
  "has_reconstructed": null,
  "possible_species": null,
  "has_props": null,
  "theoretical": null,
  "database_IDs": null,
  "fields_not_requested": [
    "builder_meta",
    "nsites",
    "elements",
    "nelements",
    "composition",
    "composition_reduced",
    "chemsys",
    "symmetry",
    "property_name",
    "deprecated",
    "deprecation_reasons",
    "last_updated",
    "origins",
    "warnings",
    "task_ids",
    "uncorrected_energy_per_atom",
    "equilibrium_reaction_energy_per_atom",
    "decomposes_to",
    "xas",
    "grain_boundaries",
    "cbm",
    "vbm",
    "is_gap_direct",
    "is_metal",
    "es_source_calc_id",
    "bandstructure",
    "dos",
    "dos_energy_up",
    "dos_energy_down",
    "is_magnetic",
    "ordering",
    "total_magnetization_normalized_vol",
    "total_magnetization_normalized_formula_units",
    "num_magnetic_sites",
    "num_unique_magnetic_sites",
    "types_of_magnetic_species",
    "bulk_modulus",
    "shear_modulus",
    "universal_anisotropy",
    "homogeneous_poisson",
    "e_total",
    "e_ionic",
    "e_electronic",
    "n",
    "e_ij_max",
    "weighted_surface_energy_EV_PER_ANG2",
    "weighted_surface_energy",
    "weighted_work_function",
    "surface_anisotropy",
    "shape_factor",
    "has_reconstructed",
    "possible_species",
    "has_props",
    "theoretical",
    "database_IDs"
  ]
}
