{
  "builder_meta": null,
  "nsites": null,
  "elements": null,
  "nelements": null,
  "composition": null,
  "composition_reduced": null,
  "formula_pretty": "Zr2Ga3",
  "formula_anonymous": "A2B3",
  "chemsys": null,
  "volume": 179.2925419783497,
  "density": 7.254014254795026,
  "density_atomic": 17.92925419783497,
  "symmetry": null,
  "property_name": null,
  "material_id": "mp-30686",
  "deprecated": null,
  "deprecation_reasons": null,
  "last_updated": null,
  "origins": null,
  "warnings": null,
  "structure": {
    "@module": "pymatgen.core.structure",
    "@class": "Structure",
    "charge": 0,
    "lattice": {
      "matrix": [
        [5.37149837, -0.00022847, -1.02062695],
        [-2.94280793, 4.49364927, -1.02062695],
        [0.00278147, 0.00514726, 7.42579535]
      ],
      "pbc": [true, true, true],
      "a": 5.467602231525031,
      "b": 5.467602915877187,
      "c": 7.425797654861226,
      "alpha": 100.7369312429977,
      "beta": 100.7369400194442,
      "gamma": 119.60088674762017,
      "volume": 179.2925419783497
    },
    "properties": {},
    "sites": [
      {
        "species": [{ "element": "Zr", "occu": 1 }],
        "abc": [0.11262457000000001, 0.75467182, 0.89583835],
        "properties": { "magmom": -0.0 },
        "label": "Zr",
        "xyz": [-1.613399774771207, 3.395815854602484, 5.767126184509962]
      },
      {
        "species": [{ "element": "Zr", "occu": 1 }],
        "abc": [0.85883547, 0.21678622, 0.10416165000000001],
        "properties": { "magmom": -0.0 },
        "label": "Zr",
        "xyz": [3.9755628423770855, 0.9745011682038075, -0.3243253886002181]
      },
      {
        "species": [{ "element": "Zr", "occu": 1 }],
        "abc": [0.00467182, 0.8626255700000001, 0.39583835],
        "properties": { "magmom": -0.0 },
        "label": "Zr",
        "xyz": [-2.5123456820064627, 3.87837317844854, 2.054227488883012]
      },
      {
        "species": [{ "element": "Zr", "occu": 1 }],
        "abc": [0.46678622000000003, 0.60883547, 0.60416165],
        "properties": { "magmom": -0.0 },
        "label": "Zr",
        "xyz": [0.7173360281918101, 2.7388961957625026, 3.388572286399781]
      },
      {
        "species": [{ "element": "Ga", "occu": 1 }],
        "abc": [0.59549173, 0.59549173, 0.0],
        "properties": { "magmom": 0.0 },
        "label": "Ga",
        "xyz": [1.4462650717500616, 2.675794925809984, -1.215549816280247]
      },
      {
        "species": [{ "element": "Ga", "occu": 1 }],
        "abc": [0.84549173, 0.34549173, 0.5],
        "properties": { "magmom": 0.0 },
        "label": "Ga",
        "xyz": [3.526232381750062, 1.554899120809984, 2.4973478587197526]
      },
      {
        "species": [{ "element": "Ga", "occu": 1 }],
        "abc": [0.52277788, 0.16330903, 0.73303767],
        "properties": { "magmom": 0.0 },
        "label": "Ga",
        "xyz": [2.3295523440554233, 0.7375071998589485, 4.743148930872609]
      },
      {
        "species": [{ "element": "Ga", "occu": 1 }],
        "abc": [0.43027036, 0.7897382, 0.26696233],
        "properties": { "magmom": 0.0 },
        "label": "Ga",
        "xyz": [-0.012108752472587124, 3.55008230657468, 0.7372340131724737]
      },
      {
        "species": [{ "element": "Ga", "occu": 1 }],
        "abc": [0.41330903, 0.27277788000000003, 0.23303767],
        "properties": { "magmom": 0.0 },
        "label": "Ga",
        "xyz": [1.4180040598466679, 1.2268731980973477, 1.0302512558726098]
      },
      {
        "species": [{ "element": "Ga", "occu": 1 }],
        "abc": [0.0397382, 0.18027036, 0.76696233],
        "properties": { "magmom": 0.0 },
        "label": "Ga",
        "xyz": [-0.31491408571319557, 0.8140104471527989, 5.470758638172474]
      }
    ]
  },
  "task_ids": null,
  "uncorrected_energy_per_atom": null,
  "energy_per_atom": -16.656816743,
  "formation_energy_per_atom": -0.691234410999999,
  "energy_above_hull": 0.0,
  "is_stable": true,
  "equilibrium_reaction_energy_per_atom": null,
  "decomposes_to": null,
  "xas": null,
  "grain_boundaries": null,
  "band_gap": 0.0,
  "cbm": null,
  "vbm": null,
  "efermi": 4.39572248,
  "is_gap_direct": null,
  "is_metal": null,
  "es_source_calc_id": null,
  "bandstructure": null,
  "dos": null,
  "dos_energy_up": null,
  "dos_energy_down": null,
  "is_magnetic": null,
  "ordering": null,
  "total_magnetization": 1e-7,
  "total_magnetization_normalized_vol": null,
  "total_magnetization_normalized_formula_units": null,
  "num_magnetic_sites": null,
  "num_unique_magnetic_sites": null,
  "types_of_magnetic_species": null,
  "bulk_modulus": null,
  "shear_modulus": null,
  "universal_anisotropy": null,
  "homogeneous_poisson": null,
  "e_total": null,
  "e_ionic": null,
  "e_electronic": null,
  "n": null,
  "e_ij_max": null,
  "weighted_surface_energy_EV_PER_ANG2": null,
  "weighted_surface_energy": null,
  "weighted_work_function": null,
  "surface_anisotropy": null,
  "shape_factor": null,
  "has_reconstructed": null,
  "possible_species": null,
  "has_props": null,
  "theoretical": null,
  "database_IDs": null,
  "fields_not_requested": [
    "builder_meta",
    "nsites",
    "elements",
    "nelements",
    "composition",
    "composition_reduced",
    "chemsys",
    "symmetry",
    "property_name",
    "deprecated",
    "deprecation_reasons",
    "last_updated",
    "origins",
    "warnings",
    "task_ids",
    "uncorrected_energy_per_atom",
    "equilibrium_reaction_energy_per_atom",
    "decomposes_to",
    "xas",
    "grain_boundaries",
    "cbm",
    "vbm",
    "is_gap_direct",
    "is_metal",
    "es_source_calc_id",
    "bandstructure",
    "dos",
    "dos_energy_up",
    "dos_energy_down",
    "is_magnetic",
    "ordering",
    "total_magnetization_normalized_vol",
    "total_magnetization_normalized_formula_units",
    "num_magnetic_sites",
    "num_unique_magnetic_sites",
    "types_of_magnetic_species",
    "bulk_modulus",
    "shear_modulus",
    "universal_anisotropy",
    "homogeneous_poisson",
    "e_total",
    "e_ionic",
    "e_electronic",
    "n",
    "e_ij_max",
    "weighted_surface_energy_EV_PER_ANG2",
    "weighted_surface_energy",
    "weighted_work_function",
    "surface_anisotropy",
    "shape_factor",
    "has_reconstructed",
    "possible_species",
    "has_props",
    "theoretical",
    "database_IDs"
  ]
}
