{"builder_meta": null, "nsites": null, "elements": null, "nelements": null, "composition": null, "composition_reduced": null, "formula_pretty": "Zr2In3", "formula_anonymous": "A2B3", "chemsys": null, "volume": 488.9846391969133, "density": 7.157209328347312, "density_atomic": 24.449231959845665, "symmetry": null, "property_name": null, "material_id": "mp-1207687", "deprecated": null, "deprecation_reasons": null, "last_updated": null, "origins": null, "warnings": null, "structure": {"@module": "pymatgen.core.structure", "@class": "Structure", "charge": 0, "lattice": {"matrix": [[6.867919, 0.0, 0.0], [0.0, 6.867919, 0.0], [-3.433958999999999, -3.433958999999999, 10.366804]], "pbc": [true, true, true], "a": 6.867919, "b": 6.867919, "c": 11.447915705567455, "alpha": 107.45542207618942, "beta": 107.45542207618942, "gamma": 90.0, "volume": 488.9846391969133}, "properties": {}, "sites": [{"species": [{"element": "Zr", "occu": 1}], "abc": [0.288452999999999, 0.520261, 0.576905999999999], "properties": {"magmom": 0.001}, "label": "Zr", "xyz": [2.8845299704371996e-07, 1.5920388560050036, 5.98067142842399]}, {"species": [{"element": "Zr", "occu": 1}], "abc": [0.288452999999999, 0.056645, 0.576905999999999], "properties": {"magmom": 0.0}, "label": "Zr", "xyz": [2.8845299704371996e-07, -1.592038279098996, 5.98067142842399]}, {"species": [{"element": "Zr", "occu": 1}], "abc": [0.306645, 0.038453, 0.076906], "properties": {"magmom": 0.0}, "label": "Zr", "xyz": [1.841920970901, 3.845300011739994e-08, 0.7972694284240001]}, {"species": [{"element": "Zr", "occu": 1}], "abc": [0.961546999999999, 0.693354999999999, 0.923094], "properties": {"magmom": -0.0}, "label": "Zr", "xyz": [3.433959961546994, 1.592039029098994, 9.569534571576]}, {"species": [{"element": "Zr", "occu": 1}], "abc": [0.961546999999999, 0.229739, 0.923094], "properties": {"magmom": 0.0}, "label": "Zr", "xyz": [3.433959961546994, -1.592038106004999, 9.569534571576]}, {"species": [{"element": "Zr", "occu": 1}], "abc": [0.770261, 0.038453, 0.076906], "properties": {"magmom": -0.001}, "label": "Zr", "xyz": [5.025998106005, 3.845300011739994e-08, 0.7972694284240001]}, {"species": [{"element": "Zr", "occu": 1}], "abc": [0.943354999999999, 0.711546999999999, 0.423093999999999], "properties": {"magmom": 0.001}, "label": "Zr", "xyz": [5.025998279098997, 3.433959711546997, 4.38613257157599]}, {"species": [{"element": "Zr", "occu": 1}], "abc": [0.479738999999999, 0.711546999999999, 0.423093999999999], "properties": {"magmom": -0.0}, "label": "Zr", "xyz": [1.8419211439949967, 3.433959711546997, 4.38613257157599]}, {"species": [{"element": "In", "occu": 1}], "abc": [0.804018999999999, 0.086142, 0.608039], "properties": {"magmom": 0.0}, "label": "In", "xyz": [3.433956370059994, -1.4963647179029995, 6.303421137356]}, {"species": [{"element": "In", "occu": 1}], "abc": [0.804018999999999, 0.521896, 0.608039], "properties": {"magmom": 0.0}, "label": "In", "xyz": [3.433956370059994, 1.4963584580230007, 6.303421137356]}, {"species": [{"element": "In", "occu": 1}], "abc": [0.771895999999999, 0.554018999999999, 0.108039], "properties": {"magmom": 0.0}, "label": "In", "xyz": [4.930317708022993, 3.4339561200599933, 1.120019137356]}, {"species": [{"element": "In", "occu": 1}], "abc": [0.445980999999999, 0.228104, 0.891961], "properties": {"magmom": 0.0}, "label": "In", "xyz": [3.879939994178017e-06, -1.496357708022999, 9.246784862644]}, {"species": [{"element": "In", "occu": 1}], "abc": [0.445980999999999, 0.663858, 0.891961], "properties": {"magmom": 0.0}, "label": "In", "xyz": [3.879939994178017e-06, 1.4963654679030007, 9.246784862644]}, {"species": [{"element": "In", "occu": 1}], "abc": [0.336142, 0.554018999999999, 0.108039], "properties": {"magmom": 0.0}, "label": "In", "xyz": [1.937594532097, 3.4339561200599933, 1.120019137356]}, {"species": [{"element": "In", "occu": 1}], "abc": [0.478104, 0.195981, 0.391961], "properties": {"magmom": 0.0}, "label": "In", "xyz": [1.9376015419769999, 3.6299400001382764e-06, 4.0633828626440005]}, {"species": [{"element": "In", "occu": 1}], "abc": [0.913858, 0.195981, 0.391961], "properties": {"magmom": 0.0}, "label": "In", "xyz": [4.930324717903, 3.6299400001382764e-06, 4.0633828626440005]}, {"species": [{"element": "In", "occu": 1}], "abc": [0.125, 0.375, 0.25], "properties": {"magmom": 0.0}, "label": "In", "xyz": [1.2500000023951685e-07, 1.716979875, 2.591701]}, {"species": [{"element": "In", "occu": 1}], "abc": [0.125, 0.875, 0.25], "properties": {"magmom": 0.0}, "label": "In", "xyz": [1.2500000023951685e-07, 5.150939375, 2.591701]}, {"species": [{"element": "In", "occu": 1}], "abc": [0.125, 0.875, 0.75], "properties": {"magmom": 0.0}, "label": "In", "xyz": [-1.7169793749999993, 3.433959875, 7.775103]}, {"species": [{"element": "In", "occu": 1}], "abc": [0.625, 0.875, 0.75], "properties": {"magmom": 0.0}, "label": "In", "xyz": [1.716980125, 3.433959875, 7.775103]}]}, "task_ids": null, "uncorrected_energy_per_atom": null, "energy_per_atom": -22.746283575500005, "formation_energy_per_atom": -0.099212585500006, "energy_above_hull": 0.315444056999997, "is_stable": false, "equilibrium_reaction_energy_per_atom": null, "decomposes_to": null, "xas": null, "grain_boundaries": null, "band_gap": 0.024300000000000002, "cbm": null, "vbm": null, "efermi": 6.47784613, "is_gap_direct": null, "is_metal": null, "es_source_calc_id": null, "bandstructure": null, "dos": null, "dos_energy_up": null, "dos_energy_down": null, "is_magnetic": null, "ordering": null, "total_magnetization": 0.0107744, "total_magnetization_normalized_vol": null, "total_magnetization_normalized_formula_units": null, "num_magnetic_sites": null, "num_unique_magnetic_sites": null, "types_of_magnetic_species": null, "bulk_modulus": null, "shear_modulus": null, "universal_anisotropy": null, "homogeneous_poisson": null, "e_total": null, "e_ionic": null, "e_electronic": null, "n": null, "e_ij_max": null, "weighted_surface_energy_EV_PER_ANG2": null, "weighted_surface_energy": null, "weighted_work_function": null, "surface_anisotropy": null, "shape_factor": null, "has_reconstructed": null, "possible_species": null, "has_props": null, "theoretical": null, "database_IDs": null, "fields_not_requested": ["builder_meta", "nsites", "elements", "nelements", "composition", "composition_reduced", "chemsys", "symmetry", "property_name", "deprecated", "deprecation_reasons", "last_updated", "origins", "warnings", "task_ids", "uncorrected_energy_per_atom", "equilibrium_reaction_energy_per_atom", "decomposes_to", "xas", "grain_boundaries", "cbm", "vbm", "is_gap_direct", "is_metal", "es_source_calc_id", "bandstructure", "dos", "dos_energy_up", "dos_energy_down", "is_magnetic", "ordering", "total_magnetization_normalized_vol", "total_magnetization_normalized_formula_units", "num_magnetic_sites", "num_unique_magnetic_sites", "types_of_magnetic_species", "bulk_modulus", "shear_modulus", "universal_anisotropy", "homogeneous_poisson", "e_total", "e_ionic", "e_electronic", "n", "e_ij_max", "weighted_surface_energy_EV_PER_ANG2", "weighted_surface_energy", "weighted_work_function", "surface_anisotropy", "shape_factor", "has_reconstructed", "possible_species", "has_props", "theoretical", "database_IDs"]}