{"builder_meta": null, "nsites": null, "elements": null, "nelements": null, "composition": null, "composition_reduced": null, "formula_pretty": "Zr2Np", "formula_anonymous": "AB2", "chemsys": null, "volume": 66.71875367839473, "density": 10.439490428203017, "density_atomic": 22.239584559464912, "symmetry": null, "property_name": null, "material_id": "mp-12707", "deprecated": null, "deprecation_reasons": null, "last_updated": null, "origins": null, "warnings": null, "structure": {"@module": "pymatgen.core.structure", "@class": "Structure", "charge": 0, "lattice": {"matrix": [[2.617336, -4.53336, 0.0], [2.617336, 4.53336, 0.0], [0.0, 0.0, 2.811501]], "pbc": [true, true, true], "a": 5.2346729245002495, "b": 5.2346729245002495, "c": 2.811501, "alpha": 90.0, "beta": 90.0, "gamma": 120.00001168448217, "volume": 66.71875367839473}, "properties": {}, "sites": [{"species": [{"element": "Zr", "occu": 1}], "abc": [0.666667, 0.333333, 0.5], "properties": {"magmom": 0.061}, "label": "Zr", "xyz": [2.617336, -1.5111230222400003, 1.4057505]}, {"species": [{"element": "Zr", "occu": 1}], "abc": [0.333333, 0.666667, 0.5], "properties": {"magmom": 0.061}, "label": "Zr", "xyz": [2.617336, 1.5111230222400003, 1.4057505]}, {"species": [{"element": "Np", "occu": 1}], "abc": [0.0, 0.0, 0.0], "properties": {"magmom": -0.443}, "label": "Np", "xyz": [0.0, 0.0, 0.0]}]}, "task_ids": null, "uncorrected_energy_per_atom": null, "energy_per_atom": -42.29874454, "formation_energy_per_atom": 0.5425205737500011, "energy_above_hull": 0.5425205737499961, "is_stable": false, "equilibrium_reaction_energy_per_atom": null, "decomposes_to": null, "xas": null, "grain_boundaries": null, "band_gap": 0.0, "cbm": null, "vbm": null, "efermi": 7.94523494, "is_gap_direct": null, "is_metal": null, "es_source_calc_id": null, "bandstructure": null, "dos": null, "dos_energy_up": null, "dos_energy_down": null, "is_magnetic": null, "ordering": null, "total_magnetization": 0.30027159999999903, "total_magnetization_normalized_vol": null, "total_magnetization_normalized_formula_units": null, "num_magnetic_sites": null, "num_unique_magnetic_sites": null, "types_of_magnetic_species": null, "bulk_modulus": null, "shear_modulus": null, "universal_anisotropy": null, "homogeneous_poisson": null, "e_total": null, "e_ionic": null, "e_electronic": null, "n": null, "e_ij_max": null, "weighted_surface_energy_EV_PER_ANG2": null, "weighted_surface_energy": null, "weighted_work_function": null, "surface_anisotropy": null, "shape_factor": null, "has_reconstructed": null, "possible_species": null, "has_props": null, "theoretical": null, "database_IDs": null, "fields_not_requested": ["builder_meta", "nsites", "elements", "nelements", "composition", "composition_reduced", "chemsys", "symmetry", "property_name", "deprecated", "deprecation_reasons", "last_updated", "origins", "warnings", "task_ids", "uncorrected_energy_per_atom", "equilibrium_reaction_energy_per_atom", "decomposes_to", "xas", "grain_boundaries", "cbm", "vbm", "is_gap_direct", "is_metal", "es_source_calc_id", "bandstructure", "dos", "dos_energy_up", "dos_energy_down", "is_magnetic", "ordering", "total_magnetization_normalized_vol", "total_magnetization_normalized_formula_units", "num_magnetic_sites", "num_unique_magnetic_sites", "types_of_magnetic_species", "bulk_modulus", "shear_modulus", "universal_anisotropy", "homogeneous_poisson", "e_total", "e_ionic", "e_electronic", "n", "e_ij_max", "weighted_surface_energy_EV_PER_ANG2", "weighted_surface_energy", "weighted_work_function", "surface_anisotropy", "shape_factor", "has_reconstructed", "possible_species", "has_props", "theoretical", "database_IDs"]}