{"builder_meta": null, "nsites": null, "elements": null, "nelements": null, "composition": null, "composition_reduced": null, "formula_pretty": "Zr2Ni", "formula_anonymous": "AB2", "chemsys": null, "volume": 109.70680953087206, "density": 7.299906304575116, "density_atomic": 18.284468255145345, "symmetry": null, "property_name": null, "material_id": "mp-328", "deprecated": null, "deprecation_reasons": null, "last_updated": null, "origins": null, "warnings": null, "structure": {"@module": "pymatgen.core.structure", "@class": "Structure", "charge": 0, "lattice": {"matrix": [[4.54459131, 1e-08, 2.60825671], [2.2722977, 4.5756859500000004, 1.30412786], [-0.00534654, -0.0, 5.27266126]], "pbc": [true, true, true], "a": 5.23987721613661, "b": 5.272664243594587, "c": 5.272663970726255, "alpha": 75.70582906917379, "beta": 60.205486661168564, "gamma": 60.20546829320812, "volume": 109.70680953087208}, "properties": {}, "sites": [{"species": [{"element": "Zr", "occu": 1}], "abc": [0.16440951, 0.5, 0.17118297], "properties": {"magmom": 0.0}, "label": "Zr", "xyz": [1.8824076438309345, 2.2878429766440953, 1.983475951936054]}, {"species": [{"element": "Zr", "occu": 1}], "abc": [0.33559049, 0.8288170300000001, 0.5], "properties": {"magmom": 0.0}, "label": "Zr", "xyz": [3.4057673855624735, 3.7924064426476343, 4.592520157020143]}, {"species": [{"element": "Zr", "occu": 1}], "abc": [0.66440951, 0.17118297, 0.5], "properties": {"magmom": 0.0}, "label": "Zr", "xyz": [3.4057750844375274, 0.7832795173523666, 4.592525672979856]}, {"species": [{"element": "Zr", "occu": 1}], "abc": [0.83559049, 0.5, 0.8288170300000001], "properties": {"magmom": 0.0}, "label": "Zr", "xyz": [4.929134826169066, 2.287842983355905, 7.201569878063946]}, {"species": [{"element": "Ni", "occu": 1}], "abc": [0.25, -0.0, -0.0], "properties": {"magmom": 0.0}, "label": "Ni", "xyz": [1.1361478275, 2.5e-09, 0.6520641775]}, {"species": [{"element": "Ni", "occu": 1}], "abc": [0.75, -0.0, -0.0], "properties": {"magmom": 0.0}, "label": "Ni", "xyz": [3.4084434825, 7.500000000000001e-09, 1.9561925325]}]}, "task_ids": null, "uncorrected_energy_per_atom": null, "energy_per_atom": -7.948244281666668, "formation_energy_per_atom": -0.32306496833333403, "energy_above_hull": 0.0, "is_stable": true, "equilibrium_reaction_energy_per_atom": null, "decomposes_to": null, "xas": null, "grain_boundaries": null, "band_gap": 0.0, "cbm": null, "vbm": null, "efermi": 5.02107207, "is_gap_direct": null, "is_metal": null, "es_source_calc_id": null, "bandstructure": null, "dos": null, "dos_energy_up": null, "dos_energy_down": null, "is_magnetic": null, "ordering": null, "total_magnetization": 4e-07, "total_magnetization_normalized_vol": null, "total_magnetization_normalized_formula_units": null, "num_magnetic_sites": null, "num_unique_magnetic_sites": null, "types_of_magnetic_species": null, "bulk_modulus": null, "shear_modulus": null, "universal_anisotropy": null, "homogeneous_poisson": null, "e_total": null, "e_ionic": null, "e_electronic": null, "n": null, "e_ij_max": null, "weighted_surface_energy_EV_PER_ANG2": null, "weighted_surface_energy": null, "weighted_work_function": null, "surface_anisotropy": null, "shape_factor": null, "has_reconstructed": null, "possible_species": null, "has_props": null, "theoretical": null, "database_IDs": null, "fields_not_requested": ["builder_meta", "nsites", "elements", "nelements", "composition", "composition_reduced", "chemsys", "symmetry", "property_name", "deprecated", "deprecation_reasons", "last_updated", "origins", "warnings", "task_ids", "uncorrected_energy_per_atom", "equilibrium_reaction_energy_per_atom", "decomposes_to", "xas", "grain_boundaries", "cbm", "vbm", "is_gap_direct", "is_metal", "es_source_calc_id", "bandstructure", "dos", "dos_energy_up", "dos_energy_down", "is_magnetic", "ordering", "total_magnetization_normalized_vol", "total_magnetization_normalized_formula_units", "num_magnetic_sites", "num_unique_magnetic_sites", "types_of_magnetic_species", "bulk_modulus", "shear_modulus", "universal_anisotropy", "homogeneous_poisson", "e_total", "e_ionic", "e_electronic", "n", "e_ij_max", "weighted_surface_energy_EV_PER_ANG2", "weighted_surface_energy", "weighted_work_function", "surface_anisotropy", "shape_factor", "has_reconstructed", "possible_species", "has_props", "theoretical", "database_IDs"]}