{
  "builder_meta": null,
  "nsites": null,
  "elements": null,
  "nelements": null,
  "composition": null,
  "composition_reduced": null,
  "formula_pretty": "Zr2Ni7",
  "formula_anonymous": "A2B7",
  "chemsys": null,
  "volume": 227.1115777260798,
  "density": 8.675918920983893,
  "density_atomic": 12.617309873671099,
  "symmetry": null,
  "property_name": null,
  "material_id": "mp-2717",
  "deprecated": null,
  "deprecation_reasons": null,
  "last_updated": null,
  "origins": null,
  "warnings": null,
  "structure": {
    "@module": "pymatgen.core.structure",
    "@class": "Structure",
    "charge": 0,
    "lattice": {
      "matrix": [
        [4.62142995, -1e-8, 0.44745133000000004],
        [2.31071346, 4.07677692, 0.22372617],
        [0.0069235, 1e-8, 12.05508014]
      ],
      "pbc": [true, true, true],
      "a": 4.643040757464419,
      "b": 4.691434764420447,
      "c": 12.05508212815967,
      "alpha": 87.25040385296214,
      "beta": 84.4368984067242,
      "gamma": 60.34066853779952,
      "volume": 227.1115777260798
    },
    "properties": {},
    "sites": [
      {
        "species": [{ "element": "Zr", "occu": 1 }],
        "abc": [0.77739997, 0.0, 0.6135918300000001],
        "properties": { "magmom": 0.0 },
        "label": "Zr",
        "xyz": [3.5969477075221064, -1.6380813999999998e-9, 7.744747334417717]
      },
      {
        "species": [{ "element": "Zr", "occu": 1 }],
        "abc": [0.22260003, -0.0, 0.38640817],
        "properties": { "magmom": 0.0 },
        "label": "Zr",
        "xyz": [1.0314057424778935, 1.6380814000000002e-9, 4.757784135582284]
      },
      {
        "species": [{ "element": "Zr", "occu": 1 }],
        "abc": [0.72245652, 0.0, 0.88605095],
        "properties": { "magmom": 0.0 },
        "label": "Zr",
        "xyz": [3.344916772853099, 1.6359442999999993e-9, 11.004679341114304]
      },
      {
        "species": [{ "element": "Zr", "occu": 1 }],
        "abc": [0.27754348, -0.0, 0.11394905],
        "properties": { "magmom": 0.0 },
        "label": "Zr",
        "xyz": [1.283436677146901, -1.6359443000000002e-9, 1.4978521288856952]
      },
      {
        "species": [{ "element": "Ni", "occu": 1 }],
        "abc": [0.74993113, 0.0, 0.24998301],
        "properties": { "magmom": -0.0 },
        "label": "Ni",
        "xyz": [3.4674849419890785, -4.9994812e-9, 3.3491229007153245]
      },
      {
        "species": [{ "element": "Ni", "occu": 1 }],
        "abc": [0.25006887, -0.0, 0.75001699],
        "properties": { "magmom": -0.0 },
        "label": "Ni",
        "xyz": [1.1608685080109213, 4.9994812e-9, 9.153408569284675]
      },
      {
        "species": [{ "element": "Ni", "occu": 1 }],
        "abc": [0.9606481800000001, 0.66687162, 0.07831111],
        "properties": { "magmom": -0.0 },
        "label": "Ni",
        "xyz": [5.981059685861082, 2.71868682019564, 1.5230866461297303]
      },
      {
        "species": [{ "element": "Ni", "occu": 1 }],
        "abc": [0.3724792, 0.66687162, 0.92168889],
        "properties": { "magmom": -0.0 },
        "label": "Ni",
        "xyz": [3.26871707208796, 2.7186868345111077, 11.426896379959276]
      },
      {
        "species": [{ "element": "Ni", "occu": 1 }],
        "abc": [0.03935182, 0.33312838, 0.92168889],
        "properties": { "magmom": -0.0 },
        "label": "Ni",
        "xyz": [0.9580072241389188, 1.3580900998043604, 11.20317099387027]
      },
      {
        "species": [{ "element": "Ni", "occu": 1 }],
        "abc": [0.6275208, 0.33312838, 0.07831111],
        "properties": { "magmom": -0.0 },
        "label": "Ni",
        "xyz": [3.6703498379120396, 1.3580900854888929, 1.299361260040724]
      },
      {
        "species": [{ "element": "Ni", "occu": 1 }],
        "abc": [0.87272498, 0.66675324, 0.42162947],
        "properties": { "magmom": -0.0 },
        "label": "Ni",
        "xyz": [5.576832198487306, 2.7182042156562662, 5.6224491519812405]
      },
      {
        "species": [{ "element": "Ni", "occu": 1 }],
        "abc": [0.46052078, 0.66675324, 0.57836953],
        "properties": { "magmom": -0.0 },
        "label": "Ni",
        "xyz": [3.6729445528969267, 2.7182042213457085, 7.327521818908062]
      },
      {
        "species": [{ "element": "Ni", "occu": 1 }],
        "abc": [0.12727502000000002, 0.33324676000000003, 0.57836953],
        "properties": { "magmom": -0.0 },
        "label": "Ni",
        "xyz": [1.3622347045891936, 1.3585727043437246, 7.10379643293862]
      },
      {
        "species": [{ "element": "Ni", "occu": 1 }],
        "abc": [0.53947922, 0.33324676000000003, 0.42162947],
        "properties": { "magmom": -0.0 },
        "label": "Ni",
        "xyz": [3.2661223501795735, 1.3585726986542819, 5.3987237660117975]
      },
      {
        "species": [{ "element": "Ni", "occu": 1 }],
        "abc": [0.74987626, 0.50003221, 0.24998852],
        "properties": { "magmom": -0.0 },
        "label": "Ni",
        "xyz": [4.622662560356753, 2.038519767985716, 3.461035063772354]
      },
      {
        "species": [{ "element": "Ni", "occu": 1 }],
        "abc": [0.75009152, 0.50003221, 0.7500114800000001],
        "properties": { "magmom": -0.0 },
        "label": "Ni",
        "xyz": [4.62711927833135, 2.038519772983793, 9.488948236785665]
      },
      {
        "species": [{ "element": "Ni", "occu": 1 }],
        "abc": [0.25012374, 0.49996779, 0.7500114800000001],
        "properties": { "magmom": -0.0 },
        "label": "Ni",
        "xyz": [2.3164043496432467, 2.0382571520142845, 9.265222576227647]
      },
      {
        "species": [{ "element": "Ni", "occu": 1 }],
        "abc": [0.24990848000000002, 0.49996779, 0.24998852],
        "properties": { "magmom": -0.0 },
        "label": "Ni",
        "xyz": [2.3119476316686494, 2.0382571470162074, 3.2373094032143355]
      }
    ]
  },
  "task_ids": null,
  "uncorrected_energy_per_atom": null,
  "energy_per_atom": -6.822456955555555,
  "formation_energy_per_atom": -0.427306064444444,
  "energy_above_hull": 0.0,
  "is_stable": true,
  "equilibrium_reaction_energy_per_atom": null,
  "decomposes_to": null,
  "xas": null,
  "grain_boundaries": null,
  "band_gap": 0.0,
  "cbm": null,
  "vbm": null,
  "efermi": 6.90258878,
  "is_gap_direct": null,
  "is_metal": null,
  "es_source_calc_id": null,
  "bandstructure": null,
  "dos": null,
  "dos_energy_up": null,
  "dos_energy_down": null,
  "is_magnetic": null,
  "ordering": null,
  "total_magnetization": 1.4e-6,
  "total_magnetization_normalized_vol": null,
  "total_magnetization_normalized_formula_units": null,
  "num_magnetic_sites": null,
  "num_unique_magnetic_sites": null,
  "types_of_magnetic_species": null,
  "bulk_modulus": null,
  "shear_modulus": null,
  "universal_anisotropy": null,
  "homogeneous_poisson": null,
  "e_total": null,
  "e_ionic": null,
  "e_electronic": null,
  "n": null,
  "e_ij_max": null,
  "weighted_surface_energy_EV_PER_ANG2": null,
  "weighted_surface_energy": null,
  "weighted_work_function": null,
  "surface_anisotropy": null,
  "shape_factor": null,
  "has_reconstructed": null,
  "possible_species": null,
  "has_props": null,
  "theoretical": null,
  "database_IDs": null,
  "fields_not_requested": [
    "builder_meta",
    "nsites",
    "elements",
    "nelements",
    "composition",
    "composition_reduced",
    "chemsys",
    "symmetry",
    "property_name",
    "deprecated",
    "deprecation_reasons",
    "last_updated",
    "origins",
    "warnings",
    "task_ids",
    "uncorrected_energy_per_atom",
    "equilibrium_reaction_energy_per_atom",
    "decomposes_to",
    "xas",
    "grain_boundaries",
    "cbm",
    "vbm",
    "is_gap_direct",
    "is_metal",
    "es_source_calc_id",
    "bandstructure",
    "dos",
    "dos_energy_up",
    "dos_energy_down",
    "is_magnetic",
    "ordering",
    "total_magnetization_normalized_vol",
    "total_magnetization_normalized_formula_units",
    "num_magnetic_sites",
    "num_unique_magnetic_sites",
    "types_of_magnetic_species",
    "bulk_modulus",
    "shear_modulus",
    "universal_anisotropy",
    "homogeneous_poisson",
    "e_total",
    "e_ionic",
    "e_electronic",
    "n",
    "e_ij_max",
    "weighted_surface_energy_EV_PER_ANG2",
    "weighted_surface_energy",
    "weighted_work_function",
    "surface_anisotropy",
    "shape_factor",
    "has_reconstructed",
    "possible_species",
    "has_props",
    "theoretical",
    "database_IDs"
  ]
}
