{
  "builder_meta": null,
  "nsites": null,
  "elements": null,
  "nelements": null,
  "composition": null,
  "composition_reduced": null,
  "formula_pretty": "Zr2O",
  "formula_anonymous": "AB2",
  "chemsys": null,
  "volume": 288.44786290793894,
  "density": 6.854541899733948,
  "density_atomic": 16.024881272663276,
  "symmetry": null,
  "property_name": null,
  "material_id": "mp-753629",
  "deprecated": null,
  "deprecation_reasons": null,
  "last_updated": null,
  "origins": null,
  "warnings": null,
  "structure": {
    "@module": "pymatgen.core.structure",
    "@class": "Structure",
    "charge": 0,
    "lattice": {
      "matrix": [
        [5.65038706, 7.843e-5, -1.107e-5],
        [-2.82513003, 4.8932445399999995, 1.3350000000000001e-5],
        [-3.4900000000000015e-5, -4.8100000000000005e-6, 10.432508]
      ],
      "pbc": [true, true, true],
      "a": 5.6503870605551665,
      "b": 5.650239093598238,
      "c": 10.432508000059485,
      "alpha": 89.99979166646162,
      "beta": 90.00030392413177,
      "gamma": 119.9993274575714,
      "volume": 288.4478629079388
    },
    "properties": {},
    "sites": [
      {
        "species": [{ "element": "Zr", "occu": 1 }],
        "abc": [0.00084888, 0.65806274, 0.24614764],
        "properties": { "magmom": 0.0 },
        "label": "Zr",
        "xyz": [-1.8543248983832252, 3.220060792089949, 2.5679459992215974]
      },
      {
        "species": [{ "element": "Zr", "occu": 1 }],
        "abc": [0.00024791, 0.6670639700000001, 0.74916139],
        "properties": { "magmom": 0.0 },
        "label": "Zr",
        "xyz": [-1.8831678118544857, 3.2641035450105194, 7.815641097025757]
      },
      {
        "species": [{ "element": "Zr", "occu": 1 }],
        "abc": [0.00025332, 0.33315603, 0.00085755],
        "properties": { "magmom": -0.0 },
        "label": "Zr",
        "xyz": [-0.9397777789070367, 1.630213940508648, 0.0089508420641481]
      },
      {
        "species": [{ "element": "Zr", "occu": 1 }],
        "abc": [0.00082201, 0.34285872, 0.50386239],
        "properties": { "magmom": -0.0 },
        "label": "Zr",
        "xyz": [-0.9639933760495819, 1.6776892005235369, 5.256552982638381]
      },
      {
        "species": [{ "element": "Zr", "occu": 1 }],
        "abc": [0.33288413, 0.33316137, 0.74914445],
        "properties": { "magmom": -0.0 },
        "label": "Zr",
        "xyz": [0.9396738442671116, 1.630262559408931, 7.8154562304575705]
      },
      {
        "species": [{ "element": "Zr", "occu": 1 }],
        "abc": [0.34199121, 0.34282913, 0.24612625000000002],
        "properties": { "magmom": -0.0 },
        "label": "Zr",
        "xyz": [0.9638372474898437, 1.6775724070287878, 2.567714863061191]
      },
      {
        "species": [{ "element": "Zr", "occu": 1 }],
        "abc": [0.33290203, 0.99971382, 0.00083057],
        "properties": { "magmom": 0.0 },
        "label": "Zr",
        "xyz": [-0.9432962407151758, 4.8918702967887135, 0.008674589123584901]
      },
      {
        "species": [{ "element": "Zr", "occu": 1 }],
        "abc": [0.3420105, 0.99916691, 0.50386214],
        "properties": { "magmom": -0.0 },
        "label": "Zr",
        "xyz": [-0.8903023236278634, 4.889192427212793, 5.256555359269133]
      },
      {
        "species": [{ "element": "Zr", "occu": 1 }],
        "abc": [0.66682009, 0.66707855, 0.00086122],
        "properties": { "magmom": 0.0 },
        "label": "Zr",
        "xyz": [1.8832079338536005, 3.2642307670958073, 0.008986208340006201]
      },
      {
        "species": [{ "element": "Zr", "occu": 1 }],
        "abc": [0.65716323, 0.65799317, 0.5038908],
        "properties": { "magmom": 0.0 },
        "label": "Zr",
        "xyz": [1.8542927612089888, 3.2197706040571723, 5.256846311538263]
      },
      {
        "species": [{ "element": "Zr", "occu": 1 }],
        "abc": [0.65711777, 0.99918203, 0.24613692],
        "properties": { "magmom": 0.0 },
        "label": "Zr",
        "xyz": [0.8901419959361873, 4.889292366591732, 2.5678314517817467]
      },
      {
        "species": [{ "element": "Zr", "occu": 1 }],
        "abc": [0.666805099999999, 0.99972852, 0.7491534],
        "properties": { "magmom": 0.0 },
        "label": "Zr",
        "xyz": [0.9433176994288849, 4.89196481606842, 7.815554803570485]
      },
      {
        "species": [{ "element": "O", "occu": 1 }],
        "abc": [0.33330937, 0.66669267, 0.11754061],
        "properties": { "magmom": 0.0 },
        "label": "O",
        "xyz": [-0.00017063374041684828, 3.2623158434190764, 1.2262485647622987]
      },
      {
        "species": [{ "element": "O", "occu": 1 }],
        "abc": [0.33329206, 0.66667866, 0.63249581],
        "properties": { "magmom": 0.0 },
        "label": "O",
        "xyz": [-0.0002468338051849997, 3.2622448107709356, 6.598522808408488]
      },
      {
        "species": [{ "element": "O", "occu": 1 }],
        "abc": [0.33337958, 0.6666136300000001, 0.37497745],
        "properties": { "magmom": -0.0 },
        "label": "O",
        "xyz": [0.0004403936669208746, 3.2619278486060055, 3.91196045572461]
      },
      {
        "species": [{ "element": "O", "occu": 1 }],
        "abc": [0.99996583, 0.99998257, 0.87498643],
        "properties": { "magmom": 0.0 },
        "label": "O",
        "xyz": [2.8250826612641755, 4.893233469382986, 9.12830521101201]
      },
      {
        "species": [{ "element": "O", "occu": 1 }],
        "abc": [0.6666477, 0.33333142, 0.87498397],
        "properties": { "magmom": -0.0 },
        "label": "O",
        "xyz": [2.825082396133666, 1.6311202274316619, 9.12827433708118]
      },
      {
        "species": [{ "element": "O", "occu": 1 }],
        "abc": [0.66664128, 0.33340508, 0.374977],
        "properties": { "magmom": -0.0 },
        "label": "O",
        "xyz": [2.824855471813984, 1.6314830683544834, 3.9119476235548483]
      }
    ]
  },
  "task_ids": null,
  "uncorrected_energy_per_atom": null,
  "energy_per_atom": -9.33863355388889,
  "formation_energy_per_atom": -1.990846132222222,
  "energy_above_hull": 0.008804855277775001,
  "is_stable": false,
  "equilibrium_reaction_energy_per_atom": null,
  "decomposes_to": null,
  "xas": null,
  "grain_boundaries": null,
  "band_gap": 0.0,
  "cbm": null,
  "vbm": null,
  "efermi": 5.58345645,
  "is_gap_direct": null,
  "is_metal": null,
  "es_source_calc_id": null,
  "bandstructure": null,
  "dos": null,
  "dos_energy_up": null,
  "dos_energy_down": null,
  "is_magnetic": null,
  "ordering": null,
  "total_magnetization": 0.0,
  "total_magnetization_normalized_vol": null,
  "total_magnetization_normalized_formula_units": null,
  "num_magnetic_sites": null,
  "num_unique_magnetic_sites": null,
  "types_of_magnetic_species": null,
  "bulk_modulus": null,
  "shear_modulus": null,
  "universal_anisotropy": null,
  "homogeneous_poisson": null,
  "e_total": null,
  "e_ionic": null,
  "e_electronic": null,
  "n": null,
  "e_ij_max": null,
  "weighted_surface_energy_EV_PER_ANG2": null,
  "weighted_surface_energy": null,
  "weighted_work_function": null,
  "surface_anisotropy": null,
  "shape_factor": null,
  "has_reconstructed": null,
  "possible_species": null,
  "has_props": null,
  "theoretical": null,
  "database_IDs": null,
  "fields_not_requested": [
    "builder_meta",
    "nsites",
    "elements",
    "nelements",
    "composition",
    "composition_reduced",
    "chemsys",
    "symmetry",
    "property_name",
    "deprecated",
    "deprecation_reasons",
    "last_updated",
    "origins",
    "warnings",
    "task_ids",
    "uncorrected_energy_per_atom",
    "equilibrium_reaction_energy_per_atom",
    "decomposes_to",
    "xas",
    "grain_boundaries",
    "cbm",
    "vbm",
    "is_gap_direct",
    "is_metal",
    "es_source_calc_id",
    "bandstructure",
    "dos",
    "dos_energy_up",
    "dos_energy_down",
    "is_magnetic",
    "ordering",
    "total_magnetization_normalized_vol",
    "total_magnetization_normalized_formula_units",
    "num_magnetic_sites",
    "num_unique_magnetic_sites",
    "types_of_magnetic_species",
    "bulk_modulus",
    "shear_modulus",
    "universal_anisotropy",
    "homogeneous_poisson",
    "e_total",
    "e_ionic",
    "e_electronic",
    "n",
    "e_ij_max",
    "weighted_surface_energy_EV_PER_ANG2",
    "weighted_surface_energy",
    "weighted_work_function",
    "surface_anisotropy",
    "shape_factor",
    "has_reconstructed",
    "possible_species",
    "has_props",
    "theoretical",
    "database_IDs"
  ]
}
