{
  "builder_meta": null,
  "nsites": null,
  "elements": null,
  "nelements": null,
  "composition": null,
  "composition_reduced": null,
  "formula_pretty": "Zr2P",
  "formula_anonymous": "AB2",
  "chemsys": null,
  "volume": 1031.9246011692417,
  "density": 6.18176281010934,
  "density_atomic": 19.10971483646744,
  "symmetry": null,
  "property_name": null,
  "material_id": "mp-28511",
  "deprecated": null,
  "deprecation_reasons": null,
  "last_updated": null,
  "origins": null,
  "warnings": null,
  "structure": {
    "@module": "pymatgen.core.structure",
    "@class": "Structure",
    "charge": 0,
    "lattice": {
      "matrix": [
        [9.577164, -14.80988, 0.0],
        [9.577164, 14.80988, 0.0],
        [0.0, 0.0, 3.637722]
      ],
      "pbc": [true, true, true],
      "a": 17.636740512274258,
      "b": 17.636740512274258,
      "c": 3.637722,
      "alpha": 90.0,
      "beta": 90.0,
      "gamma": 114.22060483971579,
      "volume": 1031.9246011692417
    },
    "properties": {},
    "sites": [
      {
        "species": [{ "element": "Zr", "occu": 1 }],
        "abc": [0.461786, 0.699315999999999, 0.0],
        "properties": { "magmom": -0.001 },
        "label": "Zr",
        "xyz": [11.12006427472799, 3.5177907963999857, 0.0]
      },
      {
        "species": [{ "element": "Zr", "occu": 1 }],
        "abc": [0.538214, 0.300684, 0.0],
        "properties": { "magmom": -0.001 },
        "label": "Zr",
        "xyz": [8.034263725272, -3.517790796399999, 0.0]
      },
      {
        "species": [{ "element": "Zr", "occu": 1 }],
        "abc": [0.250608999999999, 0.250608999999999, 0.5],
        "properties": { "magmom": -0.001 },
        "label": "Zr",
        "xyz": [4.800246985751981, 0.0, 1.818861]
      },
      {
        "species": [{ "element": "Zr", "occu": 1 }],
        "abc": [0.749390999999999, 0.749390999999999, 0.5],
        "properties": { "magmom": -0.001 },
        "label": "Zr",
        "xyz": [14.354081014247981, 0.0, 1.818861]
      },
      {
        "species": [{ "element": "Zr", "occu": 1 }],
        "abc": [0.106622, 0.106622, 0.0],
        "properties": { "magmom": -0.005 },
        "label": "Zr",
        "xyz": [2.042272760016, 0.0, 0.0]
      },
      {
        "species": [{ "element": "Zr", "occu": 1 }],
        "abc": [0.893378, 0.893378, 0.0],
        "properties": { "magmom": -0.005 },
        "label": "Zr",
        "xyz": [17.112055239984, 0.0, 0.0]
      },
      {
        "species": [{ "element": "Zr", "occu": 1 }],
        "abc": [0.384225, 0.384225, 0.0],
        "properties": { "magmom": -0.004 },
        "label": "Zr",
        "xyz": [7.3595716758, 0.0, 0.0]
      },
      {
        "species": [{ "element": "Zr", "occu": 1 }],
        "abc": [0.615775, 0.615775, 0.0],
        "properties": { "magmom": -0.004 },
        "label": "Zr",
        "xyz": [11.7947563242, 0.0, 0.0]
      },
      {
        "species": [{ "element": "Zr", "occu": 1 }],
        "abc": [0.942179, 0.057821, 0.5],
        "properties": { "magmom": -0.002 },
        "label": "Zr",
        "xyz": [9.577164, -13.097235857040001, 1.818861]
      },
      {
        "species": [{ "element": "Zr", "occu": 1 }],
        "abc": [0.057821, 0.942179, 0.5],
        "properties": { "magmom": -0.002 },
        "label": "Zr",
        "xyz": [9.577164, 13.097235857040001, 1.818861]
      },
      {
        "species": [{ "element": "Zr", "occu": 1 }],
        "abc": [0.692414, 0.307585999999999, 0.5],
        "properties": { "magmom": 0.002 },
        "label": "Zr",
        "xyz": [9.57716399999999, -5.699256500640015, 1.818861]
      },
      {
        "species": [{ "element": "Zr", "occu": 1 }],
        "abc": [0.307585999999999, 0.692414, 0.5],
        "properties": { "magmom": 0.002 },
        "label": "Zr",
        "xyz": [9.57716399999999, 5.699256500640015, 1.818861]
      },
      {
        "species": [{ "element": "Zr", "occu": 1 }],
        "abc": [0.552206, 0.447793999999999, 0.5],
        "properties": { "magmom": -0.004 },
        "label": "Zr",
        "xyz": [9.57716399999999, -1.5463291905600132, 1.818861]
      },
      {
        "species": [{ "element": "Zr", "occu": 1 }],
        "abc": [0.447793999999999, 0.552206, 0.5],
        "properties": { "magmom": -0.004 },
        "label": "Zr",
        "xyz": [9.57716399999999, 1.5463291905600132, 1.818861]
      },
      {
        "species": [{ "element": "Zr", "occu": 1 }],
        "abc": [0.778855, 0.221144999999999, 0.0],
        "properties": { "magmom": 0.003 },
        "label": "Zr",
        "xyz": [9.577163999999991, -8.259618174800014, 0.0]
      },
      {
        "species": [{ "element": "Zr", "occu": 1 }],
        "abc": [0.221144999999999, 0.778855, 0.0],
        "properties": { "magmom": 0.003 },
        "label": "Zr",
        "xyz": [9.577163999999991, 8.259618174800014, 0.0]
      },
      {
        "species": [{ "element": "Zr", "occu": 1 }],
        "abc": [0.0, 0.5, 0.0],
        "properties": { "magmom": -0.001 },
        "label": "Zr",
        "xyz": [4.788582, 7.40494, 0.0]
      },
      {
        "species": [{ "element": "Zr", "occu": 1 }],
        "abc": [0.5, 0.0, 0.0],
        "properties": { "magmom": -0.001 },
        "label": "Zr",
        "xyz": [4.788582, -7.40494, 0.0]
      },
      {
        "species": [{ "element": "Zr", "occu": 1 }],
        "abc": [0.300684, 0.538214, 0.0],
        "properties": { "magmom": -0.001 },
        "label": "Zr",
        "xyz": [8.034263725272, 3.517790796399999, 0.0]
      },
      {
        "species": [{ "element": "Zr", "occu": 1 }],
        "abc": [0.699315999999999, 0.461786, 0.0],
        "properties": { "magmom": -0.001 },
        "label": "Zr",
        "xyz": [11.12006427472799, -3.5177907963999857, 0.0]
      },
      {
        "species": [{ "element": "Zr", "occu": 1 }],
        "abc": [0.789127999999999, 0.031577, 0.0],
        "properties": { "magmom": 0.001 },
        "label": "Zr",
        "xyz": [7.860026380619991, -11.219239403879985, 0.0]
      },
      {
        "species": [{ "element": "Zr", "occu": 1 }],
        "abc": [0.210872, 0.968422999999999, 0.0],
        "properties": { "magmom": 0.001 },
        "label": "Zr",
        "xyz": [11.29430161937999, 11.219239403879985, 0.0]
      },
      {
        "species": [{ "element": "Zr", "occu": 1 }],
        "abc": [0.031577, 0.789127999999999, 0.0],
        "properties": { "magmom": 0.001 },
        "label": "Zr",
        "xyz": [7.860026380619991, 11.219239403879985, 0.0]
      },
      {
        "species": [{ "element": "Zr", "occu": 1 }],
        "abc": [0.968422999999999, 0.210872, 0.0],
        "properties": { "magmom": 0.001 },
        "label": "Zr",
        "xyz": [11.29430161937999, -11.219239403879985, 0.0]
      },
      {
        "species": [{ "element": "Zr", "occu": 1 }],
        "abc": [0.6694100000000001, 0.8347100000000001, 0.0],
        "properties": { "magmom": -0.002 },
        "label": "Zr",
        "xyz": [14.405203915680001, 2.4480731639999984, 0.0]
      },
      {
        "species": [{ "element": "Zr", "occu": 1 }],
        "abc": [0.33059000000000005, 0.16529000000000002, 0.0],
        "properties": { "magmom": -0.002 },
        "label": "Zr",
        "xyz": [4.749124084320001, -2.4480731640000006, 0.0]
      },
      {
        "species": [{ "element": "Zr", "occu": 1 }],
        "abc": [0.8347100000000001, 0.6694100000000001, 0.0],
        "properties": { "magmom": -0.002 },
        "label": "Zr",
        "xyz": [14.405203915680001, -2.4480731639999984, 0.0]
      },
      {
        "species": [{ "element": "Zr", "occu": 1 }],
        "abc": [0.16529000000000002, 0.33059000000000005, 0.0],
        "properties": { "magmom": -0.002 },
        "label": "Zr",
        "xyz": [4.749124084320001, 2.4480731640000006, 0.0]
      },
      {
        "species": [{ "element": "Zr", "occu": 1 }],
        "abc": [0.481361999999999, 0.141254, 0.5],
        "properties": { "magmom": -0.001 },
        "label": "Zr",
        "xyz": [5.9628955410239906, -5.036958667039985, 1.818861]
      },
      {
        "species": [{ "element": "Zr", "occu": 1 }],
        "abc": [0.518637999999999, 0.858746, 0.5],
        "properties": { "magmom": -0.001 },
        "label": "Zr",
        "xyz": [13.191432458975992, 5.036958667040015, 1.818861]
      },
      {
        "species": [{ "element": "Zr", "occu": 1 }],
        "abc": [0.141254, 0.481361999999999, 0.5],
        "properties": { "magmom": -0.001 },
        "label": "Zr",
        "xyz": [5.9628955410239906, 5.036958667039985, 1.818861]
      },
      {
        "species": [{ "element": "Zr", "occu": 1 }],
        "abc": [0.858746, 0.518637999999999, 0.5],
        "properties": { "magmom": -0.001 },
        "label": "Zr",
        "xyz": [13.191432458975992, -5.036958667040015, 1.818861]
      },
      {
        "species": [{ "element": "Zr", "occu": 1 }],
        "abc": [0.654292, 0.085991, 0.5],
        "properties": { "magmom": 0.001 },
        "label": "Zr",
        "xyz": [7.089811697411999, -8.41646961388, 1.818861]
      },
      {
        "species": [{ "element": "Zr", "occu": 1 }],
        "abc": [0.345707999999999, 0.914009, 0.5],
        "properties": { "magmom": 0.001 },
        "label": "Zr",
        "xyz": [12.06451630258799, 8.416469613880013, 1.818861]
      },
      {
        "species": [{ "element": "Zr", "occu": 1 }],
        "abc": [0.085991, 0.654292, 0.5],
        "properties": { "magmom": 0.001 },
        "label": "Zr",
        "xyz": [7.089811697411999, 8.41646961388, 1.818861]
      },
      {
        "species": [{ "element": "Zr", "occu": 1 }],
        "abc": [0.914009, 0.345707999999999, 0.5],
        "properties": { "magmom": 0.001 },
        "label": "Zr",
        "xyz": [12.06451630258799, -8.416469613880013, 1.818861]
      },
      {
        "species": [{ "element": "P", "occu": 1 }],
        "abc": [0.1553, 0.8447, 0.5],
        "properties": { "magmom": -0.0 },
        "label": "P",
        "xyz": [9.577164, 10.209931271999999, 1.818861]
      },
      {
        "species": [{ "element": "P", "occu": 1 }],
        "abc": [0.8447, 0.1553, 0.5],
        "properties": { "magmom": -0.0 },
        "label": "P",
        "xyz": [9.577164, -10.209931271999999, 1.818861]
      },
      {
        "species": [{ "element": "P", "occu": 1 }],
        "abc": [0.608229, 0.178005, 0.0],
        "properties": { "magmom": -0.0 },
        "label": "P",
        "xyz": [7.529891960376, -6.37156581312, 0.0]
      },
      {
        "species": [{ "element": "P", "occu": 1 }],
        "abc": [0.391771, 0.821994999999999, 0.0],
        "properties": { "magmom": -0.0 },
        "label": "P",
        "xyz": [11.62443603962399, 6.371565813119986, 0.0]
      },
      {
        "species": [{ "element": "P", "occu": 1 }],
        "abc": [0.178005, 0.608229, 0.0],
        "properties": { "magmom": -0.0 },
        "label": "P",
        "xyz": [7.529891960376, 6.37156581312, 0.0]
      },
      {
        "species": [{ "element": "P", "occu": 1 }],
        "abc": [0.821994999999999, 0.391771, 0.0],
        "properties": { "magmom": -0.0 },
        "label": "P",
        "xyz": [11.62443603962399, -6.371565813119986, 0.0]
      },
      {
        "species": [{ "element": "P", "occu": 1 }],
        "abc": [0.627251, 0.961021999999999, 0.0],
        "properties": { "magmom": -0.0 },
        "label": "P",
        "xyz": [15.211150997771991, 4.943108457479985, 0.0]
      },
      {
        "species": [{ "element": "P", "occu": 1 }],
        "abc": [0.372749, 0.038978, 0.0],
        "properties": { "magmom": -0.0 },
        "label": "P",
        "xyz": [3.943177002228, -4.94310845748, 0.0]
      },
      {
        "species": [{ "element": "P", "occu": 1 }],
        "abc": [0.961021999999999, 0.627251, 0.0],
        "properties": { "magmom": -0.0 },
        "label": "P",
        "xyz": [15.211150997771991, -4.943108457479985, 0.0]
      },
      {
        "species": [{ "element": "P", "occu": 1 }],
        "abc": [0.038978, 0.372749, 0.0],
        "properties": { "magmom": -0.0 },
        "label": "P",
        "xyz": [3.943177002228, 4.94310845748, 0.0]
      },
      {
        "species": [{ "element": "P", "occu": 1 }],
        "abc": [0.58059, 0.718425, 0.5],
        "properties": { "magmom": -0.0 },
        "label": "P",
        "xyz": [12.440879693460001, 2.041319809799999, 1.818861]
      },
      {
        "species": [{ "element": "P", "occu": 1 }],
        "abc": [0.41941000000000006, 0.281574999999999, 0.5],
        "properties": { "magmom": -0.0 },
        "label": "P",
        "xyz": [6.713448306539991, -2.041319809800015, 1.818861]
      },
      {
        "species": [{ "element": "P", "occu": 1 }],
        "abc": [0.718425, 0.58059, 0.5],
        "properties": { "magmom": -0.0 },
        "label": "P",
        "xyz": [12.440879693460001, -2.041319809799999, 1.818861]
      },
      {
        "species": [{ "element": "P", "occu": 1 }],
        "abc": [0.281574999999999, 0.41941000000000006, 0.5],
        "properties": { "magmom": -0.0 },
        "label": "P",
        "xyz": [6.713448306539991, 2.041319809800015, 1.818861]
      },
      {
        "species": [{ "element": "P", "occu": 1 }],
        "abc": [0.792009, 0.918215999999999, 0.5],
        "properties": { "magmom": 0.0 },
        "label": "P",
        "xyz": [16.37910530189999, 1.8691105251599858, 1.818861]
      },
      {
        "species": [{ "element": "P", "occu": 1 }],
        "abc": [0.207990999999999, 0.081784, 0.5],
        "properties": { "magmom": 0.0 },
        "label": "P",
        "xyz": [2.7752226980999906, -1.8691105251599855, 1.818861]
      },
      {
        "species": [{ "element": "P", "occu": 1 }],
        "abc": [0.918215999999999, 0.792009, 0.5],
        "properties": { "magmom": 0.0 },
        "label": "P",
        "xyz": [16.37910530189999, -1.8691105251599858, 1.818861]
      },
      {
        "species": [{ "element": "P", "occu": 1 }],
        "abc": [0.081784, 0.207990999999999, 0.5],
        "properties": { "magmom": 0.0 },
        "label": "P",
        "xyz": [2.7752226980999906, 1.8691105251599855, 1.818861]
      }
    ]
  },
  "task_ids": null,
  "uncorrected_energy_per_atom": null,
  "energy_per_atom": -8.582145594074074,
  "formation_energy_per_atom": -1.078520665621693,
  "energy_above_hull": 0.007119856425926,
  "is_stable": false,
  "equilibrium_reaction_energy_per_atom": null,
  "decomposes_to": null,
  "xas": null,
  "grain_boundaries": null,
  "band_gap": 0.0,
  "cbm": null,
  "vbm": null,
  "efermi": 5.88876664,
  "is_gap_direct": null,
  "is_metal": null,
  "es_source_calc_id": null,
  "bandstructure": null,
  "dos": null,
  "dos_energy_up": null,
  "dos_energy_down": null,
  "is_magnetic": null,
  "ordering": null,
  "total_magnetization": 0.060639,
  "total_magnetization_normalized_vol": null,
  "total_magnetization_normalized_formula_units": null,
  "num_magnetic_sites": null,
  "num_unique_magnetic_sites": null,
  "types_of_magnetic_species": null,
  "bulk_modulus": null,
  "shear_modulus": null,
  "universal_anisotropy": null,
  "homogeneous_poisson": null,
  "e_total": null,
  "e_ionic": null,
  "e_electronic": null,
  "n": null,
  "e_ij_max": null,
  "weighted_surface_energy_EV_PER_ANG2": null,
  "weighted_surface_energy": null,
  "weighted_work_function": null,
  "surface_anisotropy": null,
  "shape_factor": null,
  "has_reconstructed": null,
  "possible_species": null,
  "has_props": null,
  "theoretical": null,
  "database_IDs": null,
  "fields_not_requested": [
    "builder_meta",
    "nsites",
    "elements",
    "nelements",
    "composition",
    "composition_reduced",
    "chemsys",
    "symmetry",
    "property_name",
    "deprecated",
    "deprecation_reasons",
    "last_updated",
    "origins",
    "warnings",
    "task_ids",
    "uncorrected_energy_per_atom",
    "equilibrium_reaction_energy_per_atom",
    "decomposes_to",
    "xas",
    "grain_boundaries",
    "cbm",
    "vbm",
    "is_gap_direct",
    "is_metal",
    "es_source_calc_id",
    "bandstructure",
    "dos",
    "dos_energy_up",
    "dos_energy_down",
    "is_magnetic",
    "ordering",
    "total_magnetization_normalized_vol",
    "total_magnetization_normalized_formula_units",
    "num_magnetic_sites",
    "num_unique_magnetic_sites",
    "types_of_magnetic_species",
    "bulk_modulus",
    "shear_modulus",
    "universal_anisotropy",
    "homogeneous_poisson",
    "e_total",
    "e_ionic",
    "e_electronic",
    "n",
    "e_ij_max",
    "weighted_surface_energy_EV_PER_ANG2",
    "weighted_surface_energy",
    "weighted_work_function",
    "surface_anisotropy",
    "shape_factor",
    "has_reconstructed",
    "possible_species",
    "has_props",
    "theoretical",
    "database_IDs"
  ]
}
