{
  "builder_meta": null,
  "nsites": null,
  "elements": null,
  "nelements": null,
  "composition": null,
  "composition_reduced": null,
  "formula_pretty": "Zr2Pt",
  "formula_anonymous": "AB2",
  "chemsys": null,
  "volume": 499.81922963420834,
  "density": 10.034133906379415,
  "density_atomic": 20.825801234758682,
  "symmetry": null,
  "property_name": null,
  "material_id": "mp-1191960",
  "deprecated": null,
  "deprecation_reasons": null,
  "last_updated": null,
  "origins": null,
  "warnings": null,
  "structure": {
    "@module": "pymatgen.core.structure",
    "@class": "Structure",
    "charge": 0,
    "lattice": {
      "matrix": [
        [0.0, 6.29884597, 6.29884597],
        [6.29884597, 0.0, 6.29884597],
        [6.29884597, 6.29884597, -0.0]
      ],
      "pbc": [true, true, true],
      "a": 8.907913398073113,
      "b": 8.907913398073113,
      "c": 8.907913398073113,
      "alpha": 59.99999999999999,
      "beta": 59.99999999999999,
      "gamma": 59.99999999999999,
      "volume": 499.81922963420834
    },
    "properties": {},
    "sites": [
      {
        "species": [{ "element": "Zr", "occu": 1 }],
        "abc": [0.125, 0.625, 0.625],
        "properties": { "magmom": 0.0 },
        "label": "Zr",
        "xyz": [7.873557462500001, 4.724134477500001, 4.724134477500001]
      },
      {
        "species": [{ "element": "Zr", "occu": 1 }],
        "abc": [0.625, 0.125, 0.625],
        "properties": { "magmom": 0.0 },
        "label": "Zr",
        "xyz": [4.724134477500001, 7.873557462500001, 4.724134477500001]
      },
      {
        "species": [{ "element": "Zr", "occu": 1 }],
        "abc": [0.625, 0.625, 0.125],
        "properties": { "magmom": 0.0 },
        "label": "Zr",
        "xyz": [4.724134477500001, 4.724134477500001, 7.873557462500001]
      },
      {
        "species": [{ "element": "Zr", "occu": 1 }],
        "abc": [0.625, 0.625, 0.625],
        "properties": { "magmom": 0.0 },
        "label": "Zr",
        "xyz": [7.873557462500001, 7.873557462500001, 7.873557462500001]
      },
      {
        "species": [{ "element": "Zr", "occu": 1 }],
        "abc": [0.81346162, 0.81346162, 0.18653838],
        "properties": { "magmom": -0.0 },
        "label": "Zr",
        "xyz": [6.29884597, 6.29884597, 10.247738893773343]
      },
      {
        "species": [{ "element": "Zr", "occu": 1 }],
        "abc": [0.18653838, 0.18653838, 0.81346162],
        "properties": { "magmom": -0.0 },
        "label": "Zr",
        "xyz": [6.29884597, 6.29884597, 2.3499530462266573]
      },
      {
        "species": [{ "element": "Zr", "occu": 1 }],
        "abc": [0.81346162, 0.18653838, 0.81346162],
        "properties": { "magmom": -0.0 },
        "label": "Zr",
        "xyz": [6.29884597, 10.247738893773343, 6.29884597]
      },
      {
        "species": [{ "element": "Zr", "occu": 1 }],
        "abc": [0.18653838, 0.81346162, 0.18653838],
        "properties": { "magmom": -0.0 },
        "label": "Zr",
        "xyz": [6.29884597, 2.3499530462266573, 6.29884597]
      },
      {
        "species": [{ "element": "Zr", "occu": 1 }],
        "abc": [0.18653838, 0.81346162, 0.81346162],
        "properties": { "magmom": -0.0 },
        "label": "Zr",
        "xyz": [10.247738893773343, 6.29884597, 6.29884597]
      },
      {
        "species": [{ "element": "Zr", "occu": 1 }],
        "abc": [0.81346162, 0.18653838, 0.18653838],
        "properties": { "magmom": -0.0 },
        "label": "Zr",
        "xyz": [2.3499530462266573, 6.29884597, 6.29884597]
      },
      {
        "species": [{ "element": "Zr", "occu": 1 }],
        "abc": [0.43653838, 0.43653838, 0.06346162],
        "properties": { "magmom": -0.0 },
        "label": "Zr",
        "xyz": [3.149422985, 3.149422985, 5.4993760312266575]
      },
      {
        "species": [{ "element": "Zr", "occu": 1 }],
        "abc": [0.06346162, 0.06346162, 0.43653838],
        "properties": { "magmom": -0.0 },
        "label": "Zr",
        "xyz": [3.149422985, 3.149422985, 0.7994699387733428]
      },
      {
        "species": [{ "element": "Zr", "occu": 1 }],
        "abc": [0.43653838, 0.06346162, 0.43653838],
        "properties": { "magmom": -0.0 },
        "label": "Zr",
        "xyz": [3.149422985, 5.4993760312266575, 3.149422985]
      },
      {
        "species": [{ "element": "Zr", "occu": 1 }],
        "abc": [0.06346162, 0.43653838, 0.06346162],
        "properties": { "magmom": -0.0 },
        "label": "Zr",
        "xyz": [3.149422985, 0.7994699387733428, 3.149422985]
      },
      {
        "species": [{ "element": "Zr", "occu": 1 }],
        "abc": [0.06346162, 0.43653838, 0.43653838],
        "properties": { "magmom": -0.0 },
        "label": "Zr",
        "xyz": [5.4993760312266575, 3.149422985, 3.149422985]
      },
      {
        "species": [{ "element": "Zr", "occu": 1 }],
        "abc": [0.43653838, 0.06346162, 0.06346162],
        "properties": { "magmom": -0.0 },
        "label": "Zr",
        "xyz": [0.7994699387733428, 3.149422985, 3.149422985]
      },
      {
        "species": [{ "element": "Pt", "occu": 1 }],
        "abc": [0.79506984, 0.40164405000000003, 0.40164405000000003],
        "properties": { "magmom": 0.0 },
        "label": "Pt",
        "xyz": [5.059788011433958, 7.537916463269525, 7.537916463269525]
      },
      {
        "species": [{ "element": "Pt", "occu": 1 }],
        "abc": [0.40164405000000003, 0.79506984, 0.40164405000000003],
        "properties": { "magmom": 0.0 },
        "label": "Pt",
        "xyz": [7.537916463269525, 5.059788011433958, 7.537916463269525]
      },
      {
        "species": [{ "element": "Pt", "occu": 1 }],
        "abc": [0.40164405000000003, 0.40164405000000003, 0.79506984],
        "properties": { "magmom": 0.0 },
        "label": "Pt",
        "xyz": [7.537916463269525, 7.537916463269525, 5.059788011433958]
      },
      {
        "species": [{ "element": "Pt", "occu": 1 }],
        "abc": [0.40164405000000003, 0.40164405000000003, 0.40164405000000003],
        "properties": { "magmom": 0.0 },
        "label": "Pt",
        "xyz": [5.059788011433958, 5.059788011433958, 5.059788011433958]
      },
      {
        "species": [{ "element": "Pt", "occu": 1 }],
        "abc": [0.45493016000000003, 0.84835595, 0.84835595],
        "properties": { "magmom": 0.0 },
        "label": "Pt",
        "xyz": [10.687326913566043, 8.209198461730477, 8.209198461730477]
      },
      {
        "species": [{ "element": "Pt", "occu": 1 }],
        "abc": [0.84835595, 0.45493016000000003, 0.84835595],
        "properties": { "magmom": 0.0 },
        "label": "Pt",
        "xyz": [8.209198461730477, 10.687326913566043, 8.209198461730477]
      },
      {
        "species": [{ "element": "Pt", "occu": 1 }],
        "abc": [0.84835595, 0.84835595, 0.45493016000000003],
        "properties": { "magmom": 0.0 },
        "label": "Pt",
        "xyz": [8.209198461730477, 8.209198461730477, 10.687326913566043]
      },
      {
        "species": [{ "element": "Pt", "occu": 1 }],
        "abc": [0.84835595, 0.84835595, 0.84835595],
        "properties": { "magmom": 0.0 },
        "label": "Pt",
        "xyz": [10.687326913566043, 10.687326913566043, 10.687326913566043]
      }
    ]
  },
  "task_ids": null,
  "uncorrected_energy_per_atom": null,
  "energy_per_atom": -33.13981640666667,
  "formation_energy_per_atom": -0.8107161700000011,
  "energy_above_hull": 0.010309776666666002,
  "is_stable": false,
  "equilibrium_reaction_energy_per_atom": null,
  "decomposes_to": null,
  "xas": null,
  "grain_boundaries": null,
  "band_gap": 0.0,
  "cbm": null,
  "vbm": null,
  "efermi": 5.18549575,
  "is_gap_direct": null,
  "is_metal": null,
  "es_source_calc_id": null,
  "bandstructure": null,
  "dos": null,
  "dos_energy_up": null,
  "dos_energy_down": null,
  "is_magnetic": null,
  "ordering": null,
  "total_magnetization": 8e-7,
  "total_magnetization_normalized_vol": null,
  "total_magnetization_normalized_formula_units": null,
  "num_magnetic_sites": null,
  "num_unique_magnetic_sites": null,
  "types_of_magnetic_species": null,
  "bulk_modulus": null,
  "shear_modulus": null,
  "universal_anisotropy": null,
  "homogeneous_poisson": null,
  "e_total": null,
  "e_ionic": null,
  "e_electronic": null,
  "n": null,
  "e_ij_max": null,
  "weighted_surface_energy_EV_PER_ANG2": null,
  "weighted_surface_energy": null,
  "weighted_work_function": null,
  "surface_anisotropy": null,
  "shape_factor": null,
  "has_reconstructed": null,
  "possible_species": null,
  "has_props": null,
  "theoretical": null,
  "database_IDs": null,
  "fields_not_requested": [
    "builder_meta",
    "nsites",
    "elements",
    "nelements",
    "composition",
    "composition_reduced",
    "chemsys",
    "symmetry",
    "property_name",
    "deprecated",
    "deprecation_reasons",
    "last_updated",
    "origins",
    "warnings",
    "task_ids",
    "uncorrected_energy_per_atom",
    "equilibrium_reaction_energy_per_atom",
    "decomposes_to",
    "xas",
    "grain_boundaries",
    "cbm",
    "vbm",
    "is_gap_direct",
    "is_metal",
    "es_source_calc_id",
    "bandstructure",
    "dos",
    "dos_energy_up",
    "dos_energy_down",
    "is_magnetic",
    "ordering",
    "total_magnetization_normalized_vol",
    "total_magnetization_normalized_formula_units",
    "num_magnetic_sites",
    "num_unique_magnetic_sites",
    "types_of_magnetic_species",
    "bulk_modulus",
    "shear_modulus",
    "universal_anisotropy",
    "homogeneous_poisson",
    "e_total",
    "e_ionic",
    "e_electronic",
    "n",
    "e_ij_max",
    "weighted_surface_energy_EV_PER_ANG2",
    "weighted_surface_energy",
    "weighted_work_function",
    "surface_anisotropy",
    "shape_factor",
    "has_reconstructed",
    "possible_species",
    "has_props",
    "theoretical",
    "database_IDs"
  ]
}
