{"builder_meta": null, "nsites": null, "elements": null, "nelements": null, "composition": null, "composition_reduced": null, "formula_pretty": "Zr2Rh", "formula_anonymous": "AB2", "chemsys": null, "volume": 119.49474129645519, "density": 7.930736188055157, "density_atomic": 19.915790216075866, "symmetry": null, "property_name": null, "material_id": "mp-571664", "deprecated": null, "deprecation_reasons": null, "last_updated": null, "origins": null, "warnings": null, "structure": {"@module": "pymatgen.core.structure", "@class": "Structure", "charge": 0, "lattice": {"matrix": [[5.18735774, 0.0305095, -1.48590713], [-2.94791727, 4.27004175, -1.47192697], [-0.02303183, -0.03050951, 5.39593071]], "pbc": [true, true, true], "a": 5.396066266393788, "b": 5.393518497467186, "c": 5.396066115469185, "alpha": 105.96458748400475, "beta": 106.23017555773525, "gamma": 116.4745587281925, "volume": 119.49474129645519}, "properties": {}, "sites": [{"species": [{"element": "Zr", "occu": 1}], "abc": [0.16790017000000002, 0.33200073, 0.49978563000000004], "properties": {"magmom": -0.0}, "label": "Zr", "xyz": [-0.11926341688939411, 1.4075313136907512, 1.9586437410557973]}, {"species": [{"element": "Zr", "occu": 1}], "abc": [0.83209983, 0.66799927, 0.50021437], "properties": {"magmom": -0.0}, "label": "Zr", "xyz": [2.3356720568893947, 2.8625104263092487, 0.479452868944203]}, {"species": [{"element": "Zr", "occu": 1}], "abc": [0.33221409, 0.83200073, 0.16409856], "properties": {"magmom": -0.0}, "label": "Zr", "xyz": [-0.733135479658215, 3.5578069722520267, -0.8328191391933721]}, {"species": [{"element": "Zr", "occu": 1}], "abc": [0.66778591, 0.16799927, 0.83590144], "properties": {"magmom": -0.0}, "label": "Zr", "xyz": [2.9495441196582157, 0.7122347677479731, 3.2709157491933722]}, {"species": [{"element": "Rh", "occu": 1}], "abc": [0.24989615, 0.25, 0.99989615], "properties": {"magmom": -0.0}, "label": "Rh", "xyz": [0.5362919722542466, 1.0446283025010386, 4.656066129051217]}, {"species": [{"element": "Rh", "occu": 1}], "abc": [0.75010385, 0.75, 0.00010385], "properties": {"magmom": -0.0}, "label": "Rh", "xyz": [1.680116667745754, 3.225413437498961, -2.217969519051217]}]}, "task_ids": null, "uncorrected_energy_per_atom": null, "energy_per_atom": -23.80987856666667, "formation_energy_per_atom": -0.59794108666667, "energy_above_hull": 0.00028326999999700003, "is_stable": false, "equilibrium_reaction_energy_per_atom": null, "decomposes_to": null, "xas": null, "grain_boundaries": null, "band_gap": 0.0, "cbm": null, "vbm": null, "efermi": 4.88808793, "is_gap_direct": null, "is_metal": null, "es_source_calc_id": null, "bandstructure": null, "dos": null, "dos_energy_up": null, "dos_energy_down": null, "is_magnetic": null, "ordering": null, "total_magnetization": 1.1e-06, "total_magnetization_normalized_vol": null, "total_magnetization_normalized_formula_units": null, "num_magnetic_sites": null, "num_unique_magnetic_sites": null, "types_of_magnetic_species": null, "bulk_modulus": null, "shear_modulus": null, "universal_anisotropy": null, "homogeneous_poisson": null, "e_total": null, "e_ionic": null, "e_electronic": null, "n": null, "e_ij_max": null, "weighted_surface_energy_EV_PER_ANG2": null, "weighted_surface_energy": null, "weighted_work_function": null, "surface_anisotropy": null, "shape_factor": null, "has_reconstructed": null, "possible_species": null, "has_props": null, "theoretical": null, "database_IDs": null, "fields_not_requested": ["builder_meta", "nsites", "elements", "nelements", "composition", "composition_reduced", "chemsys", "symmetry", "property_name", "deprecated", "deprecation_reasons", "last_updated", "origins", "warnings", "task_ids", "uncorrected_energy_per_atom", "equilibrium_reaction_energy_per_atom", "decomposes_to", "xas", "grain_boundaries", "cbm", "vbm", "is_gap_direct", "is_metal", "es_source_calc_id", "bandstructure", "dos", "dos_energy_up", "dos_energy_down", "is_magnetic", "ordering", "total_magnetization_normalized_vol", "total_magnetization_normalized_formula_units", "num_magnetic_sites", "num_unique_magnetic_sites", "types_of_magnetic_species", "bulk_modulus", "shear_modulus", "universal_anisotropy", "homogeneous_poisson", "e_total", "e_ionic", "e_electronic", "n", "e_ij_max", "weighted_surface_energy_EV_PER_ANG2", "weighted_surface_energy", "weighted_work_function", "surface_anisotropy", "shape_factor", "has_reconstructed", "possible_species", "has_props", "theoretical", "database_IDs"]}