{
  "builder_meta": null,
  "nsites": null,
  "elements": null,
  "nelements": null,
  "composition": null,
  "composition_reduced": null,
  "formula_pretty": "Zr2Re",
  "formula_anonymous": "AB2",
  "chemsys": null,
  "volume": 593.8126695430682,
  "density": 10.30907659933355,
  "density_atomic": 19.793755651435607,
  "symmetry": null,
  "property_name": null,
  "material_id": "mp-1193848",
  "deprecated": null,
  "deprecation_reasons": null,
  "last_updated": null,
  "origins": null,
  "warnings": null,
  "structure": {
    "@module": "pymatgen.core.structure",
    "@class": "Structure",
    "charge": 0,
    "lattice": {
      "matrix": [
        [10.222811, 0.0, 0.0],
        [0.0, 10.222811, 0.0],
        [0.0, 0.0, 5.682099]
      ],
      "pbc": [true, true, true],
      "a": 10.222811,
      "b": 10.222811,
      "c": 5.682099,
      "alpha": 90.0,
      "beta": 90.0,
      "gamma": 90.0,
      "volume": 593.8126695430682
    },
    "properties": {},
    "sites": [
      {
        "species": [{ "element": "Zr", "occu": 1 }],
        "abc": [0.898624, 0.101376, 0.5],
        "properties": { "magmom": 0.005 },
        "label": "Zr",
        "xyz": [9.186463312064, 1.0363476879359999, 2.8410495]
      },
      {
        "species": [{ "element": "Zr", "occu": 1 }],
        "abc": [0.101376, 0.898624, 0.5],
        "properties": { "magmom": 0.005 },
        "label": "Zr",
        "xyz": [1.0363476879359999, 9.186463312064, 2.8410495]
      },
      {
        "species": [{ "element": "Zr", "occu": 1 }],
        "abc": [0.398624, 0.398624, 0.0],
        "properties": { "magmom": 0.005 },
        "label": "Zr",
        "xyz": [4.075057812064, 4.075057812064, 0.0]
      },
      {
        "species": [{ "element": "Zr", "occu": 1 }],
        "abc": [0.601376, 0.601376, 0.0],
        "properties": { "magmom": 0.005 },
        "label": "Zr",
        "xyz": [6.147753187936, 6.147753187936, 0.0]
      },
      {
        "species": [{ "element": "Zr", "occu": 1 }],
        "abc": [0.965309, 0.370096, 0.5],
        "properties": { "magmom": 0.003 },
        "label": "Zr",
        "xyz": [9.868171463599, 3.7834214598559996, 2.8410495]
      },
      {
        "species": [{ "element": "Zr", "occu": 1 }],
        "abc": [0.034691, 0.629904, 0.5],
        "properties": { "magmom": 0.003 },
        "label": "Zr",
        "xyz": [0.354639536401, 6.439389540144, 2.8410495]
      },
      {
        "species": [{ "element": "Zr", "occu": 1 }],
        "abc": [0.465309, 0.129904, 0.0],
        "properties": { "magmom": 0.003 },
        "label": "Zr",
        "xyz": [4.756765963598999, 1.327984040144, 0.0]
      },
      {
        "species": [{ "element": "Zr", "occu": 1 }],
        "abc": [0.534691, 0.870096, 0.0],
        "properties": { "magmom": 0.003 },
        "label": "Zr",
        "xyz": [5.466045036401001, 8.894826959856, 0.0]
      },
      {
        "species": [{ "element": "Zr", "occu": 1 }],
        "abc": [0.370096, 0.965309, 0.5],
        "properties": { "magmom": 0.003 },
        "label": "Zr",
        "xyz": [3.7834214598559996, 9.868171463599, 2.8410495]
      },
      {
        "species": [{ "element": "Zr", "occu": 1 }],
        "abc": [0.629904, 0.034691, 0.5],
        "properties": { "magmom": 0.003 },
        "label": "Zr",
        "xyz": [6.439389540144, 0.354639536401, 2.8410495]
      },
      {
        "species": [{ "element": "Zr", "occu": 1 }],
        "abc": [0.129904, 0.465309, 0.0],
        "properties": { "magmom": 0.003 },
        "label": "Zr",
        "xyz": [1.327984040144, 4.756765963598999, 0.0]
      },
      {
        "species": [{ "element": "Zr", "occu": 1 }],
        "abc": [0.870096, 0.534691, 0.0],
        "properties": { "magmom": 0.003 },
        "label": "Zr",
        "xyz": [8.894826959856, 5.466045036401001, 0.0]
      },
      {
        "species": [{ "element": "Zr", "occu": 1 }],
        "abc": [0.681910999999999, 0.318089, 0.249258999999999],
        "properties": { "magmom": 0.003 },
        "label": "Zr",
        "xyz": [6.97104727182099, 3.251763728179, 1.4163143146409944]
      },
      {
        "species": [{ "element": "Zr", "occu": 1 }],
        "abc": [0.318089, 0.681910999999999, 0.249258999999999],
        "properties": { "magmom": 0.003 },
        "label": "Zr",
        "xyz": [3.251763728179, 6.97104727182099, 1.4163143146409944]
      },
      {
        "species": [{ "element": "Zr", "occu": 1 }],
        "abc": [0.181911, 0.181911, 0.749259],
        "properties": { "magmom": 0.003 },
        "label": "Zr",
        "xyz": [1.8596417718209999, 1.8596417718209999, 4.257363814641]
      },
      {
        "species": [{ "element": "Zr", "occu": 1 }],
        "abc": [0.818089, 0.818089, 0.749259],
        "properties": { "magmom": 0.003 },
        "label": "Zr",
        "xyz": [8.363169228179, 8.363169228179, 4.257363814641]
      },
      {
        "species": [{ "element": "Zr", "occu": 1 }],
        "abc": [0.318089, 0.681910999999999, 0.750741],
        "properties": { "magmom": 0.003 },
        "label": "Zr",
        "xyz": [3.251763728179, 6.97104727182099, 4.265784685359]
      },
      {
        "species": [{ "element": "Zr", "occu": 1 }],
        "abc": [0.681910999999999, 0.318089, 0.750741],
        "properties": { "magmom": 0.003 },
        "label": "Zr",
        "xyz": [6.97104727182099, 3.251763728179, 4.265784685359]
      },
      {
        "species": [{ "element": "Zr", "occu": 1 }],
        "abc": [0.818089, 0.818089, 0.250741],
        "properties": { "magmom": 0.003 },
        "label": "Zr",
        "xyz": [8.363169228179, 8.363169228179, 1.424735185359]
      },
      {
        "species": [{ "element": "Zr", "occu": 1 }],
        "abc": [0.181911, 0.181911, 0.250741],
        "properties": { "magmom": 0.003 },
        "label": "Zr",
        "xyz": [1.8596417718209999, 1.8596417718209999, 1.424735185359]
      },
      {
        "species": [{ "element": "Re", "occu": 1 }],
        "abc": [0.5, 0.5, 0.5],
        "properties": { "magmom": 0.004 },
        "label": "Re",
        "xyz": [5.1114055, 5.1114055, 2.8410495]
      },
      {
        "species": [{ "element": "Re", "occu": 1 }],
        "abc": [0.0, 0.0, 0.0],
        "properties": { "magmom": 0.004 },
        "label": "Re",
        "xyz": [0.0, 0.0, 0.0]
      },
      {
        "species": [{ "element": "Re", "occu": 1 }],
        "abc": [0.251548999999999, 0.430801999999999, 0.5],
        "properties": { "magmom": 0.009000000000000001 },
        "label": "Re",
        "xyz": [2.57153788423899, 4.40400742442199, 2.8410495]
      },
      {
        "species": [{ "element": "Re", "occu": 1 }],
        "abc": [0.748451, 0.569198, 0.5],
        "properties": { "magmom": 0.009000000000000001 },
        "label": "Re",
        "xyz": [7.651273115761, 5.818803575577999, 2.8410495]
      },
      {
        "species": [{ "element": "Re", "occu": 1 }],
        "abc": [0.751548999999999, 0.069198, 0.0],
        "properties": { "magmom": 0.009000000000000001 },
        "label": "Re",
        "xyz": [7.68294338423899, 0.7073980755779999, 0.0]
      },
      {
        "species": [{ "element": "Re", "occu": 1 }],
        "abc": [0.248450999999999, 0.930801999999999, 0.0],
        "properties": { "magmom": 0.009000000000000001 },
        "label": "Re",
        "xyz": [2.53986761576099, 9.515412924421991, 0.0]
      },
      {
        "species": [{ "element": "Re", "occu": 1 }],
        "abc": [0.430801999999999, 0.251548999999999, 0.5],
        "properties": { "magmom": 0.009000000000000001 },
        "label": "Re",
        "xyz": [4.40400742442199, 2.57153788423899, 2.8410495]
      },
      {
        "species": [{ "element": "Re", "occu": 1 }],
        "abc": [0.569198, 0.748451, 0.5],
        "properties": { "magmom": 0.009000000000000001 },
        "label": "Re",
        "xyz": [5.818803575577999, 7.651273115761, 2.8410495]
      },
      {
        "species": [{ "element": "Re", "occu": 1 }],
        "abc": [0.069198, 0.751548999999999, 0.0],
        "properties": { "magmom": 0.009000000000000001 },
        "label": "Re",
        "xyz": [0.7073980755779999, 7.68294338423899, 0.0]
      },
      {
        "species": [{ "element": "Re", "occu": 1 }],
        "abc": [0.930801999999999, 0.248450999999999, 0.0],
        "properties": { "magmom": 0.009000000000000001 },
        "label": "Re",
        "xyz": [9.515412924421991, 2.53986761576099, 0.0]
      }
    ]
  },
  "task_ids": null,
  "uncorrected_energy_per_atom": null,
  "energy_per_atom": -9.976221402333334,
  "formation_energy_per_atom": -0.128382913166668,
  "energy_above_hull": 0.08440033013333201,
  "is_stable": false,
  "equilibrium_reaction_energy_per_atom": null,
  "decomposes_to": null,
  "xas": null,
  "grain_boundaries": null,
  "band_gap": 0.0,
  "cbm": null,
  "vbm": null,
  "efermi": 4.92779095,
  "is_gap_direct": null,
  "is_metal": null,
  "es_source_calc_id": null,
  "bandstructure": null,
  "dos": null,
  "dos_energy_up": null,
  "dos_energy_down": null,
  "is_magnetic": null,
  "ordering": null,
  "total_magnetization": 0.215013799999999,
  "total_magnetization_normalized_vol": null,
  "total_magnetization_normalized_formula_units": null,
  "num_magnetic_sites": null,
  "num_unique_magnetic_sites": null,
  "types_of_magnetic_species": null,
  "bulk_modulus": null,
  "shear_modulus": null,
  "universal_anisotropy": null,
  "homogeneous_poisson": null,
  "e_total": null,
  "e_ionic": null,
  "e_electronic": null,
  "n": null,
  "e_ij_max": null,
  "weighted_surface_energy_EV_PER_ANG2": null,
  "weighted_surface_energy": null,
  "weighted_work_function": null,
  "surface_anisotropy": null,
  "shape_factor": null,
  "has_reconstructed": null,
  "possible_species": null,
  "has_props": null,
  "theoretical": null,
  "database_IDs": null,
  "fields_not_requested": [
    "builder_meta",
    "nsites",
    "elements",
    "nelements",
    "composition",
    "composition_reduced",
    "chemsys",
    "symmetry",
    "property_name",
    "deprecated",
    "deprecation_reasons",
    "last_updated",
    "origins",
    "warnings",
    "task_ids",
    "uncorrected_energy_per_atom",
    "equilibrium_reaction_energy_per_atom",
    "decomposes_to",
    "xas",
    "grain_boundaries",
    "cbm",
    "vbm",
    "is_gap_direct",
    "is_metal",
    "es_source_calc_id",
    "bandstructure",
    "dos",
    "dos_energy_up",
    "dos_energy_down",
    "is_magnetic",
    "ordering",
    "total_magnetization_normalized_vol",
    "total_magnetization_normalized_formula_units",
    "num_magnetic_sites",
    "num_unique_magnetic_sites",
    "types_of_magnetic_species",
    "bulk_modulus",
    "shear_modulus",
    "universal_anisotropy",
    "homogeneous_poisson",
    "e_total",
    "e_ionic",
    "e_electronic",
    "n",
    "e_ij_max",
    "weighted_surface_energy_EV_PER_ANG2",
    "weighted_surface_energy",
    "weighted_work_function",
    "surface_anisotropy",
    "shape_factor",
    "has_reconstructed",
    "possible_species",
    "has_props",
    "theoretical",
    "database_IDs"
  ]
}
