{
  "builder_meta": null,
  "nsites": null,
  "elements": null,
  "nelements": null,
  "composition": null,
  "composition_reduced": null,
  "formula_pretty": "Zr2Si",
  "formula_anonymous": "AB2",
  "chemsys": null,
  "volume": 116.43640829025453,
  "density": 6.004979142031671,
  "density_atomic": 19.406068048375754,
  "symmetry": null,
  "property_name": null,
  "material_id": "mp-1278",
  "deprecated": null,
  "deprecation_reasons": null,
  "last_updated": null,
  "origins": null,
  "warnings": null,
  "structure": {
    "@module": "pymatgen.core.structure",
    "@class": "Structure",
    "charge": 0,
    "lattice": {
      "matrix": [
        [4.60294049, -0.0, 2.65683325],
        [2.30146973, 4.68064585, 1.32841662],
        [-0.038409030000000004, 0.0, 5.38223232]
      ],
      "pbc": [true, true, true],
      "a": 5.314680053661462,
      "b": 5.382369293119966,
      "c": 5.382369366741576,
      "alpha": 75.89195067486067,
      "beta": 60.41517923978811,
      "gamma": 60.41515496789561,
      "volume": 116.43640829025453
    },
    "properties": {},
    "sites": [
      {
        "species": [{ "element": "Zr", "occu": 1 }],
        "abc": [0.15798651, 0.5, 0.18402597],
        "properties": { "magmom": 0.0 },
        "label": "Zr",
        "xyz": [1.8708691097502808, 2.340322925, 2.074422646272808]
      },
      {
        "species": [{ "element": "Zr", "occu": 1 }],
        "abc": [0.34201349000000003, 0.81597403, 0.5],
        "properties": { "magmom": 0.0 },
        "label": "Zr",
        "xyz": [3.433002756758322, 3.819285457227276, 4.683742435120921]
      },
      {
        "species": [{ "element": "Zr", "occu": 1 }],
        "abc": [0.65798651, 0.18402597, 0.5],
        "properties": { "magmom": 0.0 },
        "label": "Zr",
        "xyz": [3.4329984332416776, 0.8613603927727246, 4.683739754879079]
      },
      {
        "species": [{ "element": "Zr", "occu": 1 }],
        "abc": [0.84201349, 0.5, 0.81597403],
        "properties": { "magmom": 0.0 },
        "label": "Zr",
        "xyz": [4.995132080249719, 2.340322925, 7.293059543727193]
      },
      {
        "species": [{ "element": "Si", "occu": 1 }],
        "abc": [0.25, 0.0, -0.0],
        "properties": { "magmom": -0.0 },
        "label": "Si",
        "xyz": [1.1507351225, 0.0, 0.6642083125]
      },
      {
        "species": [{ "element": "Si", "occu": 1 }],
        "abc": [0.75, -0.0, -0.0],
        "properties": { "magmom": -0.0 },
        "label": "Si",
        "xyz": [3.4522053675, 0.0, 1.9926249375]
      }
    ]
  },
  "task_ids": null,
  "uncorrected_energy_per_atom": null,
  "energy_per_atom": -18.924226140000002,
  "formation_energy_per_atom": -0.8331100050000011,
  "energy_above_hull": 0.0,
  "is_stable": true,
  "equilibrium_reaction_energy_per_atom": null,
  "decomposes_to": null,
  "xas": null,
  "grain_boundaries": null,
  "band_gap": 0.0,
  "cbm": null,
  "vbm": null,
  "efermi": 5.65898039,
  "is_gap_direct": null,
  "is_metal": null,
  "es_source_calc_id": null,
  "bandstructure": null,
  "dos": null,
  "dos_energy_up": null,
  "dos_energy_down": null,
  "is_magnetic": null,
  "ordering": null,
  "total_magnetization": 2e-7,
  "total_magnetization_normalized_vol": null,
  "total_magnetization_normalized_formula_units": null,
  "num_magnetic_sites": null,
  "num_unique_magnetic_sites": null,
  "types_of_magnetic_species": null,
  "bulk_modulus": null,
  "shear_modulus": null,
  "universal_anisotropy": null,
  "homogeneous_poisson": null,
  "e_total": null,
  "e_ionic": null,
  "e_electronic": null,
  "n": null,
  "e_ij_max": null,
  "weighted_surface_energy_EV_PER_ANG2": null,
  "weighted_surface_energy": null,
  "weighted_work_function": null,
  "surface_anisotropy": null,
  "shape_factor": null,
  "has_reconstructed": null,
  "possible_species": null,
  "has_props": null,
  "theoretical": null,
  "database_IDs": null,
  "fields_not_requested": [
    "builder_meta",
    "nsites",
    "elements",
    "nelements",
    "composition",
    "composition_reduced",
    "chemsys",
    "symmetry",
    "property_name",
    "deprecated",
    "deprecation_reasons",
    "last_updated",
    "origins",
    "warnings",
    "task_ids",
    "uncorrected_energy_per_atom",
    "equilibrium_reaction_energy_per_atom",
    "decomposes_to",
    "xas",
    "grain_boundaries",
    "cbm",
    "vbm",
    "is_gap_direct",
    "is_metal",
    "es_source_calc_id",
    "bandstructure",
    "dos",
    "dos_energy_up",
    "dos_energy_down",
    "is_magnetic",
    "ordering",
    "total_magnetization_normalized_vol",
    "total_magnetization_normalized_formula_units",
    "num_magnetic_sites",
    "num_unique_magnetic_sites",
    "types_of_magnetic_species",
    "bulk_modulus",
    "shear_modulus",
    "universal_anisotropy",
    "homogeneous_poisson",
    "e_total",
    "e_ionic",
    "e_electronic",
    "n",
    "e_ij_max",
    "weighted_surface_energy_EV_PER_ANG2",
    "weighted_surface_energy",
    "weighted_work_function",
    "surface_anisotropy",
    "shape_factor",
    "has_reconstructed",
    "possible_species",
    "has_props",
    "theoretical",
    "database_IDs"
  ]
}
