{"builder_meta": null, "nsites": null, "elements": null, "nelements": null, "composition": null, "composition_reduced": null, "formula_pretty": "Zr2Sn", "formula_anonymous": "AB2", "chemsys": null, "volume": 136.0090698597611, "density": 7.353695231277735, "density_atomic": 22.668178309960183, "symmetry": null, "property_name": null, "material_id": "mp-1094272", "deprecated": null, "deprecation_reasons": null, "last_updated": null, "origins": null, "warnings": null, "structure": {"@module": "pymatgen.core.structure", "@class": "Structure", "charge": 0, "lattice": {"matrix": [[2.644042, -4.879742, 0.0], [2.644042, 4.879742, 0.0], [0.0, 0.0, 5.270753]], "pbc": [true, true, true], "a": 5.5500306381431805, "b": 5.5500306381431805, "c": 5.270753, "alpha": 90.0, "beta": 90.0, "gamma": 123.09873995591103, "volume": 136.0090698597611}, "properties": {}, "sites": [{"species": [{"element": "Zr", "occu": 1}], "abc": [0.90563, 0.579137999999999, 0.75], "properties": {"magmom": -0.0}, "label": "Zr", "xyz": [3.9257889522559974, -1.5931967250640056, 3.9530647500000002]}, {"species": [{"element": "Zr", "occu": 1}], "abc": [0.579137999999999, 0.90563, 0.75], "properties": {"magmom": -0.0}, "label": "Zr", "xyz": [3.9257889522559974, 1.5931967250640056, 3.9530647500000002]}, {"species": [{"element": "Zr", "occu": 1}], "abc": [0.420861999999999, 0.09437000000000001, 0.25], "properties": {"magmom": -0.0}, "label": "Zr", "xyz": [1.3622950477439975, -1.5931967250639951, 1.31768825]}, {"species": [{"element": "Zr", "occu": 1}], "abc": [0.09437000000000001, 0.420861999999999, 0.25], "properties": {"magmom": -0.0}, "label": "Zr", "xyz": [1.3622950477439975, 1.5931967250639951, 1.31768825]}, {"species": [{"element": "Sn", "occu": 1}], "abc": [0.239452, 0.239452, 0.75], "properties": {"magmom": 0.0}, "label": "Sn", "xyz": [1.266242289968, 0.0, 3.9530647500000002]}, {"species": [{"element": "Sn", "occu": 1}], "abc": [0.760548, 0.760548, 0.25], "properties": {"magmom": 0.0}, "label": "Sn", "xyz": [4.021841710032, 0.0, 1.31768825]}]}, "task_ids": null, "uncorrected_energy_per_atom": null, "energy_per_atom": -23.899559286666662, "formation_energy_per_atom": -0.48430342333332904, "energy_above_hull": 0.08494292833333701, "is_stable": false, "equilibrium_reaction_energy_per_atom": null, "decomposes_to": null, "xas": null, "grain_boundaries": null, "band_gap": 0.0, "cbm": null, "vbm": null, "efermi": 6.16316482, "is_gap_direct": null, "is_metal": null, "es_source_calc_id": null, "bandstructure": null, "dos": null, "dos_energy_up": null, "dos_energy_down": null, "is_magnetic": null, "ordering": null, "total_magnetization": 0.00044239999999900006, "total_magnetization_normalized_vol": null, "total_magnetization_normalized_formula_units": null, "num_magnetic_sites": null, "num_unique_magnetic_sites": null, "types_of_magnetic_species": null, "bulk_modulus": null, "shear_modulus": null, "universal_anisotropy": null, "homogeneous_poisson": null, "e_total": null, "e_ionic": null, "e_electronic": null, "n": null, "e_ij_max": null, "weighted_surface_energy_EV_PER_ANG2": null, "weighted_surface_energy": null, "weighted_work_function": null, "surface_anisotropy": null, "shape_factor": null, "has_reconstructed": null, "possible_species": null, "has_props": null, "theoretical": null, "database_IDs": null, "fields_not_requested": ["builder_meta", "nsites", "elements", "nelements", "composition", "composition_reduced", "chemsys", "symmetry", "property_name", "deprecated", "deprecation_reasons", "last_updated", "origins", "warnings", "task_ids", "uncorrected_energy_per_atom", "equilibrium_reaction_energy_per_atom", "decomposes_to", "xas", "grain_boundaries", "cbm", "vbm", "is_gap_direct", "is_metal", "es_source_calc_id", "bandstructure", "dos", "dos_energy_up", "dos_energy_down", "is_magnetic", "ordering", "total_magnetization_normalized_vol", "total_magnetization_normalized_formula_units", "num_magnetic_sites", "num_unique_magnetic_sites", "types_of_magnetic_species", "bulk_modulus", "shear_modulus", "universal_anisotropy", "homogeneous_poisson", "e_total", "e_ionic", "e_electronic", "n", "e_ij_max", "weighted_surface_energy_EV_PER_ANG2", "weighted_surface_energy", "weighted_work_function", "surface_anisotropy", "shape_factor", "has_reconstructed", "possible_species", "has_props", "theoretical", "database_IDs"]}