{"builder_meta": null, "nsites": null, "elements": null, "nelements": null, "composition": null, "composition_reduced": null, "formula_pretty": "Zr2Se3", "formula_anonymous": "A2B3", "chemsys": null, "volume": 232.6585046326569, "density": 5.985687278602991, "density_atomic": 23.26585046326569, "symmetry": null, "property_name": null, "material_id": "mp-1215598", "deprecated": null, "deprecation_reasons": null, "last_updated": null, "origins": null, "warnings": null, "structure": {"@module": "pymatgen.core.structure", "@class": "Structure", "charge": 0, "lattice": {"matrix": [[5.65750439, 3.26785945, -0.00282103], [0.00129761, 6.53347202, 0.002820999999999], [-1.88962378, 1.09097333, 6.29694414]], "pbc": [true, true, true], "a": 6.533472986554228, "b": 6.533472757879656, "c": 6.664263375572211, "alpha": 80.55756175306578, "beta": 99.44245896658298, "gamma": 59.97726396286748, "volume": 232.65850463265693}, "properties": {}, "sites": [{"species": [{"element": "Zr", "occu": 1}], "abc": [0.8263652100000001, 0.8263652100000001, 0.5], "properties": {"magmom": 0.0}, "label": "Zr", "xyz": [3.73142521307842, 8.644966003486159, 3.1484720452090427]}, {"species": [{"element": "Zr", "occu": 1}], "abc": [0.5, 0.5, 0.5], "properties": {"magmom": 0.0}, "label": "Zr", "xyz": [1.8845891099999998, 5.4461524, 3.1484720549999996]}, {"species": [{"element": "Zr", "occu": 1}], "abc": [0.17363479, 0.17363479, 0.5], "properties": {"magmom": 0.0}, "label": "Zr", "xyz": [0.03775300692158012, 2.247338796513841, 3.148472064790956]}, {"species": [{"element": "Zr", "occu": 1}], "abc": [0.0, -0.0, 0.0], "properties": {"magmom": 0.0}, "label": "Zr", "xyz": [0.0, 0.0, 0.0]}, {"species": [{"element": "Se", "occu": 1}], "abc": [0.74485174, 0.25514826, 0.24832079], "properties": {"magmom": 0.0}, "label": "Se", "xyz": [3.74510020203041, 4.371986174244159, 1.562280667568038]}, {"species": [{"element": "Se", "occu": 1}], "abc": [0.41870933, 0.92130168, 0.23611935], "properties": {"magmom": 0.0}, "label": "Se", "xyz": [1.9238686242038003, 7.645181902649598, 1.4882481577811781]}, {"species": [{"element": "Se", "occu": 1}], "abc": [0.07869832, 0.58129067, 0.23611935], "properties": {"magmom": 0.0}, "label": "Se", "xyz": [-0.00018635920621951074, 4.312621290190113, 1.4882481679815087]}, {"species": [{"element": "Se", "occu": 1}], "abc": [0.92130168, 0.41870933, 0.76388065], "properties": {"magmom": 0.0}, "label": "Se", "xyz": [3.7693645792062194, 6.579683509809887, 4.808695942018491]}, {"species": [{"element": "Se", "occu": 1}], "abc": [0.58129067, 0.07869832, 0.76388065], "properties": {"magmom": 0.0}, "label": "Se", "xyz": [1.8453095957961994, 3.2471228973504025, 4.808695952218821]}, {"species": [{"element": "Se", "occu": 1}], "abc": [0.25514826, 0.74485174, 0.75167921], "properties": {"magmom": 0.0}, "label": "Se", "xyz": [0.024078017969589194, 6.520318625755841, 4.734663442431962]}]}, "task_ids": null, "uncorrected_energy_per_atom": null, "energy_per_atom": -19.269502207, "formation_energy_per_atom": -1.5826493064375, "energy_above_hull": 0.0, "is_stable": true, "equilibrium_reaction_energy_per_atom": null, "decomposes_to": null, "xas": null, "grain_boundaries": null, "band_gap": 0.0, "cbm": null, "vbm": null, "efermi": 4.6838452, "is_gap_direct": null, "is_metal": null, "es_source_calc_id": null, "bandstructure": null, "dos": null, "dos_energy_up": null, "dos_energy_down": null, "is_magnetic": null, "ordering": null, "total_magnetization": 2e-07, "total_magnetization_normalized_vol": null, "total_magnetization_normalized_formula_units": null, "num_magnetic_sites": null, "num_unique_magnetic_sites": null, "types_of_magnetic_species": null, "bulk_modulus": null, "shear_modulus": null, "universal_anisotropy": null, "homogeneous_poisson": null, "e_total": null, "e_ionic": null, "e_electronic": null, "n": null, "e_ij_max": null, "weighted_surface_energy_EV_PER_ANG2": null, "weighted_surface_energy": null, "weighted_work_function": null, "surface_anisotropy": null, "shape_factor": null, "has_reconstructed": null, "possible_species": null, "has_props": null, "theoretical": null, "database_IDs": null, "fields_not_requested": ["builder_meta", "nsites", "elements", "nelements", "composition", "composition_reduced", "chemsys", "symmetry", "property_name", "deprecated", "deprecation_reasons", "last_updated", "origins", "warnings", "task_ids", "uncorrected_energy_per_atom", "equilibrium_reaction_energy_per_atom", "decomposes_to", "xas", "grain_boundaries", "cbm", "vbm", "is_gap_direct", "is_metal", "es_source_calc_id", "bandstructure", "dos", "dos_energy_up", "dos_energy_down", "is_magnetic", "ordering", "total_magnetization_normalized_vol", "total_magnetization_normalized_formula_units", "num_magnetic_sites", "num_unique_magnetic_sites", "types_of_magnetic_species", "bulk_modulus", "shear_modulus", "universal_anisotropy", "homogeneous_poisson", "e_total", "e_ionic", "e_electronic", "n", "e_ij_max", "weighted_surface_energy_EV_PER_ANG2", "weighted_surface_energy", "weighted_work_function", "surface_anisotropy", "shape_factor", "has_reconstructed", "possible_species", "has_props", "theoretical", "database_IDs"]}