{
  "builder_meta": null,
  "nsites": null,
  "elements": null,
  "nelements": null,
  "composition": null,
  "composition_reduced": null,
  "formula_pretty": "Zr2Sb",
  "formula_anonymous": "AB2",
  "chemsys": null,
  "volume": 136.38552488421394,
  "density": 7.407666888419502,
  "density_atomic": 22.730920814035656,
  "symmetry": null,
  "property_name": null,
  "material_id": "mp-31379",
  "deprecated": null,
  "deprecation_reasons": null,
  "last_updated": null,
  "origins": null,
  "warnings": null,
  "structure": {
    "@module": "pymatgen.core.structure",
    "@class": "Structure",
    "charge": 0,
    "lattice": {
      "matrix": [
        [4.00648582, -2e-8, -1.01147158],
        [-0.25535651, 3.99833892, -1.01147157],
        [0.01625833, 0.01733, 8.50506379]
      ],
      "pbc": [true, true, true],
      "a": 4.13219111162695,
      "b": 4.132190194473678,
      "c": 8.505096985582442,
      "alpha": 104.05918983097357,
      "beta": 104.05918809143785,
      "gamma": 90.00002539903842,
      "volume": 136.38552488421396
    },
    "properties": {},
    "sites": [
      {
        "species": [{ "element": "Zr", "occu": 1 }],
        "abc": [0.5, -0.0, 0.0],
        "properties": { "magmom": 0.0 },
        "label": "Zr",
        "xyz": [2.00324291, -1e-8, -0.50573579]
      },
      {
        "species": [{ "element": "Zr", "occu": 1 }],
        "abc": [-0.0, 0.5, 0.0],
        "properties": { "magmom": 0.0 },
        "label": "Zr",
        "xyz": [-0.127678255, 1.99916946, -0.505735785]
      },
      {
        "species": [{ "element": "Zr", "occu": 1 }],
        "abc": [0.32241535, 0.32241535, 0.6448307],
        "properties": { "magmom": 0.0 },
        "label": "Zr",
        "xyz": [1.2199055396936396, 1.300300751893115, 4.832098313513]
      },
      {
        "species": [{ "element": "Zr", "occu": 1 }],
        "abc": [0.67758465, 0.67758465, 0.355169299999999],
        "properties": { "magmom": 0.0 },
        "label": "Zr",
        "xyz": [2.5474821003063606, 2.7153681481068848, 1.650022326486991]
      },
      {
        "species": [{ "element": "Sb", "occu": 1 }],
        "abc": [0.13834435, 0.13834435, 0.2766887],
        "properties": { "magmom": -0.0 },
        "label": "Sb",
        "xyz": [0.5234460423497695, 0.557942611371215, 2.0733922882984706]
      },
      {
        "species": [{ "element": "Sb", "occu": 1 }],
        "abc": [0.86165565, 0.86165565, 0.7233113],
        "properties": { "magmom": -0.0 },
        "label": "Sb",
        "xyz": [3.2439415976502306, 3.457726288628785, 4.408728351701528]
      }
    ]
  },
  "task_ids": null,
  "uncorrected_energy_per_atom": null,
  "energy_per_atom": -24.476661401666664,
  "formation_energy_per_atom": -0.741361555000002,
  "energy_above_hull": 0.0,
  "is_stable": true,
  "equilibrium_reaction_energy_per_atom": null,
  "decomposes_to": null,
  "xas": null,
  "grain_boundaries": null,
  "band_gap": 0.0,
  "cbm": null,
  "vbm": null,
  "efermi": 6.5724604,
  "is_gap_direct": null,
  "is_metal": null,
  "es_source_calc_id": null,
  "bandstructure": null,
  "dos": null,
  "dos_energy_up": null,
  "dos_energy_down": null,
  "is_magnetic": null,
  "ordering": null,
  "total_magnetization": 2.9100000000000003e-5,
  "total_magnetization_normalized_vol": null,
  "total_magnetization_normalized_formula_units": null,
  "num_magnetic_sites": null,
  "num_unique_magnetic_sites": null,
  "types_of_magnetic_species": null,
  "bulk_modulus": null,
  "shear_modulus": null,
  "universal_anisotropy": null,
  "homogeneous_poisson": null,
  "e_total": null,
  "e_ionic": null,
  "e_electronic": null,
  "n": null,
  "e_ij_max": null,
  "weighted_surface_energy_EV_PER_ANG2": null,
  "weighted_surface_energy": null,
  "weighted_work_function": null,
  "surface_anisotropy": null,
  "shape_factor": null,
  "has_reconstructed": null,
  "possible_species": null,
  "has_props": null,
  "theoretical": null,
  "database_IDs": null,
  "fields_not_requested": [
    "builder_meta",
    "nsites",
    "elements",
    "nelements",
    "composition",
    "composition_reduced",
    "chemsys",
    "symmetry",
    "property_name",
    "deprecated",
    "deprecation_reasons",
    "last_updated",
    "origins",
    "warnings",
    "task_ids",
    "uncorrected_energy_per_atom",
    "equilibrium_reaction_energy_per_atom",
    "decomposes_to",
    "xas",
    "grain_boundaries",
    "cbm",
    "vbm",
    "is_gap_direct",
    "is_metal",
    "es_source_calc_id",
    "bandstructure",
    "dos",
    "dos_energy_up",
    "dos_energy_down",
    "is_magnetic",
    "ordering",
    "total_magnetization_normalized_vol",
    "total_magnetization_normalized_formula_units",
    "num_magnetic_sites",
    "num_unique_magnetic_sites",
    "types_of_magnetic_species",
    "bulk_modulus",
    "shear_modulus",
    "universal_anisotropy",
    "homogeneous_poisson",
    "e_total",
    "e_ionic",
    "e_electronic",
    "n",
    "e_ij_max",
    "weighted_surface_energy_EV_PER_ANG2",
    "weighted_surface_energy",
    "weighted_work_function",
    "surface_anisotropy",
    "shape_factor",
    "has_reconstructed",
    "possible_species",
    "has_props",
    "theoretical",
    "database_IDs"
  ]
}
