{"builder_meta": null, "nsites": null, "elements": null, "nelements": null, "composition": null, "composition_reduced": null, "formula_pretty": "Zr2S", "formula_anonymous": "AB2", "chemsys": null, "volume": 672.3518479138387, "density": 6.357514469225585, "density_atomic": 18.67644021982885, "symmetry": null, "property_name": null, "material_id": "mp-1197374", "deprecated": null, "deprecation_reasons": null, "last_updated": null, "origins": null, "warnings": null, "structure": {"@module": "pymatgen.core.structure", "@class": "Structure", "charge": 0, "lattice": {"matrix": [[3.7e-07, -1.6e-07, -3.5363827], [9.621000000000003e-05, -12.374798, -5.5e-07], [-15.36382059, 0.00011401, 6.1e-07]], "pbc": [true, true, true], "a": 3.536382700000023, "b": 12.374798000374012, "c": 15.363820590423027, "alpha": 90.00087062957292, "beta": 90.00000826953921, "gamma": 89.99999486114409, "volume": 672.3518479138387}, "properties": {}, "sites": [{"species": [{"element": "Zr", "occu": 1}], "abc": [0.49999989, 0.65588969, 0.47510412], "properties": {"magmom": 0.0}, "label": "Zr", "xyz": [-7.299351173102797, -8.11644833741188, -1.7681910319237193]}, {"species": [{"element": "Zr", "occu": 1}], "abc": [0.50000005, 0.34411813, 0.5249559], "properties": {"magmom": 0.0}, "label": "Zr", "xyz": [-8.065294972656675, -4.25833257666559, -1.7681913958610076]}, {"species": [{"element": "Zr", "occu": 1}], "abc": [2.1e-07, 0.84412862, 0.97504922], "properties": {"magmom": -0.0}, "label": "Zr", "xyz": [-14.980400068884832, -10.445809993157221, -6.121310837999999e-07]}, {"species": [{"element": "Zr", "occu": 1}], "abc": [0.99999948, 0.15588869, 0.02490732], "properties": {"magmom": -0.0}, "label": "Zr", "xyz": [-0.38265622780704633, -1.9290883695509837, -3.5363809316263106]}, {"species": [{"element": "Zr", "occu": 1}], "abc": [0.49999996, 0.57422538, 0.25109289], "properties": {"magmom": 0.0}, "label": "Zr", "xyz": [-3.8576906821608103, -7.105894536872845, -1.768191371201988]}, {"species": [{"element": "Zr", "occu": 1}], "abc": [0.49999998, 0.42575148, 0.74893362], "properties": {"magmom": 0.0}, "label": "Zr", "xyz": [-11.506440624949352, -5.26850325727902, -1.7681910565861518]}, {"species": [{"element": "Zr", "occu": 1}], "abc": [0.99999979, 0.9257584, 0.7510415300000001], "properties": {"magmom": 0.0}, "label": "Zr", "xyz": [-11.538777885343517, -11.45598773055833, -3.5363820083914197]}, {"species": [{"element": "Zr", "occu": 1}], "abc": [0.99999996, 0.07422871, 0.24893983], "properties": {"magmom": -0.0}, "label": "Zr", "xyz": [-3.8246593742809254, -0.9185370704205553, -3.536382447517186]}, {"species": [{"element": "Zr", "occu": 1}], "abc": [0.4999999, 0.08579166, 0.41843311], "properties": {"magmom": -0.0}, "label": "Zr", "xyz": [-6.428722791940163, -1.061606837025793, -1.7681907883029457]}, {"species": [{"element": "Zr", "occu": 1}], "abc": [0.49999945, 0.91419897, 0.5816053800000001], "properties": {"magmom": -0.0}, "label": "Zr", "xyz": [-8.935592572416073, -11.3129613567286, -1.7681895530196667]}, {"species": [{"element": "Zr", "occu": 1}], "abc": [1.00000009, 0.414190599999999, 0.9183633800000001], "properties": {"magmom": 0.0}, "label": "Zr", "xyz": [-14.109529987468335, -5.125420465889849, -3.536382685877611]}, {"species": [{"element": "Zr", "occu": 1}], "abc": [1.00000003, 0.58579077, 0.081567], "properties": {"magmom": -0.0}, "label": "Zr", "xyz": [-1.253124025134537, -7.249033309560795, -3.5363830785205344]}, {"species": [{"element": "Zr", "occu": 1}], "abc": [0.49999992, 0.96610418, 0.10975255], "properties": {"magmom": 0.0}, "label": "Zr", "xyz": [-1.6861253536118763, -11.955331641567401, -1.7681915314976275]}, {"species": [{"element": "Zr", "occu": 1}], "abc": [0.49999993000000004, 0.03393027, 0.89021808], "properties": {"magmom": 0.0}, "label": "Zr", "xyz": [-13.677147417663017, -0.41977882357214796, -1.7681905780818308]}, {"species": [{"element": "Zr", "occu": 1}], "abc": [1.00000004, 0.53391049, 0.60977578], "properties": {"magmom": -0.0}, "label": "Zr", "xyz": [-9.368433946519051, -6.606965103294349, -3.5363827631428513]}, {"species": [{"element": "Zr", "occu": 1}], "abc": [0.9999999700000001, 0.46608835, 0.39027833], "properties": {"magmom": -0.0}, "label": "Zr", "xyz": [-5.996121029924673, -5.767704845770892, -3.5363826121873303]}, {"species": [{"element": "Zr", "occu": 1}], "abc": [0.50000011, 0.29727859, 0.29577648], "properties": {"magmom": 0.0}, "label": "Zr", "xyz": [-4.544227987288538, -3.678728859498353, -1.7681917220816685]}, {"species": [{"element": "Zr", "occu": 1}], "abc": [0.49999991, 0.702711, 0.7042314], "properties": {"magmom": 0.0}, "label": "Zr", "xyz": [-10.819617090619248, -8.69582646795607, -1.768190988635453]}, {"species": [{"element": "Zr", "occu": 1}], "abc": [-1.3e-07, 0.20274434, 0.79574196], "properties": {"magmom": 0.0}, "label": "Zr", "xyz": [-12.225617203342052, -2.5088295306024393, 8.336229595999999e-07]}, {"species": [{"element": "Zr", "occu": 1}], "abc": [1.8e-07, 0.79730058, 0.20425003], "properties": {"magmom": -0.0}, "label": "Zr", "xyz": [-3.1379841081332494, -9.86641033623695, -9.504716866999999e-07]}, {"species": [{"element": "Zr", "occu": 1}], "abc": [0.49999997, 0.37377836000000003, 0.08086737000000001], "properties": {"magmom": 0.0}, "label": "Zr", "xyz": [-1.2423956180491438, -4.625422562082422, -1.7681914001575214]}, {"species": [{"element": "Zr", "occu": 1}], "abc": [0.50000006, 0.62618605, 0.91905209], "properties": {"magmom": -0.0}, "label": "Zr", "xyz": [-14.12009099326464, -7.74882117803913, -1.7681913459635143]}, {"species": [{"element": "Zr", "occu": 1}], "abc": [0.99999974, 0.12620798, 0.58092223], "properties": {"magmom": -0.0}, "label": "Zr", "xyz": [-8.925172405993056, -1.561732187544556, -3.5363814955923267]}, {"species": [{"element": "Zr", "occu": 1}], "abc": [-1e-07, 0.87379152, 0.41913538], "properties": {"magmom": -0.0}, "label": "Zr", "xyz": [-6.439436713759372, -10.812945768488271, 1.287255157999999e-07]}, {"species": [{"element": "S", "occu": 1}], "abc": [0.50000006, 0.92186779, 0.29079926], "properties": {"magmom": 0.0}, "label": "S", "xyz": [-4.467698780444665, -11.407894609932796, -1.7681918918226978]}, {"species": [{"element": "S", "occu": 1}], "abc": [0.49999994000000003, 0.0781408, 0.7092200000000001], "properties": {"magmom": 0.0}, "label": "S", "xyz": [-10.896321135913455, -0.9668958373861903, -1.768190748170278]}, {"species": [{"element": "S", "occu": 1}], "abc": [0.9999999900000001, 0.57810539, 0.7907571], "properties": {"magmom": -0.0}, "label": "S", "xyz": [-12.14899422514912, -7.153847429744248, -3.5363825002323064]}, {"species": [{"element": "S", "occu": 1}], "abc": [5e-08, 0.421862199999999, 0.20922179999999901], "properties": {"magmom": -0.0}, "label": "S", "xyz": [-3.2144056113545663, -5.220435655458178, -2.812180470000001e-07]}, {"species": [{"element": "S", "occu": 1}], "abc": [0.50000013, 0.74665493, 0.07887823000000001], "properties": {"magmom": 0.0}, "label": "S", "xyz": [-1.2117989535058924, -9.23969502154716, -1.768192172274242]}, {"species": [{"element": "S", "occu": 1}], "abc": [0.49999983000000003, 0.2533653, 0.9210820999999991], "properties": {"magmom": 0.0}, "label": "S", "xyz": [-14.151315571784975, -3.1352394751391524, -1.7681903263057752]}, {"species": [{"element": "S", "occu": 1}], "abc": [-2e-07, 0.75335853, 0.57889419], "properties": {"magmom": 0.0}, "label": "S", "xyz": [-8.893953995129273, -9.322593630600306, 6.460548043999999e-07]}, {"species": [{"element": "S", "occu": 1}], "abc": [0.9999999900000001, 0.24664624000000002, 0.42114046], "properties": {"magmom": 0.0}, "label": "S", "xyz": [-6.470302370795324, -3.0521495432356742, -3.5363825433959244]}, {"species": [{"element": "S", "occu": 1}], "abc": [0.4999998, 0.18011961, 0.15176454], "properties": {"magmom": 0.0}, "label": "S", "xyz": [-2.3316656501762743, -2.2289265669135427, -1.768190649212876]}, {"species": [{"element": "S", "occu": 1}], "abc": [0.50000005, 0.81988408, 0.84820921], "properties": {"magmom": 0.0}, "label": "S", "xyz": [-13.031655059178279, -10.145803249083817, -1.7681914603477609]}, {"species": [{"element": "S", "occu": 1}], "abc": [3.0000000000000004e-08, 0.31987924, 0.65177878], "properties": {"magmom": 0.0}, "label": "S", "xyz": [-10.013781464707389, -3.9583666700948172, 1.1555999279999994e-07]}, {"species": [{"element": "S", "occu": 1}], "abc": [-4e-08, 0.68012407, 0.34825735], "properties": {"magmom": 0.0}, "label": "S", "xyz": [-5.350498009812077, -8.41635827636738, -2.0175946999999975e-08]}]}, "task_ids": null, "uncorrected_energy_per_atom": null, "energy_per_atom": -8.341883466666664, "formation_energy_per_atom": -1.26396319083333, "energy_above_hull": 0.0, "is_stable": true, "equilibrium_reaction_energy_per_atom": null, "decomposes_to": null, "xas": null, "grain_boundaries": null, "band_gap": 0.0, "cbm": null, "vbm": null, "efermi": 6.40499291, "is_gap_direct": null, "is_metal": null, "es_source_calc_id": null, "bandstructure": null, "dos": null, "dos_energy_up": null, "dos_energy_down": null, "is_magnetic": null, "ordering": null, "total_magnetization": 2e-07, "total_magnetization_normalized_vol": null, "total_magnetization_normalized_formula_units": null, "num_magnetic_sites": null, "num_unique_magnetic_sites": null, "types_of_magnetic_species": null, "bulk_modulus": null, "shear_modulus": null, "universal_anisotropy": null, "homogeneous_poisson": null, "e_total": null, "e_ionic": null, "e_electronic": null, "n": null, "e_ij_max": null, "weighted_surface_energy_EV_PER_ANG2": null, "weighted_surface_energy": null, "weighted_work_function": null, "surface_anisotropy": null, "shape_factor": null, "has_reconstructed": null, "possible_species": null, "has_props": null, "theoretical": null, "database_IDs": null, "fields_not_requested": ["builder_meta", "nsites", "elements", "nelements", "composition", "composition_reduced", "chemsys", "symmetry", "property_name", "deprecated", "deprecation_reasons", "last_updated", "origins", "warnings", "task_ids", "uncorrected_energy_per_atom", "equilibrium_reaction_energy_per_atom", "decomposes_to", "xas", "grain_boundaries", "cbm", "vbm", "is_gap_direct", "is_metal", "es_source_calc_id", "bandstructure", "dos", "dos_energy_up", "dos_energy_down", "is_magnetic", "ordering", "total_magnetization_normalized_vol", "total_magnetization_normalized_formula_units", "num_magnetic_sites", "num_unique_magnetic_sites", "types_of_magnetic_species", "bulk_modulus", "shear_modulus", "universal_anisotropy", "homogeneous_poisson", "e_total", "e_ionic", "e_electronic", "n", "e_ij_max", "weighted_surface_energy_EV_PER_ANG2", "weighted_surface_energy", "weighted_work_function", "surface_anisotropy", "shape_factor", "has_reconstructed", "possible_species", "has_props", "theoretical", "database_IDs"]}