{"builder_meta": null, "nsites": null, "elements": null, "nelements": null, "composition": null, "composition_reduced": null, "formula_pretty": "Zr2Te3", "formula_anonymous": "A2B3", "chemsys": null, "volume": 289.2310295089149, "density": 6.490426617857651, "density_atomic": 28.92310295089149, "symmetry": null, "property_name": null, "material_id": "mp-1215634", "deprecated": null, "deprecation_reasons": null, "last_updated": null, "origins": null, "warnings": null, "structure": {"@module": "pymatgen.core.structure", "@class": "Structure", "charge": 0, "lattice": {"matrix": [[6.08840693, 3.51360757, -1.4330000000000002e-05], [-2.03001066, 3.51474168, -6.75386175], [-0.002364299999999, 7.03127985, 0.00163582]], "pbc": [true, true, true], "a": 7.0295189808007965, "b": 7.8796574097454215, "c": 7.031280437789235, "alpha": 63.51651856389556, "beta": 60.03010778779086, "gamma": 90.010355627918, "volume": 289.2310295089149}, "properties": {}, "sites": [{"species": [{"element": "Zr", "occu": 1}], "abc": [0.66666812, 1.609999999999999e-06, 0.6666608900000001], "properties": {"magmom": 0.0}, "label": "Zr", "xyz": [4.057367347158682, 7.029895094483839, 0.0010701101455027002]}, {"species": [{"element": "Zr", "occu": 1}], "abc": [0.32716959, 0.98196159, 0.34537305], "properties": {"magmom": 0.0}, "label": "Zr", "xyz": [-0.0022674618714053985, 7.029301443827911, -6.631472542867757]}, {"species": [{"element": "Zr", "occu": 1}], "abc": [0.00616198, 0.018043570000000002, 0.98796469], "properties": {"magmom": 0.0}, "label": "Zr", "xyz": [-0.0014478426265008121, 7.031725484417683, -0.12024773315842513]}, {"species": [{"element": "Zr", "occu": 1}], "abc": [0.16666685, 0.50000073, 0.66666567], "properties": {"magmom": 0.0}, "label": "Zr", "xyz": [-0.0018474050100915392, 7.030488203747231, -3.375847648618739]}, {"species": [{"element": "Te", "occu": 1}], "abc": [0.74075923, 0.26171079, 0.16991768000000002], "properties": {"magmom": -0.0}, "label": "Te", "xyz": [3.9783661994856176, 4.7173218193368465, -1.7672911544837508]}, {"species": [{"element": "Te", "occu": 1}], "abc": [0.08920826, 0.26182323, 0.47900693], "properties": {"magmom": 0.0}, "label": "Te", "xyz": [0.010499724377011412, 4.6017156118351155, -1.7675356075965858]}, {"species": [{"element": "Te", "occu": 1}], "abc": [0.43188791, 0.26184446, 0.82743931], "properties": {"magmom": -0.0}, "label": "Te", "xyz": [2.0960059844046404, 8.255757614707475, -1.7671139300250713]}, {"species": [{"element": "Te", "occu": 1}], "abc": [0.9014409600000001, 0.73814806, 0.50590545], "properties": {"magmom": -0.0}, "label": "Te", "xyz": [3.9886948451360986, 9.318872330047391, -4.984535295666443]}, {"species": [{"element": "Te", "occu": 1}], "abc": [0.24411784, 0.73817139, 0.85433971], "properties": {"magmom": 0.0}, "label": "Te", "xyz": [-0.014226957190738401, 9.459317629990426, -4.984113468089568]}, {"species": [{"element": "Te", "occu": 1}], "abc": [0.59258627, 0.73829356, 0.16339361], "properties": {"magmom": -0.0}, "label": "Te", "xyz": [2.1087762443693783, 5.825892949169402, -4.986073844381469]}]}, "task_ids": null, "uncorrected_energy_per_atom": null, "energy_per_atom": -25.424286543, "formation_energy_per_atom": -1.074035194999999, "energy_above_hull": 0.0, "is_stable": true, "equilibrium_reaction_energy_per_atom": null, "decomposes_to": null, "xas": null, "grain_boundaries": null, "band_gap": 0.0, "cbm": null, "vbm": null, "efermi": 6.02502618, "is_gap_direct": null, "is_metal": null, "es_source_calc_id": null, "bandstructure": null, "dos": null, "dos_energy_up": null, "dos_energy_down": null, "is_magnetic": null, "ordering": null, "total_magnetization": 2e-07, "total_magnetization_normalized_vol": null, "total_magnetization_normalized_formula_units": null, "num_magnetic_sites": null, "num_unique_magnetic_sites": null, "types_of_magnetic_species": null, "bulk_modulus": null, "shear_modulus": null, "universal_anisotropy": null, "homogeneous_poisson": null, "e_total": null, "e_ionic": null, "e_electronic": null, "n": null, "e_ij_max": null, "weighted_surface_energy_EV_PER_ANG2": null, "weighted_surface_energy": null, "weighted_work_function": null, "surface_anisotropy": null, "shape_factor": null, "has_reconstructed": null, "possible_species": null, "has_props": null, "theoretical": null, "database_IDs": null, "fields_not_requested": ["builder_meta", "nsites", "elements", "nelements", "composition", "composition_reduced", "chemsys", "symmetry", "property_name", "deprecated", "deprecation_reasons", "last_updated", "origins", "warnings", "task_ids", "uncorrected_energy_per_atom", "equilibrium_reaction_energy_per_atom", "decomposes_to", "xas", "grain_boundaries", "cbm", "vbm", "is_gap_direct", "is_metal", "es_source_calc_id", "bandstructure", "dos", "dos_energy_up", "dos_energy_down", "is_magnetic", "ordering", "total_magnetization_normalized_vol", "total_magnetization_normalized_formula_units", "num_magnetic_sites", "num_unique_magnetic_sites", "types_of_magnetic_species", "bulk_modulus", "shear_modulus", "universal_anisotropy", "homogeneous_poisson", "e_total", "e_ionic", "e_electronic", "n", "e_ij_max", "weighted_surface_energy_EV_PER_ANG2", "weighted_surface_energy", "weighted_work_function", "surface_anisotropy", "shape_factor", "has_reconstructed", "possible_species", "has_props", "theoretical", "database_IDs"]}