{"builder_meta": null, "nsites": null, "elements": null, "nelements": null, "composition": null, "composition_reduced": null, "formula_pretty": "Zr3Au", "formula_anonymous": "AB3", "chemsys": null, "volume": 167.10545833460253, "density": 9.353539230398576, "density_atomic": 20.888182291825316, "symmetry": null, "property_name": null, "material_id": "mp-11263", "deprecated": null, "deprecation_reasons": null, "last_updated": null, "origins": null, "warnings": null, "structure": {"@module": "pymatgen.core.structure", "@class": "Structure", "charge": 0, "lattice": {"matrix": [[5.5080588200000005, 0.0, 0.0], [0.0, 5.5080588200000005, 0.0], [0.0, 0.0, 5.50799449]], "pbc": [true, true, true], "a": 5.5080588200000005, "b": 5.5080588200000005, "c": 5.50799449, "alpha": 90.0, "beta": 90.0, "gamma": 90.0, "volume": 167.1054583346026}, "properties": {}, "sites": [{"species": [{"element": "Zr", "occu": 1}], "abc": [0.5, 0.25002609, 0.0], "properties": {"magmom": 0.0}, "label": "Zr", "xyz": [2.7540294100000002, 1.3771584102546137, 0.0]}, {"species": [{"element": "Zr", "occu": 1}], "abc": [0.5, 0.74997391, 0.0], "properties": {"magmom": 0.0}, "label": "Zr", "xyz": [2.7540294100000002, 4.1309004097453865, 0.0]}, {"species": [{"element": "Zr", "occu": 1}], "abc": [0.24997391, -0.0, 0.5], "properties": {"magmom": 0.0}, "label": "Zr", "xyz": [1.3768709997453863, 0.0, 2.753997245]}, {"species": [{"element": "Zr", "occu": 1}], "abc": [0.75002609, -0.0, 0.5], "properties": {"magmom": 0.0}, "label": "Zr", "xyz": [4.131187820254614, 0.0, 2.753997245]}, {"species": [{"element": "Zr", "occu": 1}], "abc": [-0.0, 0.5, 0.25], "properties": {"magmom": 0.0}, "label": "Zr", "xyz": [0.0, 2.7540294100000002, 1.3769986225]}, {"species": [{"element": "Zr", "occu": 1}], "abc": [-0.0, 0.5, 0.75], "properties": {"magmom": 0.0}, "label": "Zr", "xyz": [0.0, 2.7540294100000002, 4.130995867499999]}, {"species": [{"element": "Au", "occu": 1}], "abc": [0.5, 0.5, 0.5], "properties": {"magmom": -0.0}, "label": "Au", "xyz": [2.7540294100000002, 2.7540294100000002, 2.753997245]}, {"species": [{"element": "Au", "occu": 1}], "abc": [-0.0, -0.0, -0.0], "properties": {"magmom": -0.0}, "label": "Au", "xyz": [0.0, 0.0, 0.0]}]}, "task_ids": null, "uncorrected_energy_per_atom": null, "energy_per_atom": -30.09634856, "formation_energy_per_atom": -0.38776459374999905, "energy_above_hull": 0.0, "is_stable": true, "equilibrium_reaction_energy_per_atom": null, "decomposes_to": null, "xas": null, "grain_boundaries": null, "band_gap": 0.0, "cbm": null, "vbm": null, "efermi": 4.49585304, "is_gap_direct": null, "is_metal": null, "es_source_calc_id": null, "bandstructure": null, "dos": null, "dos_energy_up": null, "dos_energy_down": null, "is_magnetic": null, "ordering": null, "total_magnetization": 2.299999999999998e-06, "total_magnetization_normalized_vol": null, "total_magnetization_normalized_formula_units": null, "num_magnetic_sites": null, "num_unique_magnetic_sites": null, "types_of_magnetic_species": null, "bulk_modulus": null, "shear_modulus": null, "universal_anisotropy": null, "homogeneous_poisson": null, "e_total": null, "e_ionic": null, "e_electronic": null, "n": null, "e_ij_max": null, "weighted_surface_energy_EV_PER_ANG2": null, "weighted_surface_energy": null, "weighted_work_function": null, "surface_anisotropy": null, "shape_factor": null, "has_reconstructed": null, "possible_species": null, "has_props": null, "theoretical": null, "database_IDs": null, "fields_not_requested": ["builder_meta", "nsites", "elements", "nelements", "composition", "composition_reduced", "chemsys", "symmetry", "property_name", "deprecated", "deprecation_reasons", "last_updated", "origins", "warnings", "task_ids", "uncorrected_energy_per_atom", "equilibrium_reaction_energy_per_atom", "decomposes_to", "xas", "grain_boundaries", "cbm", "vbm", "is_gap_direct", "is_metal", "es_source_calc_id", "bandstructure", "dos", "dos_energy_up", "dos_energy_down", "is_magnetic", "ordering", "total_magnetization_normalized_vol", "total_magnetization_normalized_formula_units", "num_magnetic_sites", "num_unique_magnetic_sites", "types_of_magnetic_species", "bulk_modulus", "shear_modulus", "universal_anisotropy", "homogeneous_poisson", "e_total", "e_ionic", "e_electronic", "n", "e_ij_max", "weighted_surface_energy_EV_PER_ANG2", "weighted_surface_energy", "weighted_work_function", "surface_anisotropy", "shape_factor", "has_reconstructed", "possible_species", "has_props", "theoretical", "database_IDs"]}