{"builder_meta": null, "nsites": null, "elements": null, "nelements": null, "composition": null, "composition_reduced": null, "formula_pretty": "Zr3Al2", "formula_anonymous": "A2B3", "chemsys": null, "volume": 409.0605165646033, "density": 5.320003503131396, "density_atomic": 20.453025828230164, "symmetry": null, "property_name": null, "material_id": "mp-13470", "deprecated": null, "deprecation_reasons": null, "last_updated": null, "origins": null, "warnings": null, "structure": {"@module": "pymatgen.core.structure", "@class": "Structure", "charge": 0, "lattice": {"matrix": [[6.98329483, 0.0, 0.0], [0.0, 7.6535751, -9.98e-06], [0.0, -9.98e-06, 7.65354846]], "pbc": [true, true, true], "a": 6.98329483, "b": 7.653575100006507, "c": 7.6535484600065065, "alpha": 90.00014942373133, "beta": 90.0, "gamma": 90.0, "volume": 409.0605165646033}, "properties": {}, "sites": [{"species": [{"element": "Zr", "occu": 1}], "abc": [0.25000617, -0.0, 0.5], "properties": {"magmom": -0.001}, "label": "Zr", "xyz": [1.7458667944291013, -4.99e-06, 3.82677423]}, {"species": [{"element": "Zr", "occu": 1}], "abc": [0.74999383, -0.0, 0.5], "properties": {"magmom": -0.001}, "label": "Zr", "xyz": [5.237428035570899, -4.99e-06, 3.82677423]}, {"species": [{"element": "Zr", "occu": 1}], "abc": [0.25000617, 0.5, 0.0], "properties": {"magmom": -0.001}, "label": "Zr", "xyz": [1.7458667944291013, 3.82678755, -4.99e-06]}, {"species": [{"element": "Zr", "occu": 1}], "abc": [0.74999383, 0.5, 0.0], "properties": {"magmom": -0.001}, "label": "Zr", "xyz": [5.237428035570899, 3.82678755, -4.99e-06]}, {"species": [{"element": "Zr", "occu": 1}], "abc": [-0.0, 0.3414184, 0.341420399999999], "properties": {"magmom": -0.0}, "label": "Zr", "xyz": [0.0, 2.613067957546248, 2.6130741692769446]}, {"species": [{"element": "Zr", "occu": 1}], "abc": [0.5, 0.15859427, 0.84140473], "properties": {"magmom": -0.0}, "label": "Zr", "xyz": [3.491647415, 1.2138047586554719, 6.439730292757401]}, {"species": [{"element": "Zr", "occu": 1}], "abc": [0.5, 0.84140573, 0.15859527], "properties": {"magmom": -0.0}, "label": "Zr", "xyz": [3.491647415, 6.439760361344528, 1.213808187242599]}, {"species": [{"element": "Zr", "occu": 1}], "abc": [-0.0, 0.6585816, 0.658579599999999], "properties": {"magmom": -0.0}, "label": "Zr", "xyz": [0.0, 5.040497162453752, 5.04046431072304]}, {"species": [{"element": "Zr", "occu": 1}], "abc": [-0.0, 0.19719047, 0.80281053], "properties": {"magmom": -0.0}, "label": "Zr", "xyz": [0.0, 1.5092040591002078, 6.144347327592394]}, {"species": [{"element": "Zr", "occu": 1}], "abc": [0.5, 0.6971702200000001, 0.69716822], "properties": {"magmom": -0.0}, "label": "Zr", "xyz": [3.491647415, 5.335837678514687, 5.335803798783145]}, {"species": [{"element": "Zr", "occu": 1}], "abc": [0.5, 0.30282978, 0.30283178], "properties": {"magmom": -0.0}, "label": "Zr", "xyz": [3.491647415, 2.3177274414853137, 2.317734681216854]}, {"species": [{"element": "Zr", "occu": 1}], "abc": [-0.0, 0.80280953, 0.19718947], "properties": {"magmom": -0.0}, "label": "Zr", "xyz": [0.0, 6.144361060899793, 1.5091911524076067]}, {"species": [{"element": "Al", "occu": 1}], "abc": [0.21576776, 0.12078749, 0.12078749], "properties": {"magmom": 0.0}, "label": "Al", "xyz": [1.5067698828886809, 0.9244549203963488, 0.9244517026176152]}, {"species": [{"element": "Al", "occu": 1}], "abc": [0.71576374, 0.37921456000000003, 0.62078544], "properties": {"magmom": 0.0}, "label": "Al", "xyz": [4.998389225043464, 2.902340918534765, 4.751207663741114]}, {"species": [{"element": "Al", "occu": 1}], "abc": [0.71576374, 0.62078544, 0.37921456000000003], "properties": {"magmom": 0.0}, "label": "Al", "xyz": [4.998389225043464, 4.751224201465235, 2.9023308162588863]}, {"species": [{"element": "Al", "occu": 1}], "abc": [0.21576776, 0.87921251, 0.87921251], "properties": {"magmom": 0.0}, "label": "Al", "xyz": [1.5067698828886809, 6.729110199603652, 6.729086777382385]}, {"species": [{"element": "Al", "occu": 1}], "abc": [0.28423626, 0.62078544, 0.37921456000000003], "properties": {"magmom": 0.0}, "label": "Al", "xyz": [1.984905604956536, 4.751224201465235, 2.9023308162588863]}, {"species": [{"element": "Al", "occu": 1}], "abc": [0.28423626, 0.37921456000000003, 0.62078544], "properties": {"magmom": 0.0}, "label": "Al", "xyz": [1.984905604956536, 2.902340918534765, 4.751207663741114]}, {"species": [{"element": "Al", "occu": 1}], "abc": [0.78423224, 0.12078749, 0.12078749], "properties": {"magmom": 0.0}, "label": "Al", "xyz": [5.4765249471113195, 0.9244549203963488, 0.9244517026176152]}, {"species": [{"element": "Al", "occu": 1}], "abc": [0.78423224, 0.87921251, 0.87921251], "properties": {"magmom": 0.0}, "label": "Al", "xyz": [5.4765249471113195, 6.729110199603652, 6.729086777382385]}]}, "task_ids": null, "uncorrected_energy_per_atom": null, "energy_per_atom": -16.7930969575, "formation_energy_per_atom": -0.4503824825, "energy_above_hull": 0.036176441299996004, "is_stable": false, "equilibrium_reaction_energy_per_atom": null, "decomposes_to": null, "xas": null, "grain_boundaries": null, "band_gap": 0.0, "cbm": null, "vbm": null, "efermi": 4.8781088, "is_gap_direct": null, "is_metal": null, "es_source_calc_id": null, "bandstructure": null, "dos": null, "dos_energy_up": null, "dos_energy_down": null, "is_magnetic": null, "ordering": null, "total_magnetization": 0.009212, "total_magnetization_normalized_vol": null, "total_magnetization_normalized_formula_units": null, "num_magnetic_sites": null, "num_unique_magnetic_sites": null, "types_of_magnetic_species": null, "bulk_modulus": null, "shear_modulus": null, "universal_anisotropy": null, "homogeneous_poisson": null, "e_total": null, "e_ionic": null, "e_electronic": null, "n": null, "e_ij_max": null, "weighted_surface_energy_EV_PER_ANG2": null, "weighted_surface_energy": null, "weighted_work_function": null, "surface_anisotropy": null, "shape_factor": null, "has_reconstructed": null, "possible_species": null, "has_props": null, "theoretical": null, "database_IDs": null, "fields_not_requested": ["builder_meta", "nsites", "elements", "nelements", "composition", "composition_reduced", "chemsys", "symmetry", "property_name", "deprecated", "deprecation_reasons", "last_updated", "origins", "warnings", "task_ids", "uncorrected_energy_per_atom", "equilibrium_reaction_energy_per_atom", "decomposes_to", "xas", "grain_boundaries", "cbm", "vbm", "is_gap_direct", "is_metal", "es_source_calc_id", "bandstructure", "dos", "dos_energy_up", "dos_energy_down", "is_magnetic", "ordering", "total_magnetization_normalized_vol", "total_magnetization_normalized_formula_units", "num_magnetic_sites", "num_unique_magnetic_sites", "types_of_magnetic_species", "bulk_modulus", "shear_modulus", "universal_anisotropy", "homogeneous_poisson", "e_total", "e_ionic", "e_electronic", "n", "e_ij_max", "weighted_surface_energy_EV_PER_ANG2", "weighted_surface_energy", "weighted_work_function", "surface_anisotropy", "shape_factor", "has_reconstructed", "possible_species", "has_props", "theoretical", "database_IDs"]}