{
  "builder_meta": null,
  "nsites": null,
  "elements": null,
  "nelements": null,
  "composition": null,
  "composition_reduced": null,
  "formula_pretty": "Zr3As2",
  "formula_anonymous": "A2B3",
  "chemsys": null,
  "volume": 404.4148358473911,
  "density": 6.955862867150542,
  "density_atomic": 20.220741792369555,
  "symmetry": null,
  "property_name": null,
  "material_id": "mp-972228",
  "deprecated": null,
  "deprecation_reasons": null,
  "last_updated": null,
  "origins": null,
  "warnings": null,
  "structure": {
    "@module": "pymatgen.core.structure",
    "@class": "Structure",
    "charge": 0,
    "lattice": {
      "matrix": [
        [10.58756438, 0.0, 0.0],
        [0.0, 3.76391103, 0.0],
        [0.0, 0.0, 10.14826188]
      ],
      "pbc": [true, true, true],
      "a": 10.58756438,
      "b": 3.76391103,
      "c": 10.14826188,
      "alpha": 90.0,
      "beta": 90.0,
      "gamma": 90.0,
      "volume": 404.4148358473911
    },
    "properties": {},
    "sites": [
      {
        "species": [{ "element": "Zr", "occu": 1 }],
        "abc": [0.21525809, 0.249998, 0.20371304],
        "properties": { "magmom": -0.0 },
        "label": "Zr",
        "xyz": [2.2790588861908345, 0.94097022967794, 2.0673332782909153]
      },
      {
        "species": [{ "element": "Zr", "occu": 1 }],
        "abc": [0.28474191, 0.749999, 0.70371204],
        "properties": { "magmom": -0.0 },
        "label": "Zr",
        "xyz": [3.0147233038091654, 2.82292950858897, 7.1414540700290345]
      },
      {
        "species": [{ "element": "Zr", "occu": 1 }],
        "abc": [0.7152580900000001, 0.249998, 0.29628796],
        "properties": { "magmom": -0.0 },
        "label": "Zr",
        "xyz": [7.5728410761908345, 0.94097022967794, 3.0068078099709648]
      },
      {
        "species": [{ "element": "Zr", "occu": 1 }],
        "abc": [0.78474191, 0.749999, 0.79628796],
        "properties": { "magmom": -0.0 },
        "label": "Zr",
        "xyz": [8.308505493809166, 2.82292950858897, 8.080938749970965]
      },
      {
        "species": [{ "element": "Zr", "occu": 1 }],
        "abc": [0.12418773, 0.749999, 0.43253169],
        "properties": { "magmom": -0.0 },
        "label": "Zr",
        "xyz": [1.3148455865810573, 2.82292950858897, 4.389444861518977]
      },
      {
        "species": [{ "element": "Zr", "occu": 1 }],
        "abc": [0.37581227, 0.249998, 0.93253369],
        "properties": { "magmom": -0.0 },
        "label": "Zr",
        "xyz": [3.9789366034189424, 0.94097022967794, 9.463596098042737]
      },
      {
        "species": [{ "element": "Zr", "occu": 1 }],
        "abc": [0.62418773, 0.749999, 0.06746731],
        "properties": { "magmom": -0.0 },
        "label": "Zr",
        "xyz": [6.6086277765810575, 2.82292950858897, 0.6846759302191429]
      },
      {
        "species": [{ "element": "Zr", "occu": 1 }],
        "abc": [0.8758122700000001, 0.249998, 0.56746631],
        "properties": { "magmom": -0.0 },
        "label": "Zr",
        "xyz": [9.272718793418942, 0.94097022967794, 5.758796721957263]
      },
      {
        "species": [{ "element": "Zr", "occu": 1 }],
        "abc": [0.04427913, 0.249998, 0.8745984],
        "properties": { "magmom": -0.0 },
        "label": "Zr",
        "xyz": [0.4688081395653894, 0.94097022967794, 8.875653603028992]
      },
      {
        "species": [{ "element": "Zr", "occu": 1 }],
        "abc": [0.45572187000000003, 0.749999, 0.3745984],
        "properties": { "magmom": -0.0 },
        "label": "Zr",
        "xyz": [4.824984637998991, 2.82292950858897, 3.801522663028992]
      },
      {
        "species": [{ "element": "Zr", "occu": 1 }],
        "abc": [0.54427813, 0.249998, 0.6254016],
        "properties": { "magmom": -0.0 },
        "label": "Zr",
        "xyz": [5.76257974200101, 0.94097022967794, 6.346739216971008]
      },
      {
        "species": [{ "element": "Zr", "occu": 1 }],
        "abc": [0.95572187, 0.749999, 0.1254016],
        "properties": { "magmom": -0.0 },
        "label": "Zr",
        "xyz": [10.118766827998991, 2.82292950858897, 1.272608276971008]
      },
      {
        "species": [{ "element": "As", "occu": 1 }],
        "abc": [0.30569546000000003, 0.249998, 0.49923589],
        "properties": { "magmom": 0.0 },
        "label": "As",
        "xyz": [3.236570363423715, 0.94097022967794, 5.066376551614873]
      },
      {
        "species": [{ "element": "As", "occu": 1 }],
        "abc": [0.19430454, 0.749999, 0.99923589],
        "properties": { "magmom": 0.0 },
        "label": "As",
        "xyz": [2.0572118265762853, 2.82292950858897, 10.140507491614873]
      },
      {
        "species": [{ "element": "As", "occu": 1 }],
        "abc": [0.69430354, 0.749999, 0.50076511],
        "properties": { "magmom": 0.0 },
        "label": "As",
        "xyz": [7.350983429011905, 2.82292950858897, 5.081895476647007]
      },
      {
        "species": [{ "element": "As", "occu": 1 }],
        "abc": [0.80569546, 0.249998, 0.00076411],
        "properties": { "magmom": 0.0 },
        "label": "As",
        "xyz": [8.530352553423715, 0.94097022967794, 0.0077543883851268]
      },
      {
        "species": [{ "element": "As", "occu": 1 }],
        "abc": [0.97217326, 0.249998, 0.32086866],
        "properties": { "magmom": 0.0 },
        "label": "As",
        "xyz": [10.29294697876448, 0.94097022967794, 3.256259190764681]
      },
      {
        "species": [{ "element": "As", "occu": 1 }],
        "abc": [0.52782674, 0.749999, 0.82086866],
        "properties": { "magmom": 0.0 },
        "label": "As",
        "xyz": [5.588399591235521, 2.82292950858897, 8.33039013076468]
      },
      {
        "species": [{ "element": "As", "occu": 1 }],
        "abc": [0.47217326, 0.249998, 0.17913034],
        "properties": { "magmom": 0.0 },
        "label": "As",
        "xyz": [4.999164788764479, 0.94097022967794, 1.8178616009734392]
      },
      {
        "species": [{ "element": "As", "occu": 1 }],
        "abc": [0.02782674, 0.749999, 0.67913034],
        "properties": { "magmom": 0.0 },
        "label": "As",
        "xyz": [0.2946174012355212, 2.82292950858897, 6.8919925409734395]
      }
    ]
  },
  "task_ids": null,
  "uncorrected_energy_per_atom": null,
  "energy_per_atom": -8.046549620000002,
  "formation_energy_per_atom": -1.049880229000002,
  "energy_above_hull": 0.0,
  "is_stable": true,
  "equilibrium_reaction_energy_per_atom": null,
  "decomposes_to": null,
  "xas": null,
  "grain_boundaries": null,
  "band_gap": 0.0,
  "cbm": null,
  "vbm": null,
  "efermi": 5.54803201,
  "is_gap_direct": null,
  "is_metal": null,
  "es_source_calc_id": null,
  "bandstructure": null,
  "dos": null,
  "dos_energy_up": null,
  "dos_energy_down": null,
  "is_magnetic": null,
  "ordering": null,
  "total_magnetization": 3.05e-5,
  "total_magnetization_normalized_vol": null,
  "total_magnetization_normalized_formula_units": null,
  "num_magnetic_sites": null,
  "num_unique_magnetic_sites": null,
  "types_of_magnetic_species": null,
  "bulk_modulus": null,
  "shear_modulus": null,
  "universal_anisotropy": null,
  "homogeneous_poisson": null,
  "e_total": null,
  "e_ionic": null,
  "e_electronic": null,
  "n": null,
  "e_ij_max": null,
  "weighted_surface_energy_EV_PER_ANG2": null,
  "weighted_surface_energy": null,
  "weighted_work_function": null,
  "surface_anisotropy": null,
  "shape_factor": null,
  "has_reconstructed": null,
  "possible_species": null,
  "has_props": null,
  "theoretical": null,
  "database_IDs": null,
  "fields_not_requested": [
    "builder_meta",
    "nsites",
    "elements",
    "nelements",
    "composition",
    "composition_reduced",
    "chemsys",
    "symmetry",
    "property_name",
    "deprecated",
    "deprecation_reasons",
    "last_updated",
    "origins",
    "warnings",
    "task_ids",
    "uncorrected_energy_per_atom",
    "equilibrium_reaction_energy_per_atom",
    "decomposes_to",
    "xas",
    "grain_boundaries",
    "cbm",
    "vbm",
    "is_gap_direct",
    "is_metal",
    "es_source_calc_id",
    "bandstructure",
    "dos",
    "dos_energy_up",
    "dos_energy_down",
    "is_magnetic",
    "ordering",
    "total_magnetization_normalized_vol",
    "total_magnetization_normalized_formula_units",
    "num_magnetic_sites",
    "num_unique_magnetic_sites",
    "types_of_magnetic_species",
    "bulk_modulus",
    "shear_modulus",
    "universal_anisotropy",
    "homogeneous_poisson",
    "e_total",
    "e_ionic",
    "e_electronic",
    "n",
    "e_ij_max",
    "weighted_surface_energy_EV_PER_ANG2",
    "weighted_surface_energy",
    "weighted_work_function",
    "surface_anisotropy",
    "shape_factor",
    "has_reconstructed",
    "possible_species",
    "has_props",
    "theoretical",
    "database_IDs"
  ]
}
