{
  "builder_meta": null,
  "nsites": null,
  "elements": null,
  "nelements": null,
  "composition": null,
  "composition_reduced": null,
  "formula_pretty": "Zr3Bi5",
  "formula_anonymous": "A3B5",
  "chemsys": null,
  "volume": 847.5681256587263,
  "density": 10.333298636030344,
  "density_atomic": 26.486503926835198,
  "symmetry": null,
  "property_name": null,
  "material_id": "mp-1207419",
  "deprecated": null,
  "deprecation_reasons": null,
  "last_updated": null,
  "origins": null,
  "warnings": null,
  "structure": {
    "@module": "pymatgen.core.structure",
    "@class": "Structure",
    "charge": 0,
    "lattice": {
      "matrix": [
        [7.02344381, 8.064e-5, 0.0],
        [8.062e-5, 7.02346658, 0.0],
        [0.0, 0.0, 17.18197107]
      ],
      "pbc": [true, true, true],
      "a": 7.023443810462936,
      "b": 7.023466580462705,
      "c": 17.18197107,
      "alpha": 90.0,
      "beta": 90.0,
      "gamma": 89.99868447692066,
      "volume": 847.5681256587263
    },
    "properties": {},
    "sites": [
      {
        "species": [{ "element": "Zr", "occu": 1 }],
        "abc": [0.0, 0.5, 0.58764688],
        "properties": { "magmom": 0.0 },
        "label": "Zr",
        "xyz": [4.031e-5, 3.51173329, 10.096931691535762]
      },
      {
        "species": [{ "element": "Zr", "occu": 1 }],
        "abc": [0.5, 0.0, 0.4123249],
        "properties": { "magmom": -0.0 },
        "label": "Zr",
        "xyz": [3.511721905, 4.032e-5, 7.084554503240643]
      },
      {
        "species": [{ "element": "Zr", "occu": 1 }],
        "abc": [0.5, 0.0, 0.08766702],
        "properties": { "magmom": -0.0 },
        "label": "Zr",
        "xyz": [3.511721905, 4.032e-5, 1.5062922014331113]
      },
      {
        "species": [{ "element": "Zr", "occu": 1 }],
        "abc": [0.0, 0.5, 0.91236206],
        "properties": { "magmom": -0.0 },
        "label": "Zr",
        "xyz": [4.031e-5, 3.51173329, 15.676178520285603]
      },
      {
        "species": [{ "element": "Zr", "occu": 1 }],
        "abc": [0.0, 0.0, 1.3880000000000001e-5],
        "properties": { "magmom": 0.0 },
        "label": "Zr",
        "xyz": [0.0, 0.0, 0.0002384857584516]
      },
      {
        "species": [{ "element": "Zr", "occu": 1 }],
        "abc": [0.5, 0.5, 0.49998569000000004],
        "properties": { "magmom": -0.0 },
        "label": "Zr",
        "xyz": [3.511762215, 3.51177361, 8.59073966099399]
      },
      {
        "species": [{ "element": "Zr", "occu": 1 }],
        "abc": [0.0, 0.0, 0.32505359],
        "properties": { "magmom": 0.0 },
        "label": "Zr",
        "xyz": [0.0, 0.0, 5.585061379579641]
      },
      {
        "species": [{ "element": "Zr", "occu": 1 }],
        "abc": [0.0, 0.0, 0.67493261],
        "properties": { "magmom": 0.0 },
        "label": "Zr",
        "xyz": [0.0, 0.0, 11.596672579219593]
      },
      {
        "species": [{ "element": "Zr", "occu": 1 }],
        "abc": [0.5, 0.5, 0.8250856],
        "properties": { "magmom": 0.0 },
        "label": "Zr",
        "xyz": [3.511762215, 3.51177361, 14.176596909473592]
      },
      {
        "species": [{ "element": "Zr", "occu": 1 }],
        "abc": [0.5, 0.5, 0.17492775],
        "properties": { "magmom": 0.0 },
        "label": "Zr",
        "xyz": [3.511762215, 3.51177361, 3.0056035398401924]
      },
      {
        "species": [{ "element": "Zr", "occu": 1 }],
        "abc": [0.0, 0.5, 0.24998602],
        "properties": { "magmom": 0.0 },
        "label": "Zr",
        "xyz": [4.031e-5, 3.51173329, 4.295252563544441]
      },
      {
        "species": [{ "element": "Zr", "occu": 1 }],
        "abc": [0.5, 0.0, 0.75001294],
        "properties": { "magmom": 0.0 },
        "label": "Zr",
        "xyz": [3.511721905, 4.032e-5, 12.886700637205644]
      },
      {
        "species": [{ "element": "Bi", "occu": 1 }],
        "abc": [0.34287236, 0.30543236, 0.6516273300000001],
        "properties": { "magmom": -0.0 },
        "label": "Bi",
        "xyz": [2.408169378418955, 2.1452216221376395, 11.196241932481344]
      },
      {
        "species": [{ "element": "Bi", "occu": 1 }],
        "abc": [0.65712764, 0.69456764, 0.6516273300000001],
        "properties": { "magmom": -0.0 },
        "label": "Bi",
        "xyz": [4.615355051581045, 4.878325597862361, 11.196241932481344]
      },
      {
        "species": [{ "element": "Bi", "occu": 1 }],
        "abc": [0.30541212, 0.65712988, 0.34835802],
        "properties": { "magmom": -0.0 },
        "label": "Bi",
        "xyz": [2.145097841523903, 4.615354379332768, 5.985477421642481]
      },
      {
        "species": [{ "element": "Bi", "occu": 1 }],
        "abc": [0.84287771, 0.19458829, 0.15163509],
        "properties": { "magmom": -0.0 },
        "label": "Bi",
        "xyz": [5.919919922594414, 1.3667523213328825, 2.6053897295768462]
      },
      {
        "species": [{ "element": "Bi", "occu": 1 }],
        "abc": [0.69458788, 0.34287012, 0.34835802],
        "properties": { "magmom": -0.0 },
        "label": "Bi",
        "xyz": [4.878426588476097, 2.408192840667233, 5.985477421642481]
      },
      {
        "species": [{ "element": "Bi", "occu": 1 }],
        "abc": [0.15712229, 0.80541171, 0.15163509],
        "properties": { "magmom": -0.0 },
        "label": "Bi",
        "xyz": [1.1036045074055851, 5.656794898667117, 2.6053897295768462]
      },
      {
        "species": [{ "element": "Bi", "occu": 1 }],
        "abc": [0.80543983, 0.84286951, 0.8483825500000001],
        "properties": { "magmom": -0.0 },
        "label": "Bi",
        "xyz": [5.6570293404808485, 5.919930785453867, 14.576884430392829]
      },
      {
        "species": [{ "element": "Bi", "occu": 1 }],
        "abc": [0.19456017, 0.15713049, 0.8483825500000001],
        "properties": { "magmom": -0.0 },
        "label": "Bi",
        "xyz": [1.3664950895191514, 1.103616434546133, 14.576884430392829]
      },
      {
        "species": [{ "element": "Bi", "occu": 1 }],
        "abc": [0.33169331, 0.16830536000000001, 0.24999254],
        "properties": { "magmom": -0.0 },
        "label": "Bi",
        "xyz": [2.3296428937160343, 1.1821138189433873, 4.295364589995818]
      },
      {
        "species": [{ "element": "Bi", "occu": 1 }],
        "abc": [0.66830669, 0.83169464, 0.24999254],
        "properties": { "magmom": -0.0 },
        "label": "Bi",
        "xyz": [4.693881536283966, 5.841433401056613, 4.295364589995818]
      },
      {
        "species": [{ "element": "Bi", "occu": 1 }],
        "abc": [0.16829713000000002, 0.66830027, 0.7500065100000001],
        "properties": { "magmom": -0.0 },
        "label": "Bi",
        "xyz": [1.182079314307033, 4.69379818323054, 12.886590157131666]
      },
      {
        "species": [{ "element": "Bi", "occu": 1 }],
        "abc": [0.83170287, 0.33169973, 0.7500065100000001],
        "properties": { "magmom": -0.0 },
        "label": "Bi",
        "xyz": [5.841445115692967, 2.3297490367694604, 12.886590157131666]
      },
      {
        "species": [{ "element": "Bi", "occu": 1 }],
        "abc": [0.23250334, 0.34279356, 0.05179425],
        "properties": { "magmom": 0.0 },
        "label": "Bi",
        "xyz": [1.6330017801441326, 2.4076178615685624, 0.8899273050923475]
      },
      {
        "species": [{ "element": "Bi", "occu": 1 }],
        "abc": [0.76749666, 0.6572064400000001, 0.05179425],
        "properties": { "magmom": 0.0 },
        "label": "Bi",
        "xyz": [5.390522649855868, 4.615929358431438, 0.8899273050923475]
      },
      {
        "species": [{ "element": "Bi", "occu": 1 }],
        "abc": [0.34279163, 0.76753057, 0.94821907],
        "properties": { "magmom": -0.0 },
        "label": "Bi",
        "xyz": [2.4076396301578638, 5.390752950240394, 16.292272628762305]
      },
      {
        "species": [{ "element": "Bi", "occu": 1 }],
        "abc": [0.73247362, 0.15720687, 0.55178467],
        "properties": { "magmom": 0.0 },
        "label": "Bi",
        "xyz": [5.144499986395152, 1.1041962642641212, 9.480748236809497]
      },
      {
        "species": [{ "element": "Bi", "occu": 1 }],
        "abc": [0.65720837, 0.23246943, 0.94821907],
        "properties": { "magmom": -0.0 },
        "label": "Bi",
        "xyz": [4.615884799842136, 1.6327942697596063, 16.292272628762305]
      },
      {
        "species": [{ "element": "Bi", "occu": 1 }],
        "abc": [0.26752638, 0.84279313, 0.55178467],
        "properties": { "magmom": 0.0 },
        "label": "Bi",
        "xyz": [1.8790244436048484, 5.9193509557358786, 9.480748236809497]
      },
      {
        "species": [{ "element": "Bi", "occu": 1 }],
        "abc": [0.84279296, 0.73251095, 0.44820049],
        "properties": { "magmom": -0.0 },
        "label": "Bi",
        "xyz": [5.919368053056367, 5.144834139633345, 7.700967852739824]
      },
      {
        "species": [{ "element": "Bi", "occu": 1 }],
        "abc": [0.15720704, 0.26748905, 0.44820049],
        "properties": { "magmom": -0.0 },
        "label": "Bi",
        "xyz": [1.1041563769436333, 1.8787130803666547, 7.700967852739824]
      }
    ]
  },
  "task_ids": null,
  "uncorrected_energy_per_atom": null,
  "energy_per_atom": -5.933289851562499,
  "formation_energy_per_atom": -0.296630671562501,
  "energy_above_hull": 0.0036636887499990004,
  "is_stable": false,
  "equilibrium_reaction_energy_per_atom": null,
  "decomposes_to": null,
  "xas": null,
  "grain_boundaries": null,
  "band_gap": 0.0,
  "cbm": null,
  "vbm": null,
  "efermi": 6.53706269,
  "is_gap_direct": null,
  "is_metal": null,
  "es_source_calc_id": null,
  "bandstructure": null,
  "dos": null,
  "dos_energy_up": null,
  "dos_energy_down": null,
  "is_magnetic": null,
  "ordering": null,
  "total_magnetization": 1.4e-6,
  "total_magnetization_normalized_vol": null,
  "total_magnetization_normalized_formula_units": null,
  "num_magnetic_sites": null,
  "num_unique_magnetic_sites": null,
  "types_of_magnetic_species": null,
  "bulk_modulus": null,
  "shear_modulus": null,
  "universal_anisotropy": null,
  "homogeneous_poisson": null,
  "e_total": null,
  "e_ionic": null,
  "e_electronic": null,
  "n": null,
  "e_ij_max": null,
  "weighted_surface_energy_EV_PER_ANG2": null,
  "weighted_surface_energy": null,
  "weighted_work_function": null,
  "surface_anisotropy": null,
  "shape_factor": null,
  "has_reconstructed": null,
  "possible_species": null,
  "has_props": null,
  "theoretical": null,
  "database_IDs": null,
  "fields_not_requested": [
    "builder_meta",
    "nsites",
    "elements",
    "nelements",
    "composition",
    "composition_reduced",
    "chemsys",
    "symmetry",
    "property_name",
    "deprecated",
    "deprecation_reasons",
    "last_updated",
    "origins",
    "warnings",
    "task_ids",
    "uncorrected_energy_per_atom",
    "equilibrium_reaction_energy_per_atom",
    "decomposes_to",
    "xas",
    "grain_boundaries",
    "cbm",
    "vbm",
    "is_gap_direct",
    "is_metal",
    "es_source_calc_id",
    "bandstructure",
    "dos",
    "dos_energy_up",
    "dos_energy_down",
    "is_magnetic",
    "ordering",
    "total_magnetization_normalized_vol",
    "total_magnetization_normalized_formula_units",
    "num_magnetic_sites",
    "num_unique_magnetic_sites",
    "types_of_magnetic_species",
    "bulk_modulus",
    "shear_modulus",
    "universal_anisotropy",
    "homogeneous_poisson",
    "e_total",
    "e_ionic",
    "e_electronic",
    "n",
    "e_ij_max",
    "weighted_surface_energy_EV_PER_ANG2",
    "weighted_surface_energy",
    "weighted_work_function",
    "surface_anisotropy",
    "shape_factor",
    "has_reconstructed",
    "possible_species",
    "has_props",
    "theoretical",
    "database_IDs"
  ]
}
