{
  "builder_meta": null,
  "nsites": null,
  "elements": null,
  "nelements": null,
  "composition": null,
  "composition_reduced": null,
  "formula_pretty": "Zr3Br",
  "formula_anonymous": "AB3",
  "chemsys": null,
  "volume": 178.77936462831642,
  "density": 6.5681714691491635,
  "density_atomic": 22.347420578539552,
  "symmetry": null,
  "property_name": null,
  "material_id": "mp-1188037",
  "deprecated": null,
  "deprecation_reasons": null,
  "last_updated": null,
  "origins": null,
  "warnings": null,
  "structure": {
    "@module": "pymatgen.core.structure",
    "@class": "Structure",
    "charge": 0,
    "lattice": {
      "matrix": [
        [3.090305, -5.352564, 0.0],
        [3.090305, 5.352564, 0.0],
        [0.0, 0.0, 5.40411]
      ],
      "pbc": [true, true, true],
      "a": 6.180608899382083,
      "b": 6.180608899382083,
      "c": 5.40411,
      "alpha": 90.0,
      "beta": 90.0,
      "gamma": 119.9999882185884,
      "volume": 178.77936462831642
    },
    "properties": {},
    "sites": [
      {
        "species": [{ "element": "Zr", "occu": 1 }],
        "abc": [0.162078, 0.324156, 0.25],
        "properties": { "magmom": -0.001 },
        "label": "Zr",
        "xyz": [1.5026113613699998, 0.867532867992, 1.3510275]
      },
      {
        "species": [{ "element": "Zr", "occu": 1 }],
        "abc": [0.675844, 0.837922, 0.25],
        "properties": { "magmom": -0.001 },
        "label": "Zr",
        "xyz": [4.677998638629999, 0.8675328679919994, 1.3510275]
      },
      {
        "species": [{ "element": "Zr", "occu": 1 }],
        "abc": [0.162078, 0.837922, 0.25],
        "properties": { "magmom": -0.001 },
        "label": "Zr",
        "xyz": [3.090305, 3.6174982640159996, 1.3510275]
      },
      {
        "species": [{ "element": "Zr", "occu": 1 }],
        "abc": [0.837922, 0.675844, 0.75],
        "properties": { "magmom": -0.001 },
        "label": "Zr",
        "xyz": [4.677998638629999, -0.8675328679919994, 4.0530825]
      },
      {
        "species": [{ "element": "Zr", "occu": 1 }],
        "abc": [0.324156, 0.162078, 0.75],
        "properties": { "magmom": -0.001 },
        "label": "Zr",
        "xyz": [1.5026113613699998, -0.867532867992, 4.0530825]
      },
      {
        "species": [{ "element": "Zr", "occu": 1 }],
        "abc": [0.837922, 0.162078, 0.75],
        "properties": { "magmom": -0.001 },
        "label": "Zr",
        "xyz": [3.090305, -3.6174982640159996, 4.0530825]
      },
      {
        "species": [{ "element": "Br", "occu": 1 }],
        "abc": [0.333333, 0.666667, 0.75],
        "properties": { "magmom": -0.0 },
        "label": "Br",
        "xyz": [3.090305, 1.7841915683760003, 4.0530825]
      },
      {
        "species": [{ "element": "Br", "occu": 1 }],
        "abc": [0.666667, 0.333333, 0.25],
        "properties": { "magmom": -0.0 },
        "label": "Br",
        "xyz": [3.090305, -1.7841915683760003, 1.3510275]
      }
    ]
  },
  "task_ids": null,
  "uncorrected_energy_per_atom": null,
  "energy_per_atom": -6.743049763749999,
  "formation_energy_per_atom": 0.076962342499999,
  "energy_above_hull": 0.71244530875,
  "is_stable": false,
  "equilibrium_reaction_energy_per_atom": null,
  "decomposes_to": null,
  "xas": null,
  "grain_boundaries": null,
  "band_gap": 0.0,
  "cbm": null,
  "vbm": null,
  "efermi": 5.31494102,
  "is_gap_direct": null,
  "is_metal": null,
  "es_source_calc_id": null,
  "bandstructure": null,
  "dos": null,
  "dos_energy_up": null,
  "dos_energy_down": null,
  "is_magnetic": null,
  "ordering": null,
  "total_magnetization": 0.0124771,
  "total_magnetization_normalized_vol": null,
  "total_magnetization_normalized_formula_units": null,
  "num_magnetic_sites": null,
  "num_unique_magnetic_sites": null,
  "types_of_magnetic_species": null,
  "bulk_modulus": null,
  "shear_modulus": null,
  "universal_anisotropy": null,
  "homogeneous_poisson": null,
  "e_total": null,
  "e_ionic": null,
  "e_electronic": null,
  "n": null,
  "e_ij_max": null,
  "weighted_surface_energy_EV_PER_ANG2": null,
  "weighted_surface_energy": null,
  "weighted_work_function": null,
  "surface_anisotropy": null,
  "shape_factor": null,
  "has_reconstructed": null,
  "possible_species": null,
  "has_props": null,
  "theoretical": null,
  "database_IDs": null,
  "fields_not_requested": [
    "builder_meta",
    "nsites",
    "elements",
    "nelements",
    "composition",
    "composition_reduced",
    "chemsys",
    "symmetry",
    "property_name",
    "deprecated",
    "deprecation_reasons",
    "last_updated",
    "origins",
    "warnings",
    "task_ids",
    "uncorrected_energy_per_atom",
    "equilibrium_reaction_energy_per_atom",
    "decomposes_to",
    "xas",
    "grain_boundaries",
    "cbm",
    "vbm",
    "is_gap_direct",
    "is_metal",
    "es_source_calc_id",
    "bandstructure",
    "dos",
    "dos_energy_up",
    "dos_energy_down",
    "is_magnetic",
    "ordering",
    "total_magnetization_normalized_vol",
    "total_magnetization_normalized_formula_units",
    "num_magnetic_sites",
    "num_unique_magnetic_sites",
    "types_of_magnetic_species",
    "bulk_modulus",
    "shear_modulus",
    "universal_anisotropy",
    "homogeneous_poisson",
    "e_total",
    "e_ionic",
    "e_electronic",
    "n",
    "e_ij_max",
    "weighted_surface_energy_EV_PER_ANG2",
    "weighted_surface_energy",
    "weighted_work_function",
    "surface_anisotropy",
    "shape_factor",
    "has_reconstructed",
    "possible_species",
    "has_props",
    "theoretical",
    "database_IDs"
  ]
}
