{"builder_meta": null, "nsites": null, "elements": null, "nelements": null, "composition": null, "composition_reduced": null, "formula_pretty": "Zr3Bi", "formula_anonymous": "AB3", "chemsys": null, "volume": 386.94321860249914, "density": 8.285072612801939, "density_atomic": 24.183951162656196, "symmetry": null, "property_name": null, "material_id": "mp-1207416", "deprecated": null, "deprecation_reasons": null, "last_updated": null, "origins": null, "warnings": null, "structure": {"@module": "pymatgen.core.structure", "@class": "Structure", "charge": 0, "lattice": {"matrix": [[-0.00010026, 0.00022124000000000002, 5.83640037], [-5.75726241, 5.75794106, 2.9185173300000002], [-5.75727623, -5.75773395, 2.91808329]], "pbc": [true, true, true], "a": 5.836400375054417, "b": 8.649722487660704, "c": 8.649447376271091, "alpha": 83.4687056876938, "beta": 70.28398356897954, "gamma": 70.27851081358104, "volume": 386.94321860249914}, "properties": {}, "sites": [{"species": [{"element": "Zr", "occu": 1}], "abc": [0.54744426, 0.97105174, 0.39880486], "properties": {"magmom": 0.0}, "label": "Zr", "xyz": [-7.886684308515079, 3.29516751985153, 7.19288101107182]}, {"species": [{"element": "Zr", "occu": 1}], "abc": [0.91723493, 0.02897259, 0.60130852], "properties": {"magmom": -0.0}, "label": "Zr", "xyz": [-3.6287940143939035, -3.2951490853967957, 7.192575635185539]}, {"species": [{"element": "Zr", "occu": 1}], "abc": [0.0537307, 0.39874471, 0.02895633], "properties": {"magmom": 0.0}, "label": "Zr", "xyz": [-2.462392907526369, 2.1292375812384567, 1.5618342064539092]}, {"species": [{"element": "Zr", "occu": 1}], "abc": [0.48141216000000003, 0.6012957600000001, 0.9710405], "properties": {"magmom": 0.0}, "label": "Zr", "xyz": [-9.052414131740859, -2.1286608003407905, 7.398183261725265]}, {"species": [{"element": "Zr", "occu": 1}], "abc": [0.17415794, 0.33069111, 0.37901286], "properties": {"magmom": -0.0}, "label": "Zr", "xyz": [-4.085974687741557, -0.278116760359975, 3.0875742943274838]}, {"species": [{"element": "Zr", "occu": 1}], "abc": [0.88395088, 0.66928287, 0.6209856], "properties": {"magmom": -0.0}, "label": "Zr", "xyz": [-7.4285113680754336, 0.27841701163921284, 8.924492600551586]}, {"species": [{"element": "Zr", "occu": 1}], "abc": [0.44691194, 0.37895532, 0.6692260600000001], "properties": {"magmom": -0.0}, "label": "Zr", "xyz": [-6.03470931403118, -1.6711243341556932, 5.667202063607651]}, {"species": [{"element": "Zr", "occu": 1}], "abc": [0.49504858, 0.6210386, 0.33077038000000003], "properties": {"magmom": -0.0}, "label": "Zr", "xyz": [-5.4798682668717245, 1.671525332752354, 5.667029150883863]}, {"species": [{"element": "Zr", "occu": 1}], "abc": [0.37926127, 0.02518383, 0.81501497], "properties": {"magmom": 0.0}, "label": "Zr", "xyz": [-4.837294256408923, -4.547548445958798, 4.665301625902295]}, {"species": [{"element": "Zr", "occu": 1}], "abc": [0.21940983, 0.97484294, 0.18497778], "properties": {"magmom": 0.0}, "label": "Zr", "xyz": [-6.677416788017611, 4.548083889606275, 4.665440196251083]}, {"species": [{"element": "Zr", "occu": 1}], "abc": [0.80577273, 0.81505892, 0.97479159], "properties": {"magmom": -0.0}, "label": "Zr", "xyz": [-10.304733319136012, -0.9193511409714406, 9.926098892510526]}, {"species": [{"element": "Zr", "occu": 1}], "abc": [0.59562569, 0.18487683, 0.025168199999999002], "properties": {"magmom": -0.0}, "label": "Zr", "xyz": [-1.2093444208825201, 0.9197298671269111, 4.089319133627344]}, {"species": [{"element": "Bi", "occu": 1}], "abc": [0.31939535, 0.74536528, 0.6770995200000001], "properties": {"magmom": -0.0}, "label": "Bi", "xyz": [-8.189544502681326, 0.3932811196049264, 6.015313420755603]}, {"species": [{"element": "Bi", "occu": 1}], "abc": [0.7417992, 0.25465443, 0.32282785], "properties": {"magmom": 0.0}, "label": "Bi", "xyz": [-3.324795857353774, -0.39230755768760406, 6.014689047093603]}, {"species": [{"element": "Bi", "occu": 1}], "abc": [0.00349545, 0.67715375, 0.254698], "properties": {"magmom": 0.0}, "label": "Bi", "xyz": [-5.364918922347894, 2.432528832794233, 2.739915777919224]}, {"species": [{"element": "Bi", "occu": 1}], "abc": [0.93534909, 0.32282931, 0.74531797], "properties": {"magmom": -0.0}, "label": "Bi", "xyz": [-6.1497082618818535, -2.4323035033609415, 8.576154624815826]}]}, "task_ids": null, "uncorrected_energy_per_atom": null, "energy_per_atom": -7.628328649375, "formation_energy_per_atom": -0.24504459937500103, "energy_above_hull": 0.0, "is_stable": true, "equilibrium_reaction_energy_per_atom": null, "decomposes_to": null, "xas": null, "grain_boundaries": null, "band_gap": 0.0, "cbm": null, "vbm": null, "efermi": 5.25245291, "is_gap_direct": null, "is_metal": null, "es_source_calc_id": null, "bandstructure": null, "dos": null, "dos_energy_up": null, "dos_energy_down": null, "is_magnetic": null, "ordering": null, "total_magnetization": 3.6e-06, "total_magnetization_normalized_vol": null, "total_magnetization_normalized_formula_units": null, "num_magnetic_sites": null, "num_unique_magnetic_sites": null, "types_of_magnetic_species": null, "bulk_modulus": null, "shear_modulus": null, "universal_anisotropy": null, "homogeneous_poisson": null, "e_total": null, "e_ionic": null, "e_electronic": null, "n": null, "e_ij_max": null, "weighted_surface_energy_EV_PER_ANG2": null, "weighted_surface_energy": null, "weighted_work_function": null, "surface_anisotropy": null, "shape_factor": null, "has_reconstructed": null, "possible_species": null, "has_props": null, "theoretical": null, "database_IDs": null, "fields_not_requested": ["builder_meta", "nsites", "elements", "nelements", "composition", "composition_reduced", "chemsys", "symmetry", "property_name", "deprecated", "deprecation_reasons", "last_updated", "origins", "warnings", "task_ids", "uncorrected_energy_per_atom", "equilibrium_reaction_energy_per_atom", "decomposes_to", "xas", "grain_boundaries", "cbm", "vbm", "is_gap_direct", "is_metal", "es_source_calc_id", "bandstructure", "dos", "dos_energy_up", "dos_energy_down", "is_magnetic", "ordering", "total_magnetization_normalized_vol", "total_magnetization_normalized_formula_units", "num_magnetic_sites", "num_unique_magnetic_sites", "types_of_magnetic_species", "bulk_modulus", "shear_modulus", "universal_anisotropy", "homogeneous_poisson", "e_total", "e_ionic", "e_electronic", "n", "e_ij_max", "weighted_surface_energy_EV_PER_ANG2", "weighted_surface_energy", "weighted_work_function", "surface_anisotropy", "shape_factor", "has_reconstructed", "possible_species", "has_props", "theoretical", "database_IDs"]}