{
  "builder_meta": null,
  "nsites": null,
  "elements": null,
  "nelements": null,
  "composition": null,
  "composition_reduced": null,
  "formula_pretty": "Zr3Co",
  "formula_anonymous": "AB3",
  "chemsys": null,
  "volume": 158.2078056440299,
  "density": 6.98200594848403,
  "density_atomic": 19.775975705503736,
  "symmetry": null,
  "property_name": null,
  "material_id": "mp-30619",
  "deprecated": null,
  "deprecation_reasons": null,
  "last_updated": null,
  "origins": null,
  "warnings": null,
  "structure": {
    "@module": "pymatgen.core.structure",
    "@class": "Structure",
    "charge": 0,
    "lattice": {
      "matrix": [
        [3.24406649, -1e-8, -0.0],
        [-1.62203426, 5.36755883, 0.0],
        [-0.0, -0.0, 9.08576181]
      ],
      "pbc": [true, true, true],
      "a": 3.24406649,
      "b": 5.607288376222924,
      "c": 9.08576181,
      "alpha": 90.0,
      "beta": 90.0,
      "gamma": 106.81440614051029,
      "volume": 158.2078056440299
    },
    "properties": {},
    "sites": [
      {
        "species": [{ "element": "Zr", "occu": 1 }],
        "abc": [0.41467965, 0.8293583, 0.75],
        "properties": { "magmom": -0.0 },
        "label": "Zr",
        "xyz": [7.802345705076874e-7, 4.451629462251993, 6.814321357499999]
      },
      {
        "species": [{ "element": "Zr", "occu": 1 }],
        "abc": [0.58532035, 0.170641699999999, 0.25],
        "properties": { "magmom": -0.0 },
        "label": "Zr",
        "xyz": [1.6220314497654311, 0.9159293577480022, 2.2714404525]
      },
      {
        "species": [{ "element": "Zr", "occu": 1 }],
        "abc": [0.13467577, 0.26935254000000003, 0.94223347],
        "properties": { "magmom": -0.0 },
        "label": "Zr",
        "xyz": [-1.895426073150741e-6, 1.4457656031131707, 8.56090887782978]
      },
      {
        "species": [{ "element": "Zr", "occu": 1 }],
        "abc": [0.86532423, 0.73064746, 0.05776653],
        "properties": { "magmom": -0.0 },
        "label": "Zr",
        "xyz": [1.622034125426073, 3.92179321688683, 0.5248529321702193]
      },
      {
        "species": [{ "element": "Zr", "occu": 1 }],
        "abc": [0.86532423, 0.73064746, 0.44223347],
        "properties": { "magmom": -0.0 },
        "label": "Zr",
        "xyz": [1.622034125426073, 3.92179321688683, 4.01802797282978]
      },
      {
        "species": [{ "element": "Zr", "occu": 1 }],
        "abc": [0.13467577, 0.26935254000000003, 0.55776653],
        "properties": { "magmom": -0.0 },
        "label": "Zr",
        "xyz": [-1.895426073150741e-6, 1.4457656031131707, 5.067733837170219]
      },
      {
        "species": [{ "element": "Co", "occu": 1 }],
        "abc": [0.72382025, 0.447639499999999, 0.75],
        "properties": { "magmom": -0.0 },
        "label": "Co",
        "xyz": [1.6220344126791542, 2.4027313436435773, 6.814321357499999]
      },
      {
        "species": [{ "element": "Co", "occu": 1 }],
        "abc": [0.27617975, 0.552360499999999, 0.25],
        "properties": { "magmom": -0.0 },
        "label": "Co",
        "xyz": [-2.1826791508638976e-6, 2.964827476356412, 2.2714404525]
      }
    ]
  },
  "task_ids": null,
  "uncorrected_energy_per_atom": null,
  "energy_per_atom": -20.51912899625,
  "formation_energy_per_atom": -0.14822728500000001,
  "energy_above_hull": 0.017004411249999,
  "is_stable": false,
  "equilibrium_reaction_energy_per_atom": null,
  "decomposes_to": null,
  "xas": null,
  "grain_boundaries": null,
  "band_gap": 0.0,
  "cbm": null,
  "vbm": null,
  "efermi": 4.44754395,
  "is_gap_direct": null,
  "is_metal": null,
  "es_source_calc_id": null,
  "bandstructure": null,
  "dos": null,
  "dos_energy_up": null,
  "dos_energy_down": null,
  "is_magnetic": null,
  "ordering": null,
  "total_magnetization": 0.0001862,
  "total_magnetization_normalized_vol": null,
  "total_magnetization_normalized_formula_units": null,
  "num_magnetic_sites": null,
  "num_unique_magnetic_sites": null,
  "types_of_magnetic_species": null,
  "bulk_modulus": null,
  "shear_modulus": null,
  "universal_anisotropy": null,
  "homogeneous_poisson": null,
  "e_total": null,
  "e_ionic": null,
  "e_electronic": null,
  "n": null,
  "e_ij_max": null,
  "weighted_surface_energy_EV_PER_ANG2": null,
  "weighted_surface_energy": null,
  "weighted_work_function": null,
  "surface_anisotropy": null,
  "shape_factor": null,
  "has_reconstructed": null,
  "possible_species": null,
  "has_props": null,
  "theoretical": null,
  "database_IDs": null,
  "fields_not_requested": [
    "builder_meta",
    "nsites",
    "elements",
    "nelements",
    "composition",
    "composition_reduced",
    "chemsys",
    "symmetry",
    "property_name",
    "deprecated",
    "deprecation_reasons",
    "last_updated",
    "origins",
    "warnings",
    "task_ids",
    "uncorrected_energy_per_atom",
    "equilibrium_reaction_energy_per_atom",
    "decomposes_to",
    "xas",
    "grain_boundaries",
    "cbm",
    "vbm",
    "is_gap_direct",
    "is_metal",
    "es_source_calc_id",
    "bandstructure",
    "dos",
    "dos_energy_up",
    "dos_energy_down",
    "is_magnetic",
    "ordering",
    "total_magnetization_normalized_vol",
    "total_magnetization_normalized_formula_units",
    "num_magnetic_sites",
    "num_unique_magnetic_sites",
    "types_of_magnetic_species",
    "bulk_modulus",
    "shear_modulus",
    "universal_anisotropy",
    "homogeneous_poisson",
    "e_total",
    "e_ionic",
    "e_electronic",
    "n",
    "e_ij_max",
    "weighted_surface_energy_EV_PER_ANG2",
    "weighted_surface_energy",
    "weighted_work_function",
    "surface_anisotropy",
    "shape_factor",
    "has_reconstructed",
    "possible_species",
    "has_props",
    "theoretical",
    "database_IDs"
  ]
}
