{"builder_meta": null, "nsites": null, "elements": null, "nelements": null, "composition": null, "composition_reduced": null, "formula_pretty": "Zr3C", "formula_anonymous": "AB3", "chemsys": null, "volume": 139.83471663383907, "density": 6.784971506667596, "density_atomic": 17.479339579229883, "symmetry": null, "property_name": null, "material_id": "mp-1188023", "deprecated": null, "deprecation_reasons": null, "last_updated": null, "origins": null, "warnings": null, "structure": {"@module": "pymatgen.core.structure", "@class": "Structure", "charge": 0, "lattice": {"matrix": [[2.949629, -5.108907, 0.0], [2.949629, 5.108907, 0.0], [0.0, 0.0, 4.639697]], "pbc": [true, true, true], "a": 5.899257747572147, "b": 5.899257747572147, "c": 4.639697, "alpha": 90.0, "beta": 90.0, "gamma": 119.99999716905194, "volume": 139.83471663383907}, "properties": {}, "sites": [{"species": [{"element": "Zr", "occu": 1}], "abc": [0.175424, 0.350848999999999, 0.25], "properties": {"magmom": 0.0}, "label": "Zr", "xyz": [1.552310102716997, 0.8962300104749951, 1.15992425]}, {"species": [{"element": "Zr", "occu": 1}], "abc": [0.649150999999999, 0.824576, 0.25], "properties": {"magmom": 0.0}, "label": "Zr", "xyz": [4.346947897282997, 0.896230010475005, 1.15992425]}, {"species": [{"element": "Zr", "occu": 1}], "abc": [0.175424, 0.824576, 0.25], "properties": {"magmom": 0.0}, "label": "Zr", "xyz": [2.949629, 3.3164571968640004, 1.15992425]}, {"species": [{"element": "Zr", "occu": 1}], "abc": [0.824576, 0.649150999999999, 0.75], "properties": {"magmom": 0.0}, "label": "Zr", "xyz": [4.346947897282997, -0.896230010475005, 3.47977275]}, {"species": [{"element": "Zr", "occu": 1}], "abc": [0.350848999999999, 0.175424, 0.75], "properties": {"magmom": 0.0}, "label": "Zr", "xyz": [1.552310102716997, -0.8962300104749951, 3.47977275]}, {"species": [{"element": "Zr", "occu": 1}], "abc": [0.824576, 0.175424, 0.75], "properties": {"magmom": 0.0}, "label": "Zr", "xyz": [2.949629, -3.3164571968640004, 3.47977275]}, {"species": [{"element": "C", "occu": 1}], "abc": [0.333333, 0.666667, 0.75], "properties": {"magmom": 0.0}, "label": "C", "xyz": [2.949629, 1.7029724059380003, 3.47977275]}, {"species": [{"element": "C", "occu": 1}], "abc": [0.666667, 0.333333, 0.25], "properties": {"magmom": 0.0}, "label": "C", "xyz": [2.949629, -1.7029724059380003, 1.15992425]}]}, "task_ids": null, "uncorrected_energy_per_atom": null, "energy_per_atom": -7.98973882125, "formation_energy_per_atom": 0.7282030243749991, "energy_above_hull": 1.151086196249999, "is_stable": false, "equilibrium_reaction_energy_per_atom": null, "decomposes_to": null, "xas": null, "grain_boundaries": null, "band_gap": 0.0, "cbm": null, "vbm": null, "efermi": 5.02973132, "is_gap_direct": null, "is_metal": null, "es_source_calc_id": null, "bandstructure": null, "dos": null, "dos_energy_up": null, "dos_energy_down": null, "is_magnetic": null, "ordering": null, "total_magnetization": 0.0003158, "total_magnetization_normalized_vol": null, "total_magnetization_normalized_formula_units": null, "num_magnetic_sites": null, "num_unique_magnetic_sites": null, "types_of_magnetic_species": null, "bulk_modulus": null, "shear_modulus": null, "universal_anisotropy": null, "homogeneous_poisson": null, "e_total": null, "e_ionic": null, "e_electronic": null, "n": null, "e_ij_max": null, "weighted_surface_energy_EV_PER_ANG2": null, "weighted_surface_energy": null, "weighted_work_function": null, "surface_anisotropy": null, "shape_factor": null, "has_reconstructed": null, "possible_species": null, "has_props": null, "theoretical": null, "database_IDs": null, "fields_not_requested": ["builder_meta", "nsites", "elements", "nelements", "composition", "composition_reduced", "chemsys", "symmetry", "property_name", "deprecated", "deprecation_reasons", "last_updated", "origins", "warnings", "task_ids", "uncorrected_energy_per_atom", "equilibrium_reaction_energy_per_atom", "decomposes_to", "xas", "grain_boundaries", "cbm", "vbm", "is_gap_direct", "is_metal", "es_source_calc_id", "bandstructure", "dos", "dos_energy_up", "dos_energy_down", "is_magnetic", "ordering", "total_magnetization_normalized_vol", "total_magnetization_normalized_formula_units", "num_magnetic_sites", "num_unique_magnetic_sites", "types_of_magnetic_species", "bulk_modulus", "shear_modulus", "universal_anisotropy", "homogeneous_poisson", "e_total", "e_ionic", "e_electronic", "n", "e_ij_max", "weighted_surface_energy_EV_PER_ANG2", "weighted_surface_energy", "weighted_work_function", "surface_anisotropy", "shape_factor", "has_reconstructed", "possible_species", "has_props", "theoretical", "database_IDs"]}