{"builder_meta": null, "nsites": null, "elements": null, "nelements": null, "composition": null, "composition_reduced": null, "formula_pretty": "Zr3Cl", "formula_anonymous": "AB3", "chemsys": null, "volume": 174.08147508996973, "density": 5.89740107265786, "density_atomic": 21.760184386246216, "symmetry": null, "property_name": null, "material_id": "mp-1188032", "deprecated": null, "deprecation_reasons": null, "last_updated": null, "origins": null, "warnings": null, "structure": {"@module": "pymatgen.core.structure", "@class": "Structure", "charge": 0, "lattice": {"matrix": [[3.05365, -5.289077, 0.0], [3.05365, 5.289077, 0.0], [0.0, 0.0, 5.389189]], "pbc": [true, true, true], "a": 6.107300044571987, "b": 6.107300044571987, "c": 5.389189, "alpha": 90.0, "beta": 90.0, "gamma": 120.00000048284167, "volume": 174.08147508996973}, "properties": {}, "sites": [{"species": [{"element": "Zr", "occu": 1}], "abc": [0.162195, 0.32439, 0.25], "properties": {"magmom": -0.0}, "label": "Zr", "xyz": [1.48586028525, 0.857861844015, 1.34729725]}, {"species": [{"element": "Zr", "occu": 1}], "abc": [0.67561, 0.837804999999999, 0.25], "properties": {"magmom": -0.0}, "label": "Zr", "xyz": [4.6214397147499975, 0.8578618440149945, 1.34729725]}, {"species": [{"element": "Zr", "occu": 1}], "abc": [0.162195, 0.837804999999999, 0.25], "properties": {"magmom": -0.0}, "label": "Zr", "xyz": [3.053649999999997, 3.5733533119699947, 1.34729725]}, {"species": [{"element": "Zr", "occu": 1}], "abc": [0.837804999999999, 0.67561, 0.75], "properties": {"magmom": -0.0}, "label": "Zr", "xyz": [4.6214397147499975, -0.8578618440149945, 4.04189175]}, {"species": [{"element": "Zr", "occu": 1}], "abc": [0.32439, 0.162195, 0.75], "properties": {"magmom": -0.0}, "label": "Zr", "xyz": [1.48586028525, -0.857861844015, 4.04189175]}, {"species": [{"element": "Zr", "occu": 1}], "abc": [0.837804999999999, 0.162195, 0.75], "properties": {"magmom": -0.0}, "label": "Zr", "xyz": [3.053649999999997, -3.5733533119699947, 4.04189175]}, {"species": [{"element": "Cl", "occu": 1}], "abc": [0.333333, 0.666667, 0.75], "properties": {"magmom": 0.0}, "label": "Cl", "xyz": [3.05365, 1.7630291927180002, 4.04189175]}, {"species": [{"element": "Cl", "occu": 1}], "abc": [0.666667, 0.333333, 0.25], "properties": {"magmom": 0.0}, "label": "Cl", "xyz": [3.05365, -1.7630291927180002, 1.34729725]}]}, "task_ids": null, "uncorrected_energy_per_atom": null, "energy_per_atom": -18.489331582499997, "formation_energy_per_atom": 0.11112207062500401, "energy_above_hull": 0.8496028062500011, "is_stable": false, "equilibrium_reaction_energy_per_atom": null, "decomposes_to": null, "xas": null, "grain_boundaries": null, "band_gap": 0.0, "cbm": null, "vbm": null, "efermi": 5.20475568, "is_gap_direct": null, "is_metal": null, "es_source_calc_id": null, "bandstructure": null, "dos": null, "dos_energy_up": null, "dos_energy_down": null, "is_magnetic": null, "ordering": null, "total_magnetization": 0.003979499999999, "total_magnetization_normalized_vol": null, "total_magnetization_normalized_formula_units": null, "num_magnetic_sites": null, "num_unique_magnetic_sites": null, "types_of_magnetic_species": null, "bulk_modulus": null, "shear_modulus": null, "universal_anisotropy": null, "homogeneous_poisson": null, "e_total": null, "e_ionic": null, "e_electronic": null, "n": null, "e_ij_max": null, "weighted_surface_energy_EV_PER_ANG2": null, "weighted_surface_energy": null, "weighted_work_function": null, "surface_anisotropy": null, "shape_factor": null, "has_reconstructed": null, "possible_species": null, "has_props": null, "theoretical": null, "database_IDs": null, "fields_not_requested": ["builder_meta", "nsites", "elements", "nelements", "composition", "composition_reduced", "chemsys", "symmetry", "property_name", "deprecated", "deprecation_reasons", "last_updated", "origins", "warnings", "task_ids", "uncorrected_energy_per_atom", "equilibrium_reaction_energy_per_atom", "decomposes_to", "xas", "grain_boundaries", "cbm", "vbm", "is_gap_direct", "is_metal", "es_source_calc_id", "bandstructure", "dos", "dos_energy_up", "dos_energy_down", "is_magnetic", "ordering", "total_magnetization_normalized_vol", "total_magnetization_normalized_formula_units", "num_magnetic_sites", "num_unique_magnetic_sites", "types_of_magnetic_species", "bulk_modulus", "shear_modulus", "universal_anisotropy", "homogeneous_poisson", "e_total", "e_ionic", "e_electronic", "n", "e_ij_max", "weighted_surface_energy_EV_PER_ANG2", "weighted_surface_energy", "weighted_work_function", "surface_anisotropy", "shape_factor", "has_reconstructed", "possible_species", "has_props", "theoretical", "database_IDs"]}