{
  "builder_meta": null,
  "nsites": null,
  "elements": null,
  "nelements": null,
  "composition": null,
  "composition_reduced": null,
  "formula_pretty": "Zr3Fe",
  "formula_anonymous": "AB3",
  "chemsys": null,
  "volume": 159.6591087384036,
  "density": 6.8543017173591085,
  "density_atomic": 19.95738859230045,
  "symmetry": null,
  "property_name": null,
  "material_id": "mp-31205",
  "deprecated": null,
  "deprecation_reasons": null,
  "last_updated": null,
  "origins": null,
  "warnings": null,
  "structure": {
    "@module": "pymatgen.core.structure",
    "@class": "Structure",
    "charge": 0,
    "lattice": {
      "matrix": [
        [3.26272192, 0.0, 0.0],
        [-1.631360959999999, 5.46337298, 0.00019841],
        [0.0, 0.00030894, 8.95679821]
      ],
      "pbc": [true, true, true],
      "a": 3.26272192,
      "b": 5.701735081514462,
      "c": 8.956798215328016,
      "alpha": 89.99611256952456,
      "beta": 90.0,
      "gamma": 106.62560369051026,
      "volume": 159.65910873840363
    },
    "properties": {},
    "sites": [
      {
        "species": [{ "element": "Zr", "occu": 1 }],
        "abc": [0.41931451000000003, 0.83862601, 0.74982474],
        "properties": { "magmom": -0.0 },
        "label": "Zr",
        "xyz": [4.91039649053171e-6, 4.581958334214385, 6.71619528083236]
      },
      {
        "species": [{ "element": "Zr", "occu": 1 }],
        "abc": [0.58073633, 0.16147366, 0.25017591],
        "properties": { "magmom": 0.0 },
        "label": "Zr",
        "xyz": [1.6313593286390402, 0.8822681203713422, 2.2408071808620016]
      },
      {
        "species": [{ "element": "Zr", "occu": 1 }],
        "abc": [0.13839774, 0.27679547, 0.93791552],
        "properties": { "magmom": -0.0 },
        "label": "Zr",
        "xyz": [1.631360990739239e-8, 1.5125266514051492, 8.400774969656423]
      },
      {
        "species": [{ "element": "Zr", "occu": 1 }],
        "abc": [0.86158036, 0.72315971, 0.061934899999999],
        "properties": { "magmom": 0.0 },
        "label": "Zr",
        "xyz": [1.6313626076745706, 3.9509103540066417, 0.5548818835745812]
      },
      {
        "species": [{ "element": "Zr", "occu": 1 }],
        "abc": [0.86157563, 0.72315227, 0.43821415],
        "properties": { "magmom": 0.0 },
        "label": "Zr",
        "xyz": [1.631359312325431, 3.950985954223166, 3.925139194958563]
      },
      {
        "species": [{ "element": "Zr", "occu": 1 }],
        "abc": [0.13839804, 0.27679509, 0.56193859],
        "properties": { "magmom": -0.0 },
        "label": "Zr",
        "xyz": [1.6150473506892915e-6, 1.512408421010663, 5.0332254759557316]
      },
      {
        "species": [{ "element": "Fe", "occu": 1 }],
        "abc": [0.7327351400000001, 0.46547027, 0.74981871],
        "properties": { "magmom": 0.0 },
        "label": "Fe",
        "xyz": [1.6313609763136103, 2.543269345103572, 6.71606723350878]
      },
      {
        "species": [{ "element": "Fe", "occu": 1 }],
        "abc": [0.26726325, 0.53452551, 0.25018048],
        "properties": { "magmom": -0.0 },
        "label": "Fe",
        "xyz": [1.6150473509668473e-6, 2.920389519212211, 2.24092213064738]
      }
    ]
  },
  "task_ids": null,
  "uncorrected_energy_per_atom": null,
  "energy_per_atom": -8.63774837,
  "formation_energy_per_atom": -0.10946759500000101,
  "energy_above_hull": 0.0,
  "is_stable": true,
  "equilibrium_reaction_energy_per_atom": null,
  "decomposes_to": null,
  "xas": null,
  "grain_boundaries": null,
  "band_gap": 0.0,
  "cbm": null,
  "vbm": null,
  "efermi": 4.40483887,
  "is_gap_direct": null,
  "is_metal": null,
  "es_source_calc_id": null,
  "bandstructure": null,
  "dos": null,
  "dos_energy_up": null,
  "dos_energy_down": null,
  "is_magnetic": null,
  "ordering": null,
  "total_magnetization": 2.299999999999998e-6,
  "total_magnetization_normalized_vol": null,
  "total_magnetization_normalized_formula_units": null,
  "num_magnetic_sites": null,
  "num_unique_magnetic_sites": null,
  "types_of_magnetic_species": null,
  "bulk_modulus": null,
  "shear_modulus": null,
  "universal_anisotropy": null,
  "homogeneous_poisson": null,
  "e_total": null,
  "e_ionic": null,
  "e_electronic": null,
  "n": null,
  "e_ij_max": null,
  "weighted_surface_energy_EV_PER_ANG2": null,
  "weighted_surface_energy": null,
  "weighted_work_function": null,
  "surface_anisotropy": null,
  "shape_factor": null,
  "has_reconstructed": null,
  "possible_species": null,
  "has_props": null,
  "theoretical": null,
  "database_IDs": null,
  "fields_not_requested": [
    "builder_meta",
    "nsites",
    "elements",
    "nelements",
    "composition",
    "composition_reduced",
    "chemsys",
    "symmetry",
    "property_name",
    "deprecated",
    "deprecation_reasons",
    "last_updated",
    "origins",
    "warnings",
    "task_ids",
    "uncorrected_energy_per_atom",
    "equilibrium_reaction_energy_per_atom",
    "decomposes_to",
    "xas",
    "grain_boundaries",
    "cbm",
    "vbm",
    "is_gap_direct",
    "is_metal",
    "es_source_calc_id",
    "bandstructure",
    "dos",
    "dos_energy_up",
    "dos_energy_down",
    "is_magnetic",
    "ordering",
    "total_magnetization_normalized_vol",
    "total_magnetization_normalized_formula_units",
    "num_magnetic_sites",
    "num_unique_magnetic_sites",
    "types_of_magnetic_species",
    "bulk_modulus",
    "shear_modulus",
    "universal_anisotropy",
    "homogeneous_poisson",
    "e_total",
    "e_ionic",
    "e_electronic",
    "n",
    "e_ij_max",
    "weighted_surface_energy_EV_PER_ANG2",
    "weighted_surface_energy",
    "weighted_work_function",
    "surface_anisotropy",
    "shape_factor",
    "has_reconstructed",
    "possible_species",
    "has_props",
    "theoretical",
    "database_IDs"
  ]
}
