{
  "builder_meta": null,
  "nsites": null,
  "elements": null,
  "nelements": null,
  "composition": null,
  "composition_reduced": null,
  "formula_pretty": "Zr3Ga2",
  "formula_anonymous": "A2B3",
  "chemsys": null,
  "volume": 199.2244628042555,
  "density": 6.8866902031973325,
  "density_atomic": 19.92244628042555,
  "symmetry": null,
  "property_name": null,
  "material_id": "mp-30684",
  "deprecated": null,
  "deprecation_reasons": null,
  "last_updated": null,
  "origins": null,
  "warnings": null,
  "structure": {
    "@module": "pymatgen.core.structure",
    "@class": "Structure",
    "charge": 0,
    "lattice": {
      "matrix": [
        [3.70419811, 0.0, 0.0],
        [-0.0, 7.33371839, 0.0],
        [0.0, 0.0, 7.33371839]
      ],
      "pbc": [true, true, true],
      "a": 3.70419811,
      "b": 7.33371839,
      "c": 7.33371839,
      "alpha": 90.0,
      "beta": 90.0,
      "gamma": 90.0,
      "volume": 199.2244628042555
    },
    "properties": {},
    "sites": [
      {
        "species": [{ "element": "Zr", "occu": 1 }],
        "abc": [0.0, -0.0, 0.0],
        "properties": { "magmom": 0.0 },
        "label": "Zr",
        "xyz": [0.0, 0.0, 0.0]
      },
      {
        "species": [{ "element": "Zr", "occu": 1 }],
        "abc": [0.0, 0.5, 0.5],
        "properties": { "magmom": 0.0 },
        "label": "Zr",
        "xyz": [0.0, 3.666859195, 3.666859195]
      },
      {
        "species": [{ "element": "Zr", "occu": 1 }],
        "abc": [0.5, 0.176541199999999, 0.6765412],
        "properties": { "magmom": 0.0 },
        "label": "Zr",
        "xyz": [1.852099055, 1.2947034450326607, 4.961562640032668]
      },
      {
        "species": [{ "element": "Zr", "occu": 1 }],
        "abc": [0.5, 0.3234588, 0.176541199999999],
        "properties": { "magmom": 0.0 },
        "label": "Zr",
        "xyz": [1.852099055, 2.3721557499673316, 1.2947034450326607]
      },
      {
        "species": [{ "element": "Zr", "occu": 1 }],
        "abc": [0.5, 0.6765412, 0.823458799999999],
        "properties": { "magmom": 0.0 },
        "label": "Zr",
        "xyz": [1.852099055, 4.961562640032668, 6.039014944967325]
      },
      {
        "species": [{ "element": "Zr", "occu": 1 }],
        "abc": [0.5, 0.823458799999999, 0.3234588],
        "properties": { "magmom": 0.0 },
        "label": "Zr",
        "xyz": [1.852099055, 6.039014944967325, 2.3721557499673316]
      },
      {
        "species": [{ "element": "Ga", "occu": 1 }],
        "abc": [-0.0, 0.3769739, 0.8769739],
        "properties": { "magmom": -0.0 },
        "label": "Ga",
        "xyz": [0.0, 2.7646204229800206, 6.43147961798002]
      },
      {
        "species": [{ "element": "Ga", "occu": 1 }],
        "abc": [0.0, 0.1230261, 0.3769739],
        "properties": { "magmom": -0.0 },
        "label": "Ga",
        "xyz": [0.0, 0.9022387720199789, 2.7646204229800206]
      },
      {
        "species": [{ "element": "Ga", "occu": 1 }],
        "abc": [-0.0, 0.8769739, 0.6230261],
        "properties": { "magmom": -0.0 },
        "label": "Ga",
        "xyz": [0.0, 6.43147961798002, 4.569097967019979]
      },
      {
        "species": [{ "element": "Ga", "occu": 1 }],
        "abc": [0.0, 0.6230261, 0.1230261],
        "properties": { "magmom": -0.0 },
        "label": "Ga",
        "xyz": [0.0, 4.569097967019979, 0.9022387720199789]
      }
    ]
  },
  "task_ids": null,
  "uncorrected_energy_per_atom": null,
  "energy_per_atom": -18.845269284,
  "formation_energy_per_atom": -0.618283761,
  "energy_above_hull": 0.0,
  "is_stable": true,
  "equilibrium_reaction_energy_per_atom": null,
  "decomposes_to": null,
  "xas": null,
  "grain_boundaries": null,
  "band_gap": 0.0,
  "cbm": null,
  "vbm": null,
  "efermi": 3.93082148,
  "is_gap_direct": null,
  "is_metal": null,
  "es_source_calc_id": null,
  "bandstructure": null,
  "dos": null,
  "dos_energy_up": null,
  "dos_energy_down": null,
  "is_magnetic": null,
  "ordering": null,
  "total_magnetization": 0.0016623,
  "total_magnetization_normalized_vol": null,
  "total_magnetization_normalized_formula_units": null,
  "num_magnetic_sites": null,
  "num_unique_magnetic_sites": null,
  "types_of_magnetic_species": null,
  "bulk_modulus": null,
  "shear_modulus": null,
  "universal_anisotropy": null,
  "homogeneous_poisson": null,
  "e_total": null,
  "e_ionic": null,
  "e_electronic": null,
  "n": null,
  "e_ij_max": null,
  "weighted_surface_energy_EV_PER_ANG2": null,
  "weighted_surface_energy": null,
  "weighted_work_function": null,
  "surface_anisotropy": null,
  "shape_factor": null,
  "has_reconstructed": null,
  "possible_species": null,
  "has_props": null,
  "theoretical": null,
  "database_IDs": null,
  "fields_not_requested": [
    "builder_meta",
    "nsites",
    "elements",
    "nelements",
    "composition",
    "composition_reduced",
    "chemsys",
    "symmetry",
    "property_name",
    "deprecated",
    "deprecation_reasons",
    "last_updated",
    "origins",
    "warnings",
    "task_ids",
    "uncorrected_energy_per_atom",
    "equilibrium_reaction_energy_per_atom",
    "decomposes_to",
    "xas",
    "grain_boundaries",
    "cbm",
    "vbm",
    "is_gap_direct",
    "is_metal",
    "es_source_calc_id",
    "bandstructure",
    "dos",
    "dos_energy_up",
    "dos_energy_down",
    "is_magnetic",
    "ordering",
    "total_magnetization_normalized_vol",
    "total_magnetization_normalized_formula_units",
    "num_magnetic_sites",
    "num_unique_magnetic_sites",
    "types_of_magnetic_species",
    "bulk_modulus",
    "shear_modulus",
    "universal_anisotropy",
    "homogeneous_poisson",
    "e_total",
    "e_ionic",
    "e_electronic",
    "n",
    "e_ij_max",
    "weighted_surface_energy_EV_PER_ANG2",
    "weighted_surface_energy",
    "weighted_work_function",
    "surface_anisotropy",
    "shape_factor",
    "has_reconstructed",
    "possible_species",
    "has_props",
    "theoretical",
    "database_IDs"
  ]
}
