{
  "builder_meta": null,
  "nsites": null,
  "elements": null,
  "nelements": null,
  "composition": null,
  "composition_reduced": null,
  "formula_pretty": "Zr3Ga5",
  "formula_anonymous": "A3B5",
  "chemsys": null,
  "volume": 283.8463905143674,
  "density": 7.280923123699262,
  "density_atomic": 17.74039940714796,
  "symmetry": null,
  "property_name": null,
  "material_id": "mp-1207393",
  "deprecated": null,
  "deprecation_reasons": null,
  "last_updated": null,
  "origins": null,
  "warnings": null,
  "structure": {
    "@module": "pymatgen.core.structure",
    "@class": "Structure",
    "charge": 0,
    "lattice": {
      "matrix": [
        [4.43664998, 3.554126059999999, -7.948e-5],
        [-4.43664896, 3.55412503, -7.846e-5],
        [-1.02e-6, -0.00019457, 9.00047642]
      ],
      "pbc": [true, true, true],
      "a": 5.68468777521881,
      "b": 5.684686335172553,
      "c": 9.000476422103139,
      "alpha": 90.00156011735452,
      "beta": 90.00158053301108,
      "gamma": 102.60473413874402,
      "volume": 283.8463905143673
    },
    "properties": {},
    "sites": [
      {
        "species": [{ "element": "Zr", "occu": 1 }],
        "abc": [0.204465999999999, 0.795535, 0.0],
        "properties": { "magmom": 0.0 },
        "label": "Zr",
        "xyz": [-2.6223654555829246, 3.554128794725006, -7.866863377999992e-5]
      },
      {
        "species": [{ "element": "Zr", "occu": 1 }],
        "abc": [0.795534, 0.204465999999999, -0.0],
        "properties": { "magmom": 0.0 },
        "label": "Zr",
        "xyz": [2.6223620389339644, 3.554125849400015, -7.927144467999993e-5]
      },
      {
        "species": [{ "element": "Zr", "occu": 1 }],
        "abc": [0.79552515, 0.20447485, 0.5],
        "properties": { "magmom": 0.0 },
        "label": "Zr",
        "xyz": [2.6222830002383413, 3.5540285643909035, 4.500158938564347]
      },
      {
        "species": [{ "element": "Zr", "occu": 1 }],
        "abc": [0.20447485, 0.79552515, 0.5],
        "properties": { "magmom": 0.0 },
        "label": "Zr",
        "xyz": [-2.622283000238341, 3.5540279556090955, 4.500159541435653]
      },
      {
        "species": [{ "element": "Zr", "occu": 1 }],
        "abc": [0.64048478, 0.64048478, 0.24995547],
        "properties": { "magmom": -0.0 },
        "label": "Zr",
        "xyz": [3.9833989644971944e-7, 4.552678001727611, 2.249617155618864]
      },
      {
        "species": [{ "element": "Zr", "occu": 1 }],
        "abc": [0.35951522, 0.35951522, 0.75004453],
        "properties": { "magmom": -0.0 },
        "label": "Zr",
        "xyz": [-3.983398962094463e-7, 2.5553785182723874, 6.7507013243811365]
      },
      {
        "species": [{ "element": "Ga", "occu": 1 }],
        "abc": [0.49550991, 0.08008107, 0.24996119],
        "properties": { "magmom": 0.0 },
        "label": "Ga",
        "xyz": [1.843112181399701, 2.0456741844866984, 2.2497241302217406]
      },
      {
        "species": [{ "element": "Ga", "occu": 1 }],
        "abc": [0.50449009, 0.91991893, 0.7500388100000001],
        "properties": { "magmom": 0.0 },
        "label": "Ga",
        "xyz": [-1.843112181399701, 5.062382335513301, 6.75059434977826]
      },
      {
        "species": [{ "element": "Ga", "occu": 1 }],
        "abc": [0.08008107, 0.49550891, 0.24996119],
        "properties": { "magmom": 0.0 },
        "label": "Ga",
        "xyz": [-1.8431076675687692, 2.0456702024699633, 2.2497245540376176]
      },
      {
        "species": [{ "element": "Ga", "occu": 1 }],
        "abc": [0.91991793, 0.50449009, 0.7500388100000001],
        "properties": { "magmom": 0.0 },
        "label": "Ga",
        "xyz": [1.8431076675677487, 5.062379209278945, 6.750593926120323]
      },
      {
        "species": [{ "element": "Ga", "occu": 1 }],
        "abc": [0.02089012, 0.02089012, 0.24993082],
        "properties": { "magmom": -0.0 },
        "label": "Ga",
        "xyz": [-2.3362151400126106e-7, 0.1484435892205834, 2.249493152655712]
      },
      {
        "species": [{ "element": "Ga", "occu": 1 }],
        "abc": [0.97910988, 0.97911088, 0.75006918],
        "properties": { "magmom": -0.0 },
        "label": "Ga",
        "xyz": [-4.203027446334738e-6, 6.959616484904445, 6.7508253272658285]
      },
      {
        "species": [{ "element": "Ga", "occu": 1 }],
        "abc": [0.31725143, 0.31725143, 0.05077249],
        "properties": { "magmom": 0.0 },
        "label": "Ga",
        "xyz": [2.718085187179829e-7, 2.255092944298179, 0.45692649233883165]
      },
      {
        "species": [{ "element": "Ga", "occu": 1 }],
        "abc": [0.68274857, 0.68274857, 0.94922651],
        "properties": { "magmom": 0.0 },
        "label": "Ga",
        "xyz": [-2.7180749914384364e-7, 4.852963575896389, 8.54338298718475]
      },
      {
        "species": [{ "element": "Ga", "occu": 1 }],
        "abc": [0.68271983, 0.68271983, 0.55077506],
        "properties": { "magmom": -0.0 },
        "label": "Ga",
        "xyz": [1.3458366552741426e-7, 4.85283681145869, 4.957130111484135]
      },
      {
        "species": [{ "element": "Ga", "occu": 1 }],
        "abc": [0.31728017000000003, 0.31728017000000003, 0.44922594],
        "properties": { "magmom": -0.0 },
        "label": "Ga",
        "xyz": [-1.3458468528714103e-7, 2.2552197083467393, 4.043197368992285]
      }
    ]
  },
  "task_ids": null,
  "uncorrected_energy_per_atom": null,
  "energy_per_atom": -16.3602897625,
  "formation_energy_per_atom": -0.677382829374998,
  "energy_above_hull": 0.0,
  "is_stable": true,
  "equilibrium_reaction_energy_per_atom": null,
  "decomposes_to": null,
  "xas": null,
  "grain_boundaries": null,
  "band_gap": 0.0,
  "cbm": null,
  "vbm": null,
  "efermi": 4.65511294,
  "is_gap_direct": null,
  "is_metal": null,
  "es_source_calc_id": null,
  "bandstructure": null,
  "dos": null,
  "dos_energy_up": null,
  "dos_energy_down": null,
  "is_magnetic": null,
  "ordering": null,
  "total_magnetization": 0.0,
  "total_magnetization_normalized_vol": null,
  "total_magnetization_normalized_formula_units": null,
  "num_magnetic_sites": null,
  "num_unique_magnetic_sites": null,
  "types_of_magnetic_species": null,
  "bulk_modulus": null,
  "shear_modulus": null,
  "universal_anisotropy": null,
  "homogeneous_poisson": null,
  "e_total": null,
  "e_ionic": null,
  "e_electronic": null,
  "n": null,
  "e_ij_max": null,
  "weighted_surface_energy_EV_PER_ANG2": null,
  "weighted_surface_energy": null,
  "weighted_work_function": null,
  "surface_anisotropy": null,
  "shape_factor": null,
  "has_reconstructed": null,
  "possible_species": null,
  "has_props": null,
  "theoretical": null,
  "database_IDs": null,
  "fields_not_requested": [
    "builder_meta",
    "nsites",
    "elements",
    "nelements",
    "composition",
    "composition_reduced",
    "chemsys",
    "symmetry",
    "property_name",
    "deprecated",
    "deprecation_reasons",
    "last_updated",
    "origins",
    "warnings",
    "task_ids",
    "uncorrected_energy_per_atom",
    "equilibrium_reaction_energy_per_atom",
    "decomposes_to",
    "xas",
    "grain_boundaries",
    "cbm",
    "vbm",
    "is_gap_direct",
    "is_metal",
    "es_source_calc_id",
    "bandstructure",
    "dos",
    "dos_energy_up",
    "dos_energy_down",
    "is_magnetic",
    "ordering",
    "total_magnetization_normalized_vol",
    "total_magnetization_normalized_formula_units",
    "num_magnetic_sites",
    "num_unique_magnetic_sites",
    "types_of_magnetic_species",
    "bulk_modulus",
    "shear_modulus",
    "universal_anisotropy",
    "homogeneous_poisson",
    "e_total",
    "e_ionic",
    "e_electronic",
    "n",
    "e_ij_max",
    "weighted_surface_energy_EV_PER_ANG2",
    "weighted_surface_energy",
    "weighted_work_function",
    "surface_anisotropy",
    "shape_factor",
    "has_reconstructed",
    "possible_species",
    "has_props",
    "theoretical",
    "database_IDs"
  ]
}
