{
  "builder_meta": null,
  "nsites": null,
  "elements": null,
  "nelements": null,
  "composition": null,
  "composition_reduced": null,
  "formula_pretty": "Zr3Ge",
  "formula_anonymous": "AB3",
  "chemsys": null,
  "volume": 675.2582318514669,
  "density": 6.812974096213588,
  "density_atomic": 21.10181974535834,
  "symmetry": null,
  "property_name": null,
  "material_id": "mp-1203324",
  "deprecated": null,
  "deprecation_reasons": null,
  "last_updated": null,
  "origins": null,
  "warnings": null,
  "structure": {
    "@module": "pymatgen.core.structure",
    "@class": "Structure",
    "charge": 0,
    "lattice": {
      "matrix": [
        [-2.9460000000000003e-5, 2.611e-5, 5.47230215],
        [11.10850615, 0.00012026, -6.1020000000000015e-5],
        [0.00027251, 11.10821198, 5.4640000000000005e-5]
      ],
      "pbc": [true, true, true],
      "a": 5.472302150141588,
      "b": 11.108506150818558,
      "c": 11.108211983477034,
      "alpha": 89.99797412367616,
      "beta": 89.99944480090338,
      "gamma": 90.00062317816744,
      "volume": 675.2582318514669
    },
    "properties": {},
    "sites": [
      {
        "species": [{ "element": "Zr", "occu": 1 }],
        "abc": [0.7834492, 0.85627981, 0.16807869],
        "properties": { "magmom": 0.0 },
        "label": "Zr",
        "xyz": [9.512012258216211, 1.8671771499092689, 4.287227675201395]
      },
      {
        "species": [{ "element": "Zr", "occu": 1 }],
        "abc": [0.7834657700000001, 0.64374219, 0.33187464],
        "properties": { "magmom": -0.0 },
        "label": "Zr",
        "xyz": [7.151081434886032, 3.6866317246332114, 4.287340270104302]
      },
      {
        "species": [{ "element": "Zr", "occu": 1 }],
        "abc": [0.28352441, 0.66809095, 0.14374442],
        "properties": { "magmom": 0.0 },
        "label": "Zr",
        "xyz": [7.421523245997117, 1.596831235742144, 1.5514983257058212]
      },
      {
        "species": [{ "element": "Zr", "occu": 1 }],
        "abc": [0.28354351, 0.83193534, 0.35622172],
        "properties": { "magmom": -0.0 },
        "label": "Zr",
        "xyz": [9.241647561581456, 3.9570938295052405, 1.5516044586518805]
      },
      {
        "species": [{ "element": "Zr", "occu": 1 }],
        "abc": [0.21652785, 0.14376731, 0.83191074],
        "properties": { "magmom": -0.0 },
        "label": "Zr",
        "xyz": [1.597260372389253, 9.24106379135753, 1.1849425020114548]
      },
      {
        "species": [{ "element": "Zr", "occu": 1 }],
        "abc": [0.21650707, 0.3561986, 0.66811082],
        "properties": { "magmom": 0.0 },
        "label": "Zr",
        "xyz": [3.957010027302666, 7.421565104134857, 1.184806874987833]
      },
      {
        "species": [{ "element": "Zr", "occu": 1 }],
        "abc": [0.71649608, 0.33188525, 0.85624447],
        "properties": { "magmom": -0.0 },
        "label": "Zr",
        "xyz": [3.6869615679252905, 9.511403699695565, 3.9209095726104577]
      },
      {
        "species": [{ "element": "Zr", "occu": 1 }],
        "abc": [0.71647476, 0.16809718, 0.6437664],
        "properties": { "magmom": 0.0 },
        "label": "Zr",
        "xyz": [1.8674628832628917, 7.151132559324322, 3.920791287674906]
      },
      {
        "species": [{ "element": "Zr", "occu": 1 }],
        "abc": [0.97143862, 0.22342729, 0.11027632],
        "properties": { "magmom": -0.0 },
        "label": "Zr",
        "xyz": [2.4819448578610515, 1.2250249725625773, 5.315998040783922]
      },
      {
        "species": [{ "element": "Zr", "occu": 1 }],
        "abc": [0.97144534, 0.27655317, 0.389704699999999],
        "properties": { "magmom": 0.0 },
        "label": "Zr",
        "xyz": [3.0721701693950765, 4.328981039924347, 5.316046840879856]
      },
      {
        "species": [{ "element": "Zr", "occu": 1 }],
        "abc": [0.47144408, 0.61027058, 0.77659824],
        "properties": { "magmom": 0.0 },
        "label": "Zr",
        "xyz": [6.779392233137853, 8.626703573759794, 2.5798896472058144]
      },
      {
        "species": [{ "element": "Zr", "occu": 1 }],
        "abc": [0.47144395, 0.88973946, 0.72344715],
        "properties": { "magmom": -0.0 },
        "label": "Zr",
        "xyz": [9.88385952115176, 8.036323607995852, 2.579868978439919]
      },
      {
        "species": [{ "element": "Zr", "occu": 1 }],
        "abc": [0.02855078, 0.77656557, 0.88973359],
        "properties": { "magmom": 0.0 },
        "label": "Zr",
        "xyz": [8.626725030417887, 9.883443458682722, 0.1562397237904532]
      },
      {
        "species": [{ "element": "Zr", "occu": 1 }],
        "abc": [0.028546699999999002, 0.72345017, 0.61030913],
        "properties": { "magmom": -0.0 },
        "label": "Zr",
        "xyz": [8.036616137018779, 6.779530936841159, 0.15620537014688934]
      },
      {
        "species": [{ "element": "Zr", "occu": 1 }],
        "abc": [0.52856053, 0.389687599999999, 0.22341935000000002],
        "properties": { "magmom": -0.0 },
        "label": "Zr",
        "xyz": [4.328892413792584, 2.4818501647800275, 2.892431353620071]
      },
      {
        "species": [{ "element": "Zr", "occu": 1 }],
        "abc": [0.52855958, 0.11030625000000001, 0.27654974],
        "properties": { "magmom": 0.0 },
        "label": "Zr",
        "xyz": [1.2253974477128582, 3.072000201054144, 2.8924461058275157]
      },
      {
        "species": [{ "element": "Zr", "occu": 1 }],
        "abc": [0.25698698000000003, 0.96594228, 0.06970624],
        "properties": { "magmom": 0.0 },
        "label": "Zr",
        "xyz": [10.730187182736055, 0.7744345643973959, 1.4062552701270352]
      },
      {
        "species": [{ "element": "Zr", "occu": 1 }],
        "abc": [0.25698166, 0.53404031, 0.43027105],
        "properties": { "magmom": -0.0 },
        "label": "Zr",
        "xyz": [5.932499750467038, 4.7796129657360025, 1.4062722133990249]
      },
      {
        "species": [{ "element": "Zr", "occu": 1 }],
        "abc": [0.7569445300000001, 0.5696859, 0.03405984],
        "properties": { "magmom": 0.0 },
        "label": "Zr",
        "xyz": [6.32834630577943, 0.3784321969728955, 4.1421962777457795]
      },
      {
        "species": [{ "element": "Zr", "occu": 1 }],
        "abc": [0.75694293, 0.9303442900000001, 0.46594081],
        "properties": { "magmom": -0.0 },
        "label": "Zr",
        "xyz": [10.334839941073799, 5.175900934597122, 4.142189112663582]
      },
      {
        "species": [{ "element": "Zr", "occu": 1 }],
        "abc": [0.74302741, 0.0340722, 0.93029911],
        "properties": { "magmom": -0.0 },
        "label": "Zr",
        "xyz": [0.3787228694669975, 10.333983216653785, 4.0661192457096575]
      },
      {
        "species": [{ "element": "Zr", "occu": 1 }],
        "abc": [0.74304527, 0.46591336, 0.56972125],
        "properties": { "magmom": 0.0 },
        "label": "Zr",
        "xyz": [5.175734789551347, 6.328659846163248, 4.066170928104204]
      },
      {
        "species": [{ "element": "Zr", "occu": 1 }],
        "abc": [0.24304227, 0.43026455, 0.96593913],
        "properties": { "magmom": -0.0 },
        "label": "Zr",
        "xyz": [4.779852467849025, 10.72991470526523, 1.3300272608331027]
      },
      {
        "species": [{ "element": "Zr", "occu": 1 }],
        "abc": [0.24303532, 0.06973662, 0.53406287],
        "properties": { "magmom": 0.0 },
        "label": "Zr",
        "xyz": [0.7748080498023895, 5.932498302785309, 1.3299876300286024]
      },
      {
        "species": [{ "element": "Ge", "occu": 1 }],
        "abc": [0.46322321, 0.2085688, 0.04534299],
        "properties": { "magmom": 0.0 },
        "label": "Ge",
        "xyz": [2.3168865073605582, 0.5037167219689214, 2.534887118685699]
      },
      {
        "species": [{ "element": "Ge", "occu": 1 }],
        "abc": [0.46322591, 0.29143049, 0.45466066],
        "properties": { "magmom": -0.0 },
        "label": "Ge",
        "xyz": [3.2374676434036616, 5.050514132505945, 2.534919202798669]
      },
      {
        "species": [{ "element": "Ge", "occu": 1 }],
        "abc": [0.96324686, 0.54533039, 0.79141867],
        "properties": { "magmom": -0.0 },
        "label": "Ge",
        "xyz": [6.057993283346165, 8.791337083097883, 5.2711878300144805]
      },
      {
        "species": [{ "element": "Ge", "occu": 1 }],
        "abc": [0.96325246, 0.95467073, 0.70857562],
        "properties": { "magmom": 0.0 },
        "label": "Ge",
        "xyz": [10.605130391954724, 7.871148150043648, 5.271188970414721]
      },
      {
        "species": [{ "element": "Ge", "occu": 1 }],
        "abc": [0.53676801, 0.7914229500000001, 0.95468297],
        "properties": { "magmom": 0.0 },
        "label": "Ge",
        "xyz": [8.791771054796722, 10.60492999599269, 2.937360606423293]
      },
      {
        "species": [{ "element": "Ge", "occu": 1 }],
        "abc": [0.53677069, 0.7085754, 0.54531702],
        "properties": { "magmom": 0.0 },
        "label": "Ge",
        "xyz": [7.8713469797153035, 6.05759628282222, 2.9373579597950483]
      },
      {
        "species": [{ "element": "Ge", "occu": 1 }],
        "abc": [0.03676687, 0.45467842, 0.20858677],
        "properties": { "magmom": 0.0 },
        "label": "Ge",
        "xyz": [5.050853783670986, 2.3170816969932697, 0.2011830744536949]
      },
      {
        "species": [{ "element": "Ge", "occu": 1 }],
        "abc": [0.036757399999999, 0.045323590000000004, 0.29142387000000003],
        "properties": { "magmom": -0.0 },
        "label": "Ge",
        "xyz": [0.5035557113008882, 3.2372045343426104, 0.20116075680319953]
      }
    ]
  },
  "task_ids": null,
  "uncorrected_energy_per_atom": null,
  "energy_per_atom": -21.135896049375,
  "formation_energy_per_atom": -0.6055577256249971,
  "energy_above_hull": 0.0,
  "is_stable": true,
  "equilibrium_reaction_energy_per_atom": null,
  "decomposes_to": null,
  "xas": null,
  "grain_boundaries": null,
  "band_gap": 0.0,
  "cbm": null,
  "vbm": null,
  "efermi": 4.80668934,
  "is_gap_direct": null,
  "is_metal": null,
  "es_source_calc_id": null,
  "bandstructure": null,
  "dos": null,
  "dos_energy_up": null,
  "dos_energy_down": null,
  "is_magnetic": null,
  "ordering": null,
  "total_magnetization": 0.00019,
  "total_magnetization_normalized_vol": null,
  "total_magnetization_normalized_formula_units": null,
  "num_magnetic_sites": null,
  "num_unique_magnetic_sites": null,
  "types_of_magnetic_species": null,
  "bulk_modulus": null,
  "shear_modulus": null,
  "universal_anisotropy": null,
  "homogeneous_poisson": null,
  "e_total": null,
  "e_ionic": null,
  "e_electronic": null,
  "n": null,
  "e_ij_max": null,
  "weighted_surface_energy_EV_PER_ANG2": null,
  "weighted_surface_energy": null,
  "weighted_work_function": null,
  "surface_anisotropy": null,
  "shape_factor": null,
  "has_reconstructed": null,
  "possible_species": null,
  "has_props": null,
  "theoretical": null,
  "database_IDs": null,
  "fields_not_requested": [
    "builder_meta",
    "nsites",
    "elements",
    "nelements",
    "composition",
    "composition_reduced",
    "chemsys",
    "symmetry",
    "property_name",
    "deprecated",
    "deprecation_reasons",
    "last_updated",
    "origins",
    "warnings",
    "task_ids",
    "uncorrected_energy_per_atom",
    "equilibrium_reaction_energy_per_atom",
    "decomposes_to",
    "xas",
    "grain_boundaries",
    "cbm",
    "vbm",
    "is_gap_direct",
    "is_metal",
    "es_source_calc_id",
    "bandstructure",
    "dos",
    "dos_energy_up",
    "dos_energy_down",
    "is_magnetic",
    "ordering",
    "total_magnetization_normalized_vol",
    "total_magnetization_normalized_formula_units",
    "num_magnetic_sites",
    "num_unique_magnetic_sites",
    "types_of_magnetic_species",
    "bulk_modulus",
    "shear_modulus",
    "universal_anisotropy",
    "homogeneous_poisson",
    "e_total",
    "e_ionic",
    "e_electronic",
    "n",
    "e_ij_max",
    "weighted_surface_energy_EV_PER_ANG2",
    "weighted_surface_energy",
    "weighted_work_function",
    "surface_anisotropy",
    "shape_factor",
    "has_reconstructed",
    "possible_species",
    "has_props",
    "theoretical",
    "database_IDs"
  ]
}
