{
  "builder_meta": null,
  "nsites": null,
  "elements": null,
  "nelements": null,
  "composition": null,
  "composition_reduced": null,
  "formula_pretty": "Zr3Ir",
  "formula_anonymous": "AB3",
  "chemsys": null,
  "volume": 332.846482633143,
  "density": 9.29710152354993,
  "density_atomic": 20.802905164571442,
  "symmetry": null,
  "property_name": null,
  "material_id": "mp-30748",
  "deprecated": null,
  "deprecation_reasons": null,
  "last_updated": null,
  "origins": null,
  "warnings": null,
  "structure": {
    "@module": "pymatgen.core.structure",
    "@class": "Structure",
    "charge": 0,
    "lattice": {
      "matrix": [
        [5.37926972, 0.00125581, 1.9976912900000001],
        [2.691225949999999, 7.61673273, 0.99933476],
        [0.04130523, 0.00053336, 8.13967327]
      ],
      "pbc": [true, true, true],
      "a": 5.738232723383525,
      "b": 8.139777918146839,
      "c": 8.13977808965642,
      "alpha": 82.84758397119006,
      "beta": 69.33584128823018,
      "gamma": 69.33582675281127,
      "volume": 332.846482633143
    },
    "properties": {},
    "sites": [
      {
        "species": [{ "element": "Zr", "occu": 1 }],
        "abc": [0.960562399999999, 0.99974827, 0.58940436],
        "properties": { "magmom": -0.004 },
        "label": "Zr",
        "xyz": [7.882018202834931, 7.616336018446871, 7.7155492517558155]
      },
      {
        "species": [{ "element": "Zr", "occu": 1 }],
        "abc": [0.45009156, 0.58962705, 0.00024251],
        "properties": { "magmom": -0.004 },
        "label": "Zr",
        "xyz": [4.007993534648837, 4.491597009055445, 1.4903527477804783]
      },
      {
        "species": [{ "element": "Zr", "occu": 1 }],
        "abc": [0.039437599999999004, 0.41059564, 0.00025173000000000003],
        "properties": { "magmom": -0.004 },
        "label": "Zr",
        "xyz": [1.317161526599872, 3.127446910378466, 0.4911556453272055]
      },
      {
        "species": [{ "element": "Zr", "occu": 1 }],
        "abc": [0.54990844, 0.99975749, 0.41037295],
        "properties": { "magmom": -0.004 },
        "label": "Zr",
        "xyz": [5.665629669944829, 7.615795053180296, 5.437941444058886]
      },
      {
        "species": [{ "element": "Zr", "occu": 1 }],
        "abc": [0.85420822, 0.64605124, 0.64610623],
        "properties": { "magmom": 0.008 },
        "label": "Zr",
        "xyz": [6.360373840973359, 4.922216955408676, 7.6111593917249785]
      },
      {
        "species": [{ "element": "Zr", "occu": 1 }],
        "abc": [0.5, 0.64608286, 0.35391714],
        "properties": { "magmom": 0.008 },
        "label": "Zr",
        "xyz": [4.443008447550858, 4.921857136299799, 4.525268589091061]
      },
      {
        "species": [{ "element": "Zr", "occu": 1 }],
        "abc": [0.5, 0.35393634, 0.64606366],
        "properties": { "magmom": 0.009000000000000001 },
        "label": "Zr",
        "xyz": [3.6688433309269644, 2.696810994728106, 6.611293636409546]
      },
      {
        "species": [{ "element": "Zr", "occu": 1 }],
        "abc": [0.14579178, 0.35389377, 0.35394776],
        "properties": { "magmom": 0.008 },
        "label": "Zr",
        "xyz": [1.7512812985810176, 2.6958861292546077, 3.5259244358164166]
      },
      {
        "species": [{ "element": "Zr", "occu": 1 }],
        "abc": [0.35748683000000003, 0.00016722000000000002, 0.8078196],
        "properties": { "magmom": 0.164 },
        "label": "Zr",
        "xyz": [1.9568352810976548, 0.0021534642449489, 7.289703040441369]
      },
      {
        "species": [{ "element": "Zr", "occu": 1 }],
        "abc": [0.83560593, 0.80806168, 0.9999392300000001],
        "properties": { "magmom": 0.165 },
        "label": "Zr",
        "xyz": [6.710928959399208, 6.156372535785452, 10.615985435336729]
      },
      {
        "species": [{ "element": "Zr", "occu": 1 }],
        "abc": [0.64251317, 0.1921804, 0.99983278],
        "properties": { "magmom": 0.164 },
        "label": "Zr",
        "xyz": [4.014750842583031, 1.4651268880200505, 9.613907671165784]
      },
      {
        "species": [{ "element": "Zr", "occu": 1 }],
        "abc": [0.16439407, 6.077e-5, 0.19193832],
        "properties": { "magmom": 0.165 },
        "label": "Zr",
        "xyz": [0.8924116451529555, 0.000771688787404, 1.8907845441327218]
      },
      {
        "species": [{ "element": "Ir", "occu": 1 }],
        "abc": [0.70761537, 0.29224555, 0.29224494],
        "properties": { "magmom": 0.01 },
        "label": "Ir",
        "xyz": [4.605023985642655, 2.2270007481008496, 4.0844265243001985]
      },
      {
        "species": [{ "element": "Ir", "occu": 1 }],
        "abc": [1.0, 0.29216459, 0.70783541],
        "properties": { "magmom": 0.01 },
        "label": "Ir",
        "xyz": [6.194787950691304, 2.2269729362943083, 8.051210486764639]
      },
      {
        "species": [{ "element": "Ir", "occu": 1 }],
        "abc": [0.0, 0.70766906, 0.29233094],
        "properties": { "magmom": 0.01 },
        "label": "Ir",
        "xyz": [1.9165721349969225, 5.390282008940491, 3.086676628546499]
      },
      {
        "species": [{ "element": "Ir", "occu": 1 }],
        "abc": [0.29238463, 0.70775506, 0.70775445],
        "properties": { "magmom": 0.01 },
        "label": "Ir",
        "xyz": [3.506778530808983, 5.3915257977807665, 7.052268440093309]
      }
    ]
  },
  "task_ids": null,
  "uncorrected_energy_per_atom": null,
  "energy_per_atom": -30.7516018475,
  "formation_energy_per_atom": -0.5994195562500011,
  "energy_above_hull": 0.0,
  "is_stable": true,
  "equilibrium_reaction_energy_per_atom": null,
  "decomposes_to": null,
  "xas": null,
  "grain_boundaries": null,
  "band_gap": 0.0,
  "cbm": null,
  "vbm": null,
  "efermi": 5.14118003,
  "is_gap_direct": null,
  "is_metal": null,
  "es_source_calc_id": null,
  "bandstructure": null,
  "dos": null,
  "dos_energy_up": null,
  "dos_energy_down": null,
  "is_magnetic": null,
  "ordering": null,
  "total_magnetization": 1.0886386,
  "total_magnetization_normalized_vol": null,
  "total_magnetization_normalized_formula_units": null,
  "num_magnetic_sites": null,
  "num_unique_magnetic_sites": null,
  "types_of_magnetic_species": null,
  "bulk_modulus": null,
  "shear_modulus": null,
  "universal_anisotropy": null,
  "homogeneous_poisson": null,
  "e_total": null,
  "e_ionic": null,
  "e_electronic": null,
  "n": null,
  "e_ij_max": null,
  "weighted_surface_energy_EV_PER_ANG2": null,
  "weighted_surface_energy": null,
  "weighted_work_function": null,
  "surface_anisotropy": null,
  "shape_factor": null,
  "has_reconstructed": null,
  "possible_species": null,
  "has_props": null,
  "theoretical": null,
  "database_IDs": null,
  "fields_not_requested": [
    "builder_meta",
    "nsites",
    "elements",
    "nelements",
    "composition",
    "composition_reduced",
    "chemsys",
    "symmetry",
    "property_name",
    "deprecated",
    "deprecation_reasons",
    "last_updated",
    "origins",
    "warnings",
    "task_ids",
    "uncorrected_energy_per_atom",
    "equilibrium_reaction_energy_per_atom",
    "decomposes_to",
    "xas",
    "grain_boundaries",
    "cbm",
    "vbm",
    "is_gap_direct",
    "is_metal",
    "es_source_calc_id",
    "bandstructure",
    "dos",
    "dos_energy_up",
    "dos_energy_down",
    "is_magnetic",
    "ordering",
    "total_magnetization_normalized_vol",
    "total_magnetization_normalized_formula_units",
    "num_magnetic_sites",
    "num_unique_magnetic_sites",
    "types_of_magnetic_species",
    "bulk_modulus",
    "shear_modulus",
    "universal_anisotropy",
    "homogeneous_poisson",
    "e_total",
    "e_ionic",
    "e_electronic",
    "n",
    "e_ij_max",
    "weighted_surface_energy_EV_PER_ANG2",
    "weighted_surface_energy",
    "weighted_work_function",
    "surface_anisotropy",
    "shape_factor",
    "has_reconstructed",
    "possible_species",
    "has_props",
    "theoretical",
    "database_IDs"
  ]
}
