{"builder_meta": null, "nsites": null, "elements": null, "nelements": null, "composition": null, "composition_reduced": null, "formula_pretty": "Zr3N4", "formula_anonymous": "A3B4", "chemsys": null, "volume": 348.3795536060767, "density": 6.285991608223824, "density_atomic": 12.442126914502738, "symmetry": null, "property_name": null, "material_id": "mp-277", "deprecated": null, "deprecation_reasons": null, "last_updated": null, "origins": null, "warnings": null, "structure": {"@module": "pymatgen.core.structure", "@class": "Structure", "charge": 0, "lattice": {"matrix": [[3.28362182, 0.0, 0.0], [0.0, 9.80181193, 0.0], [0.0, 0.0, 10.824134]], "pbc": [true, true, true], "a": 3.28362182, "b": 9.80181193, "c": 10.824134, "alpha": 90.0, "beta": 90.0, "gamma": 90.0, "volume": 348.3795536060767}, "properties": {}, "sites": [{"species": [{"element": "Zr", "occu": 1}], "abc": [0.25, 0.23089116, 0.14732594000000002], "properties": {"magmom": 0.0}, "label": "Zr", "xyz": [0.820905455, 2.263151726619539, 1.5946757162359604]}, {"species": [{"element": "Zr", "occu": 1}], "abc": [0.75, 0.76910884, 0.85267406], "properties": {"magmom": 0.0}, "label": "Zr", "xyz": [2.462716365, 7.538660203380461, 9.22945828376404]}, {"species": [{"element": "Zr", "occu": 1}], "abc": [0.25, 0.73089116, 0.35267406], "properties": {"magmom": 0.0}, "label": "Zr", "xyz": [0.820905455, 7.164057691619538, 3.8173912837640405]}, {"species": [{"element": "Zr", "occu": 1}], "abc": [0.75, 0.26910884, 0.64732594], "properties": {"magmom": 0.0}, "label": "Zr", "xyz": [2.462716365, 2.6377542383804613, 7.00674271623596]}, {"species": [{"element": "Zr", "occu": 1}], "abc": [0.25, 0.1067056, 0.40637059000000003], "properties": {"magmom": -0.0}, "label": "Zr", "xyz": [0.820905455, 1.0459082230778078, 4.398609719819061]}, {"species": [{"element": "Zr", "occu": 1}], "abc": [0.75, 0.893294399999999, 0.59362941], "properties": {"magmom": -0.0}, "label": "Zr", "xyz": [2.462716365, 8.755903706922183, 6.425524280180941]}, {"species": [{"element": "Zr", "occu": 1}], "abc": [0.25, 0.6067056, 0.09362941], "properties": {"magmom": -0.0}, "label": "Zr", "xyz": [0.820905455, 5.946814188077807, 1.01345728018094]}, {"species": [{"element": "Zr", "occu": 1}], "abc": [0.75, 0.3932944, 0.90637059], "properties": {"magmom": -0.0}, "label": "Zr", "xyz": [2.462716365, 3.8549977419221917, 9.81067671981906]}, {"species": [{"element": "Zr", "occu": 1}], "abc": [0.25, 0.06901764, 0.87530238], "properties": {"magmom": -0.0}, "label": "Zr", "xyz": [0.820905455, 0.6764979271324452, 9.474390251638921]}, {"species": [{"element": "Zr", "occu": 1}], "abc": [0.75, 0.93098236, 0.12469762000000001], "properties": {"magmom": -0.0}, "label": "Zr", "xyz": [2.462716365, 9.125314002867555, 1.3497437483610801]}, {"species": [{"element": "Zr", "occu": 1}], "abc": [0.25, 0.56901764, 0.6246976200000001], "properties": {"magmom": -0.0}, "label": "Zr", "xyz": [0.820905455, 5.577403892132445, 6.761810748361081]}, {"species": [{"element": "Zr", "occu": 1}], "abc": [0.75, 0.43098236, 0.37530238], "properties": {"magmom": -0.0}, "label": "Zr", "xyz": [2.462716365, 4.224408037867555, 4.0623232516389205]}, {"species": [{"element": "N", "occu": 1}], "abc": [0.25, 0.89696789, 0.47218418], "properties": {"magmom": -0.0}, "label": "N", "xyz": [0.820905455, 8.791910565028926, 5.11098483700012]}, {"species": [{"element": "N", "occu": 1}], "abc": [0.75, 0.10303211, 0.52781582], "properties": {"magmom": -0.0}, "label": "N", "xyz": [2.462716365, 1.0099013649710722, 5.713149162999881]}, {"species": [{"element": "N", "occu": 1}], "abc": [0.25, 0.39696789, 0.02781582], "properties": {"magmom": -0.0}, "label": "N", "xyz": [0.820905455, 3.8910046000289276, 0.30108216299988005]}, {"species": [{"element": "N", "occu": 1}], "abc": [0.75, 0.60303211, 0.9721841800000001], "properties": {"magmom": -0.0}, "label": "N", "xyz": [2.462716365, 5.910807329971072, 10.523051837000121]}, {"species": [{"element": "N", "occu": 1}], "abc": [0.25, 0.50545562, 0.27436158], "properties": {"magmom": 0.0}, "label": "N", "xyz": [0.820905455, 4.954380926201546, 2.96972650637172]}, {"species": [{"element": "N", "occu": 1}], "abc": [0.75, 0.49454438, 0.72563842], "properties": {"magmom": 0.0}, "label": "N", "xyz": [2.462716365, 4.847431003798453, 7.854407493628281]}, {"species": [{"element": "N", "occu": 1}], "abc": [0.25, 0.0054556200000000004, 0.22563842], "properties": {"magmom": 0.0}, "label": "N", "xyz": [0.820905455, 0.0534749612015466, 2.44234049362828]}, {"species": [{"element": "N", "occu": 1}], "abc": [0.75, 0.99454438, 0.77436158], "properties": {"magmom": 0.0}, "label": "N", "xyz": [2.462716365, 9.748336968798453, 8.38179350637172]}, {"species": [{"element": "N", "occu": 1}], "abc": [0.25, 0.35707694, 0.5185775300000001], "properties": {"magmom": 0.0}, "label": "N", "xyz": [0.820905455, 3.500001010419894, 5.613152674109021]}, {"species": [{"element": "N", "occu": 1}], "abc": [0.75, 0.64292306, 0.48142247], "properties": {"magmom": 0.0}, "label": "N", "xyz": [2.462716365, 6.301810919580105, 5.21098132589098]}, {"species": [{"element": "N", "occu": 1}], "abc": [0.25, 0.85707694, 0.98142247], "properties": {"magmom": 0.0}, "label": "N", "xyz": [0.820905455, 8.400906975419893, 10.62304832589098]}, {"species": [{"element": "N", "occu": 1}], "abc": [0.75, 0.14292306, 0.018577530000000002], "properties": {"magmom": 0.0}, "label": "N", "xyz": [2.462716365, 1.4009049545801056, 0.20108567410902004]}, {"species": [{"element": "N", "occu": 1}], "abc": [0.75, 0.23713614, 0.28523085], "properties": {"magmom": -0.0}, "label": "N", "xyz": [2.462716365, 2.32436384608615, 3.0873769413339]}, {"species": [{"element": "N", "occu": 1}], "abc": [0.25, 0.7628638600000001, 0.71476915], "properties": {"magmom": -0.0}, "label": "N", "xyz": [0.820905455, 7.47744808391385, 7.7367570586661]}, {"species": [{"element": "N", "occu": 1}], "abc": [0.75, 0.73713614, 0.21476915], "properties": {"magmom": -0.0}, "label": "N", "xyz": [2.462716365, 7.22526981108615, 2.3246900586661]}, {"species": [{"element": "N", "occu": 1}], "abc": [0.25, 0.26286386, 0.78523085], "properties": {"magmom": -0.0}, "label": "N", "xyz": [0.820905455, 2.5765421189138498, 8.499443941333901]}]}, "task_ids": null, "uncorrected_energy_per_atom": null, "energy_per_atom": -16.818722965357143, "formation_energy_per_atom": -1.852383193928572, "energy_above_hull": 0.0, "is_stable": true, "equilibrium_reaction_energy_per_atom": null, "decomposes_to": null, "xas": null, "grain_boundaries": null, "band_gap": 0.970499999999999, "cbm": null, "vbm": null, "efermi": 4.98353482, "is_gap_direct": null, "is_metal": null, "es_source_calc_id": null, "bandstructure": null, "dos": null, "dos_energy_up": null, "dos_energy_down": null, "is_magnetic": null, "ordering": null, "total_magnetization": 0.0, "total_magnetization_normalized_vol": null, "total_magnetization_normalized_formula_units": null, "num_magnetic_sites": null, "num_unique_magnetic_sites": null, "types_of_magnetic_species": null, "bulk_modulus": null, "shear_modulus": null, "universal_anisotropy": null, "homogeneous_poisson": null, "e_total": null, "e_ionic": null, "e_electronic": null, "n": null, "e_ij_max": null, "weighted_surface_energy_EV_PER_ANG2": null, "weighted_surface_energy": null, "weighted_work_function": null, "surface_anisotropy": null, "shape_factor": null, "has_reconstructed": null, "possible_species": null, "has_props": null, "theoretical": null, "database_IDs": null, "fields_not_requested": ["builder_meta", "nsites", "elements", "nelements", "composition", "composition_reduced", "chemsys", "symmetry", "property_name", "deprecated", "deprecation_reasons", "last_updated", "origins", "warnings", "task_ids", "uncorrected_energy_per_atom", "equilibrium_reaction_energy_per_atom", "decomposes_to", "xas", "grain_boundaries", "cbm", "vbm", "is_gap_direct", "is_metal", "es_source_calc_id", "bandstructure", "dos", "dos_energy_up", "dos_energy_down", "is_magnetic", "ordering", "total_magnetization_normalized_vol", "total_magnetization_normalized_formula_units", "num_magnetic_sites", "num_unique_magnetic_sites", "types_of_magnetic_species", "bulk_modulus", "shear_modulus", "universal_anisotropy", "homogeneous_poisson", "e_total", "e_ionic", "e_electronic", "n", "e_ij_max", "weighted_surface_energy_EV_PER_ANG2", "weighted_surface_energy", "weighted_work_function", "surface_anisotropy", "shape_factor", "has_reconstructed", "possible_species", "has_props", "theoretical", "database_IDs"]}