{
  "builder_meta": null,
  "nsites": null,
  "elements": null,
  "nelements": null,
  "composition": null,
  "composition_reduced": null,
  "formula_pretty": "Zr3N2",
  "formula_anonymous": "A2B3",
  "chemsys": null,
  "volume": 144.77230352461052,
  "density": 6.920666181673168,
  "density_atomic": 14.477230352461053,
  "symmetry": null,
  "property_name": null,
  "material_id": "mp-866083",
  "deprecated": null,
  "deprecation_reasons": null,
  "last_updated": null,
  "origins": null,
  "warnings": null,
  "structure": {
    "@module": "pymatgen.core.structure",
    "@class": "Structure",
    "charge": 0,
    "lattice": {
      "matrix": [
        [-5.65025122, -0.00025909, 0.00017333],
        [2.82490013, -4.89338446, -0.00016923],
        [-2.825182599999999, 1.63111272, 5.23608109]
      ],
      "pbc": [true, true, true],
      "a": 5.6502512285988145,
      "b": 5.650245326221005,
      "c": 6.169175845260381,
      "alpha": 117.25579081667249,
      "beta": 62.744110651186986,
      "gamma": 119.9947671349478,
      "volume": 144.77230352461052
    },
    "properties": {},
    "sites": [
      {
        "species": [{ "element": "Zr", "occu": 1 }],
        "abc": [0.57518121, 0.74994698, 0.24995465],
        "properties": { "magmom": 0.0 },
        "label": "Zr",
        "xyz": [-1.8375605401975588, -3.262223712417482, 1.3087555988542725]
      },
      {
        "species": [{ "element": "Zr", "occu": 1 }],
        "abc": [0.92478402, 0.42478502, 0.25],
        "properties": { "magmom": 0.0 },
        "label": "Zr",
        "xyz": [-4.731582429021452, -1.671097838000531, 1.309108678945252]
      },
      {
        "species": [{ "element": "Zr", "occu": 1 }],
        "abc": [0.24994698, 0.07518021, 0.25004435],
        "properties": { "magmom": 0.0 },
        "label": "Zr",
        "xyz": [-1.9063075905261984, 0.03990008977254722, 1.3092830932594466]
      },
      {
        "species": [{ "element": "Zr", "occu": 1 }],
        "abc": [0.75005402, 0.92482279, 0.74995565],
        "properties": { "magmom": 0.0 },
        "label": "Zr",
        "xyz": [-3.744223275024631, -3.3024456001850173, 3.926802096406193]
      },
      {
        "species": [{ "element": "Zr", "occu": 1 }],
        "abc": [0.07521598, 0.57521698, 0.75],
        "properties": { "magmom": 0.0 },
        "label": "Zr",
        "xyz": [-0.9189456111782874, -1.591442778768389, 3.926976510716288]
      },
      {
        "species": [{ "element": "Zr", "occu": 1 }],
        "abc": [0.42481979000000003, 0.25005502, 0.75004635],
        "properties": { "magmom": 0.0 },
        "label": "Zr",
        "xyz": [-3.8129759754360006, -0.0003152734978084659, 3.9273348270616877]
      },
      {
        "species": [{ "element": "N", "occu": 1 }],
        "abc": [0.66144554, 0.33854011, 0.01561537],
        "properties": { "magmom": 0.0 },
        "label": "N",
        "xyz": [-2.825107740215907, -1.631307858651143, 0.0818207007829862]
      },
      {
        "species": [{ "element": "N", "occu": 1 }],
        "abc": [0.83853911, 0.16144354, 0.48438463],
        "properties": { "magmom": 0.0 },
        "label": "N",
        "xyz": [-5.650369780544992, -0.00013663553590470556, 2.5363952243233086]
      },
      {
        "species": [{ "element": "N", "occu": 1 }],
        "abc": [0.16146089, 0.83855846, 0.51561637],
        "properties": { "magmom": 0.0 },
        "label": "N",
        "xyz": [
          -0.00016108483734744716, -3.2624023501202957, 2.6996952014193214
        ]
      },
      {
        "species": [{ "element": "N", "occu": 1 }],
        "abc": [0.33855746000000003, 0.66146189, 0.98438463],
        "properties": { "magmom": 0.0 },
        "label": "N",
        "xyz": [-2.825437250737493, -1.6312327588950475, 5.154264489398544]
      }
    ]
  },
  "task_ids": null,
  "uncorrected_energy_per_atom": null,
  "energy_per_atom": -18.916746187,
  "formation_energy_per_atom": -1.615370775500002,
  "energy_above_hull": 0.021269678999999,
  "is_stable": false,
  "equilibrium_reaction_energy_per_atom": null,
  "decomposes_to": null,
  "xas": null,
  "grain_boundaries": null,
  "band_gap": 0.0,
  "cbm": null,
  "vbm": null,
  "efermi": 5.7502711600000005,
  "is_gap_direct": null,
  "is_metal": null,
  "es_source_calc_id": null,
  "bandstructure": null,
  "dos": null,
  "dos_energy_up": null,
  "dos_energy_down": null,
  "is_magnetic": null,
  "ordering": null,
  "total_magnetization": 3e-7,
  "total_magnetization_normalized_vol": null,
  "total_magnetization_normalized_formula_units": null,
  "num_magnetic_sites": null,
  "num_unique_magnetic_sites": null,
  "types_of_magnetic_species": null,
  "bulk_modulus": null,
  "shear_modulus": null,
  "universal_anisotropy": null,
  "homogeneous_poisson": null,
  "e_total": null,
  "e_ionic": null,
  "e_electronic": null,
  "n": null,
  "e_ij_max": null,
  "weighted_surface_energy_EV_PER_ANG2": null,
  "weighted_surface_energy": null,
  "weighted_work_function": null,
  "surface_anisotropy": null,
  "shape_factor": null,
  "has_reconstructed": null,
  "possible_species": null,
  "has_props": null,
  "theoretical": null,
  "database_IDs": null,
  "fields_not_requested": [
    "builder_meta",
    "nsites",
    "elements",
    "nelements",
    "composition",
    "composition_reduced",
    "chemsys",
    "symmetry",
    "property_name",
    "deprecated",
    "deprecation_reasons",
    "last_updated",
    "origins",
    "warnings",
    "task_ids",
    "uncorrected_energy_per_atom",
    "equilibrium_reaction_energy_per_atom",
    "decomposes_to",
    "xas",
    "grain_boundaries",
    "cbm",
    "vbm",
    "is_gap_direct",
    "is_metal",
    "es_source_calc_id",
    "bandstructure",
    "dos",
    "dos_energy_up",
    "dos_energy_down",
    "is_magnetic",
    "ordering",
    "total_magnetization_normalized_vol",
    "total_magnetization_normalized_formula_units",
    "num_magnetic_sites",
    "num_unique_magnetic_sites",
    "types_of_magnetic_species",
    "bulk_modulus",
    "shear_modulus",
    "universal_anisotropy",
    "homogeneous_poisson",
    "e_total",
    "e_ionic",
    "e_electronic",
    "n",
    "e_ij_max",
    "weighted_surface_energy_EV_PER_ANG2",
    "weighted_surface_energy",
    "weighted_work_function",
    "surface_anisotropy",
    "shape_factor",
    "has_reconstructed",
    "possible_species",
    "has_props",
    "theoretical",
    "database_IDs"
  ]
}
