{
  "builder_meta": null,
  "nsites": null,
  "elements": null,
  "nelements": null,
  "composition": null,
  "composition_reduced": null,
  "formula_pretty": "Zr3Ni",
  "formula_anonymous": "AB3",
  "chemsys": null,
  "volume": 155.94682700084778,
  "density": 7.07812709883652,
  "density_atomic": 19.493353375105972,
  "symmetry": null,
  "property_name": null,
  "material_id": "mp-1188073",
  "deprecated": null,
  "deprecation_reasons": null,
  "last_updated": null,
  "origins": null,
  "warnings": null,
  "structure": {
    "@module": "pymatgen.core.structure",
    "@class": "Structure",
    "charge": 0,
    "lattice": {
      "matrix": [
        [3.032209, -5.251941, 0.0],
        [3.032209, 5.251941, 0.0],
        [0.0, 0.0, 4.896295]
      ],
      "pbc": [true, true, true],
      "a": 6.064418825177067,
      "b": 6.064418825177067,
      "c": 4.896295,
      "alpha": 90.0,
      "beta": 90.0,
      "gamma": 120.00000900222688,
      "volume": 155.94682700084778
    },
    "properties": {},
    "sites": [
      {
        "species": [{ "element": "Zr", "occu": 1 }],
        "abc": [0.825653, 0.651305, 0.75],
        "properties": { "magmom": -0.0 },
        "label": "Zr",
        "xyz": [4.478445340222, -0.9156654094679997, 3.67222125]
      },
      {
        "species": [{ "element": "Zr", "occu": 1 }],
        "abc": [0.174347, 0.825653, 0.25],
        "properties": { "magmom": -0.0 },
        "label": "Zr",
        "xyz": [3.032209, 3.420620684946, 1.22407375]
      },
      {
        "species": [{ "element": "Zr", "occu": 1 }],
        "abc": [0.651305, 0.825653, 0.25],
        "properties": { "magmom": -0.0 },
        "label": "Zr",
        "xyz": [4.478445340222, 0.9156654094679997, 1.22407375]
      },
      {
        "species": [{ "element": "Zr", "occu": 1 }],
        "abc": [0.174347, 0.348695, 0.25],
        "properties": { "magmom": -0.0 },
        "label": "Zr",
        "xyz": [1.5859726597779997, 0.9156654094679999, 1.22407375]
      },
      {
        "species": [{ "element": "Zr", "occu": 1 }],
        "abc": [0.825653, 0.174347, 0.75],
        "properties": { "magmom": -0.0 },
        "label": "Zr",
        "xyz": [3.032209, -3.420620684946, 3.67222125]
      },
      {
        "species": [{ "element": "Zr", "occu": 1 }],
        "abc": [0.348695, 0.174347, 0.75],
        "properties": { "magmom": -0.0 },
        "label": "Zr",
        "xyz": [1.5859726597779997, -0.9156654094679999, 3.67222125]
      },
      {
        "species": [{ "element": "Ni", "occu": 1 }],
        "abc": [0.666667, 0.333333, 0.25],
        "properties": { "magmom": 0.0 },
        "label": "Ni",
        "xyz": [3.032209, -1.7506505012940003, 1.22407375]
      },
      {
        "species": [{ "element": "Ni", "occu": 1 }],
        "abc": [0.333333, 0.666667, 0.75],
        "properties": { "magmom": 0.0 },
        "label": "Ni",
        "xyz": [3.032209, 1.7506505012940003, 3.67222125]
      }
    ]
  },
  "task_ids": null,
  "uncorrected_energy_per_atom": null,
  "energy_per_atom": -7.83021598,
  "formation_energy_per_atom": 0.025593662499999004,
  "energy_above_hull": 0.26789238875000004,
  "is_stable": false,
  "equilibrium_reaction_energy_per_atom": null,
  "decomposes_to": null,
  "xas": null,
  "grain_boundaries": null,
  "band_gap": 0.0,
  "cbm": null,
  "vbm": null,
  "efermi": 4.7321183399999995,
  "is_gap_direct": null,
  "is_metal": null,
  "es_source_calc_id": null,
  "bandstructure": null,
  "dos": null,
  "dos_energy_up": null,
  "dos_energy_down": null,
  "is_magnetic": null,
  "ordering": null,
  "total_magnetization": 0.001652499999999,
  "total_magnetization_normalized_vol": null,
  "total_magnetization_normalized_formula_units": null,
  "num_magnetic_sites": null,
  "num_unique_magnetic_sites": null,
  "types_of_magnetic_species": null,
  "bulk_modulus": null,
  "shear_modulus": null,
  "universal_anisotropy": null,
  "homogeneous_poisson": null,
  "e_total": null,
  "e_ionic": null,
  "e_electronic": null,
  "n": null,
  "e_ij_max": null,
  "weighted_surface_energy_EV_PER_ANG2": null,
  "weighted_surface_energy": null,
  "weighted_work_function": null,
  "surface_anisotropy": null,
  "shape_factor": null,
  "has_reconstructed": null,
  "possible_species": null,
  "has_props": null,
  "theoretical": null,
  "database_IDs": null,
  "fields_not_requested": [
    "builder_meta",
    "nsites",
    "elements",
    "nelements",
    "composition",
    "composition_reduced",
    "chemsys",
    "symmetry",
    "property_name",
    "deprecated",
    "deprecation_reasons",
    "last_updated",
    "origins",
    "warnings",
    "task_ids",
    "uncorrected_energy_per_atom",
    "equilibrium_reaction_energy_per_atom",
    "decomposes_to",
    "xas",
    "grain_boundaries",
    "cbm",
    "vbm",
    "is_gap_direct",
    "is_metal",
    "es_source_calc_id",
    "bandstructure",
    "dos",
    "dos_energy_up",
    "dos_energy_down",
    "is_magnetic",
    "ordering",
    "total_magnetization_normalized_vol",
    "total_magnetization_normalized_formula_units",
    "num_magnetic_sites",
    "num_unique_magnetic_sites",
    "types_of_magnetic_species",
    "bulk_modulus",
    "shear_modulus",
    "universal_anisotropy",
    "homogeneous_poisson",
    "e_total",
    "e_ionic",
    "e_electronic",
    "n",
    "e_ij_max",
    "weighted_surface_energy_EV_PER_ANG2",
    "weighted_surface_energy",
    "weighted_work_function",
    "surface_anisotropy",
    "shape_factor",
    "has_reconstructed",
    "possible_species",
    "has_props",
    "theoretical",
    "database_IDs"
  ]
}
