{"builder_meta": null, "nsites": null, "elements": null, "nelements": null, "composition": null, "composition_reduced": null, "formula_pretty": "Zr3O", "formula_anonymous": "AB3", "chemsys": null, "volume": 143.83052778680639, "density": 6.688575555944507, "density_atomic": 17.978815973350798, "symmetry": null, "property_name": null, "material_id": "mp-14024", "deprecated": null, "deprecation_reasons": null, "last_updated": null, "origins": null, "warnings": null, "structure": {"@module": "pymatgen.core.structure", "@class": "Structure", "charge": 0, "lattice": {"matrix": [[5.01162982, -0.00793236, 3.53845724], [1.82896497, 4.6659825999999995, 3.53845723], [-0.01164816, -0.00793237, 6.13489817]], "pbc": [true, true, true], "a": 6.134914507501862, "b": 6.1349153257016615, "c": 6.134914356239584, "alpha": 54.88477413085703, "beta": 54.88476299789836, "gamma": 54.88476707413904, "volume": 143.83052778680636}, "properties": {}, "sites": [{"species": [{"element": "Zr", "occu": 1}], "abc": [0.59151433, 0.90848567, 0.25], "properties": {"magmom": -0.0}, "label": "Zr", "xyz": [4.6231272813623, 4.2323031314586235, 6.841410393415144]}, {"species": [{"element": "Zr", "occu": 1}], "abc": [0.25, 0.59151433, 0.90848567], "properties": {"magmom": -0.0}, "label": "Zr", "xyz": [2.3241842573811526, 2.7508060369565195, 8.55112954199133]}, {"species": [{"element": "Zr", "occu": 1}], "abc": [0.90848567, 0.25, 0.59151433], "properties": {"magmom": -0.0}, "label": "Zr", "xyz": [5.003345063756547, 1.1545971040848566, 7.728132184593527]}, {"species": [{"element": "Zr", "occu": 1}], "abc": [0.40848567, 0.09151433, 0.75], "properties": {"magmom": -0.0}, "label": "Zr", "xyz": [2.2058193486376996, 0.4178147385413768, 6.370402246584857]}, {"species": [{"element": "Zr", "occu": 1}], "abc": [0.75, 0.40848567, 0.09151433], "properties": {"magmom": -0.0}, "label": "Zr", "xyz": [4.504762372618847, 1.89931183304348, 4.660683098008671]}, {"species": [{"element": "Zr", "occu": 1}], "abc": [0.09151433, 0.75, 0.40848567], "properties": {"magmom": -0.0}, "label": "Zr", "xyz": [1.8256015662434535, 3.495520765915143, 5.483680455406473]}, {"species": [{"element": "O", "occu": 1}], "abc": [-0.0, -0.0, 0.0], "properties": {"magmom": 0.0}, "label": "O", "xyz": [0.0, 0.0, 0.0]}, {"species": [{"element": "O", "occu": 1}], "abc": [0.5, 0.5, 0.5], "properties": {"magmom": 0.0}, "label": "O", "xyz": [3.4144733149999995, 2.325058935, 6.60590632]}]}, "task_ids": null, "uncorrected_energy_per_atom": null, "energy_per_atom": -9.193925019375, "formation_energy_per_atom": -1.546159295624999, "energy_above_hull": 0.0, "is_stable": true, "equilibrium_reaction_energy_per_atom": null, "decomposes_to": null, "xas": null, "grain_boundaries": null, "band_gap": 0.0, "cbm": null, "vbm": null, "efermi": 4.97880079, "is_gap_direct": null, "is_metal": null, "es_source_calc_id": null, "bandstructure": null, "dos": null, "dos_energy_up": null, "dos_energy_down": null, "is_magnetic": null, "ordering": null, "total_magnetization": 0.0, "total_magnetization_normalized_vol": null, "total_magnetization_normalized_formula_units": null, "num_magnetic_sites": null, "num_unique_magnetic_sites": null, "types_of_magnetic_species": null, "bulk_modulus": null, "shear_modulus": null, "universal_anisotropy": null, "homogeneous_poisson": null, "e_total": null, "e_ionic": null, "e_electronic": null, "n": null, "e_ij_max": null, "weighted_surface_energy_EV_PER_ANG2": null, "weighted_surface_energy": null, "weighted_work_function": null, "surface_anisotropy": null, "shape_factor": null, "has_reconstructed": null, "possible_species": null, "has_props": null, "theoretical": null, "database_IDs": null, "fields_not_requested": ["builder_meta", "nsites", "elements", "nelements", "composition", "composition_reduced", "chemsys", "symmetry", "property_name", "deprecated", "deprecation_reasons", "last_updated", "origins", "warnings", "task_ids", "uncorrected_energy_per_atom", "equilibrium_reaction_energy_per_atom", "decomposes_to", "xas", "grain_boundaries", "cbm", "vbm", "is_gap_direct", "is_metal", "es_source_calc_id", "bandstructure", "dos", "dos_energy_up", "dos_energy_down", "is_magnetic", "ordering", "total_magnetization_normalized_vol", "total_magnetization_normalized_formula_units", "num_magnetic_sites", "num_unique_magnetic_sites", "types_of_magnetic_species", "bulk_modulus", "shear_modulus", "universal_anisotropy", "homogeneous_poisson", "e_total", "e_ionic", "e_electronic", "n", "e_ij_max", "weighted_surface_energy_EV_PER_ANG2", "weighted_surface_energy", "weighted_work_function", "surface_anisotropy", "shape_factor", "has_reconstructed", "possible_species", "has_props", "theoretical", "database_IDs"]}