{"builder_meta": null, "nsites": null, "elements": null, "nelements": null, "composition": null, "composition_reduced": null, "formula_pretty": "Zr3P", "formula_anonymous": "AB3", "chemsys": null, "volume": 631.1576961990969, "density": 6.4120417743022955, "density_atomic": 19.723678006221782, "symmetry": null, "property_name": null, "material_id": "mp-22447", "deprecated": null, "deprecation_reasons": null, "last_updated": null, "origins": null, "warnings": null, "structure": {"@module": "pymatgen.core.structure", "@class": "Structure", "charge": 0, "lattice": {"matrix": [[5.370838219999999, -0.0, 0.0], [0.0, 10.84046481, -0.00097675], [-0.0, 0.00097675, 10.84046481]], "pbc": [true, true, true], "a": 5.370838219999999, "b": 10.840464854003674, "c": 10.840464854003674, "alpha": 90.0, "beta": 90.0, "gamma": 90.0, "volume": 631.1576961990968}, "properties": {}, "sites": [{"species": [{"element": "Zr", "occu": 1}], "abc": [0.52877609, 0.11305002, 0.27738831], "properties": {"magmom": 0.0}, "label": "Zr", "xyz": [2.839970833994159, 1.2257857026115888, 3.0069077916533367]}, {"species": [{"element": "Zr", "occu": 1}], "abc": [0.02877609, 0.72261169, 0.61305002], "properties": {"magmom": 0.0}, "label": "Zr", "xyz": [0.15455172399415976, 7.834045393346664, 6.645041357611589]}, {"species": [{"element": "Zr", "occu": 1}], "abc": [0.02877609, 0.77738831, 0.88694998], "properties": {"magmom": 0.0}, "label": "Zr", "xyz": [0.15455172399415976, 8.428116946653336, 9.614190732388412]}, {"species": [{"element": "Zr", "occu": 1}], "abc": [0.52877609, 0.38694998, 0.22261169], "properties": {"magmom": 0.0}, "label": "Zr", "xyz": [2.839970833994159, 4.194935077388411, 2.412836238346664]}, {"species": [{"element": "Zr", "occu": 1}], "abc": [0.47122391, 0.88694998, 0.72261169], "properties": {"magmom": 0.0}, "label": "Zr", "xyz": [2.5308673860058395, 9.615655857388413, 7.832580268346665]}, {"species": [{"element": "Zr", "occu": 1}], "abc": [0.97122391, 0.27738831, 0.38694998], "properties": {"magmom": 0.0}, "label": "Zr", "xyz": [5.216286496005838, 3.0073961666533364, 4.1944467023884116]}, {"species": [{"element": "Zr", "occu": 1}], "abc": [0.97122391, 0.22261169, 0.11305002], "properties": {"magmom": 0.0}, "label": "Zr", "xyz": [5.216286496005838, 2.413324613346664, 1.2252973276115888]}, {"species": [{"element": "Zr", "occu": 1}], "abc": [0.47122391, 0.61305002, 0.77738831], "properties": {"magmom": 0.0}, "label": "Zr", "xyz": [2.5308673860058395, 6.6465064826115885, 8.426651821653337]}, {"species": [{"element": "Zr", "occu": 1}], "abc": [0.23504909000000002, 0.07030581, 0.53464198], "properties": {"magmom": 0.0}, "label": "Zr", "xyz": [1.2624106361482195, 0.7626698707975111, 5.795698898938806]}, {"species": [{"element": "Zr", "occu": 1}], "abc": [0.73504909, 0.46535802, 0.57030581], "properties": {"magmom": 0.0}, "label": "Zr", "xyz": [3.947829746148219, 5.045254286061193, 6.181925525797512]}, {"species": [{"element": "Zr", "occu": 1}], "abc": [0.73504909, 0.03464198, 0.92969419], "properties": {"magmom": 0.0}, "label": "Zr", "xyz": [3.947829746148219, 0.3764432439388063, 10.078283314202489]}, {"species": [{"element": "Zr", "occu": 1}], "abc": [0.23504909000000002, 0.42969419000000003, 0.96535802], "properties": {"magmom": 0.0}, "label": "Zr", "xyz": [1.2624106361482195, 4.659027659202489, 10.464509941061195]}, {"species": [{"element": "Zr", "occu": 1}], "abc": [0.76495091, 0.92969419, 0.46535802], "properties": {"magmom": 0.0}, "label": "Zr", "xyz": [4.108427583851779, 10.07877168920249, 5.043789161061193]}, {"species": [{"element": "Zr", "occu": 1}], "abc": [0.26495091, 0.53464198, 0.42969419000000003], "properties": {"magmom": 0.0}, "label": "Zr", "xyz": [1.4230084738517799, 5.796187273938806, 4.65756253420249]}, {"species": [{"element": "Zr", "occu": 1}], "abc": [0.26495091, 0.96535802, 0.07030581], "properties": {"magmom": 0.0}, "label": "Zr", "xyz": [1.4230084738517799, 10.464998316061195, 0.7612047457975111]}, {"species": [{"element": "Zr", "occu": 1}], "abc": [0.76495091, 0.57030581, 0.03464198], "properties": {"magmom": 0.0}, "label": "Zr", "xyz": [4.108427583851779, 6.182413900797512, 0.37497811893880634]}, {"species": [{"element": "Zr", "occu": 1}], "abc": [0.28767093, 0.66531743, 0.14275895], "properties": {"magmom": 0.0}, "label": "Zr", "xyz": [1.5450340256269441, 7.212489627199051, 1.5469235249877968]}, {"species": [{"element": "Zr", "occu": 1}], "abc": [0.78767093, 0.8572410500000001, 0.16531743000000002], "properties": {"magmom": 0.0}, "label": "Zr", "xyz": [4.230453135626943, 9.293052910012204, 1.7912804721990512]}, {"species": [{"element": "Zr", "occu": 1}], "abc": [0.78767093, 0.64275895, 0.33468257], "properties": {"magmom": 0.0}, "label": "Zr", "xyz": [4.230453135626943, 6.968132679987797, 3.6274868078009495]}, {"species": [{"element": "Zr", "occu": 1}], "abc": [0.28767093, 0.83468257, 0.35724105], "properties": {"magmom": 0.0}, "label": "Zr", "xyz": [1.5450340256269441, 9.048695962800949, 3.871843755012203]}, {"species": [{"element": "Zr", "occu": 1}], "abc": [0.71232907, 0.33468257, 0.8572410500000001], "properties": {"magmom": 0.0}, "label": "Zr", "xyz": [3.8258041943730543, 3.6289519328009496, 9.292564535012204]}, {"species": [{"element": "Zr", "occu": 1}], "abc": [0.21232907, 0.14275895, 0.83468257], "properties": {"magmom": 0.0}, "label": "Zr", "xyz": [1.1403850843730552, 1.548388649987797, 9.048207587800949]}, {"species": [{"element": "Zr", "occu": 1}], "abc": [0.21232907, 0.35724105, 0.66531743], "properties": {"magmom": 0.0}, "label": "Zr", "xyz": [1.1403850843730552, 3.873308880012203, 7.212001252199051]}, {"species": [{"element": "Zr", "occu": 1}], "abc": [0.71232907, 0.16531743000000002, 0.64275895], "properties": {"magmom": 0.0}, "label": "Zr", "xyz": [3.8258041943730543, 1.7927455971990511, 6.967644304987798]}, {"species": [{"element": "P", "occu": 1}], "abc": [0.9628728200000001, 0.54375498, 0.79101893], "properties": {"magmom": 0.0}, "label": "P", "xyz": [5.17143414265518, 5.895329353692131, 8.57448176203214]}, {"species": [{"element": "P", "occu": 1}], "abc": [0.46287282, 0.20898107, 0.04375498], "properties": {"magmom": 0.0}, "label": "P", "xyz": [2.48601503265518, 2.2654946729678618, 0.4741201986921313]}, {"species": [{"element": "P", "occu": 1}], "abc": [0.46287282, 0.29101893, 0.45624502], "properties": {"magmom": 0.0}, "label": "P", "xyz": [2.48601503265518, 3.155226107032138, 4.945623831307869]}, {"species": [{"element": "P", "occu": 1}], "abc": [0.9628728200000001, 0.95624502, 0.70898107], "properties": {"magmom": 0.0}, "label": "P", "xyz": [5.17143414265518, 10.366832986307868, 7.684750327967862]}, {"species": [{"element": "P", "occu": 1}], "abc": [0.03712718, 0.45624502, 0.20898107], "properties": {"magmom": 0.0}, "label": "P", "xyz": [0.19940407734481957, 4.946112206307869, 2.265006297967862]}, {"species": [{"element": "P", "occu": 1}], "abc": [0.53712718, 0.79101893, 0.95624502], "properties": {"magmom": 0.0}, "label": "P", "xyz": [2.884823187344819, 8.575946887032138, 10.365367861307869]}, {"species": [{"element": "P", "occu": 1}], "abc": [0.53712718, 0.70898107, 0.54375498], "properties": {"magmom": 0.0}, "label": "P", "xyz": [2.884823187344819, 7.686215452967861, 5.893864228692131]}, {"species": [{"element": "P", "occu": 1}], "abc": [0.03712718, 0.04375498, 0.29101893], "properties": {"magmom": 0.0}, "label": "P", "xyz": [0.19940407734481957, 0.4746085736921313, 3.1547377320321384]}]}, "task_ids": null, "uncorrected_energy_per_atom": null, "energy_per_atom": -8.626327423125, "formation_energy_per_atom": -0.8616835692857141, "energy_above_hull": 0.0, "is_stable": true, "equilibrium_reaction_energy_per_atom": null, "decomposes_to": null, "xas": null, "grain_boundaries": null, "band_gap": 0.0, "cbm": null, "vbm": null, "efermi": 5.5593323, "is_gap_direct": null, "is_metal": null, "es_source_calc_id": null, "bandstructure": null, "dos": null, "dos_energy_up": null, "dos_energy_down": null, "is_magnetic": null, "ordering": null, "total_magnetization": 2.499999999999999e-06, "total_magnetization_normalized_vol": null, "total_magnetization_normalized_formula_units": null, "num_magnetic_sites": null, "num_unique_magnetic_sites": null, "types_of_magnetic_species": null, "bulk_modulus": null, "shear_modulus": null, "universal_anisotropy": null, "homogeneous_poisson": null, "e_total": null, "e_ionic": null, "e_electronic": null, "n": null, "e_ij_max": null, "weighted_surface_energy_EV_PER_ANG2": null, "weighted_surface_energy": null, "weighted_work_function": null, "surface_anisotropy": null, "shape_factor": null, "has_reconstructed": null, "possible_species": null, "has_props": null, "theoretical": null, "database_IDs": null, "fields_not_requested": ["builder_meta", "nsites", "elements", "nelements", "composition", "composition_reduced", "chemsys", "symmetry", "property_name", "deprecated", "deprecation_reasons", "last_updated", "origins", "warnings", "task_ids", "uncorrected_energy_per_atom", "equilibrium_reaction_energy_per_atom", "decomposes_to", "xas", "grain_boundaries", "cbm", "vbm", "is_gap_direct", "is_metal", "es_source_calc_id", "bandstructure", "dos", "dos_energy_up", "dos_energy_down", "is_magnetic", "ordering", "total_magnetization_normalized_vol", "total_magnetization_normalized_formula_units", "num_magnetic_sites", "num_unique_magnetic_sites", "types_of_magnetic_species", "bulk_modulus", "shear_modulus", "universal_anisotropy", "homogeneous_poisson", "e_total", "e_ionic", "e_electronic", "n", "e_ij_max", "weighted_surface_energy_EV_PER_ANG2", "weighted_surface_energy", "weighted_work_function", "surface_anisotropy", "shape_factor", "has_reconstructed", "possible_species", "has_props", "theoretical", "database_IDs"]}