{
  "builder_meta": null,
  "nsites": null,
  "elements": null,
  "nelements": null,
  "composition": null,
  "composition_reduced": null,
  "formula_pretty": "Zr3Pd4",
  "formula_anonymous": "A3B4",
  "chemsys": null,
  "volume": 253.14196192497224,
  "density": 9.17509928795635,
  "density_atomic": 18.08156870892659,
  "symmetry": null,
  "property_name": null,
  "material_id": "mp-12712",
  "deprecated": null,
  "deprecation_reasons": null,
  "last_updated": null,
  "origins": null,
  "warnings": null,
  "structure": {
    "@module": "pymatgen.core.structure",
    "@class": "Structure",
    "charge": 0,
    "lattice": {
      "matrix": [
        [6.83290729, -0.00235507, -3.05265126],
        [-4.7062586, 4.95395849, -3.05233468],
        [-0.0008707999999990001, -0.00250426, 7.48380347]
      ],
      "pbc": [true, true, true],
      "a": 7.483802996823837,
      "b": 7.483803961184963,
      "c": 7.483803939654941,
      "alpha": 114.07970057866355,
      "beta": 114.07971018705493,
      "gamma": 114.07970565205913,
      "volume": 253.14196192497226
    },
    "properties": {},
    "sites": [
      {
        "species": [{ "element": "Zr", "occu": 1 }],
        "abc": [0.26621989, 0.39728551, 0.006682299999999],
        "properties": { "magmom": -0.0 },
        "label": "Zr",
        "xyz": [-0.05067833991572807, 1.9674922245255395, -1.9753158027524744]
      },
      {
        "species": [{ "element": "Zr", "occu": 1 }],
        "abc": [0.39728551, 0.006682299999999, 0.26621989],
        "properties": { "magmom": -0.0 },
        "label": "Zr",
        "xyz": [2.682934601367381, 0.03150151780995495, 0.7591666078516146]
      },
      {
        "species": [{ "element": "Zr", "occu": 1 }],
        "abc": [0.006682299999999, 0.26621989, 0.39728551],
        "properties": { "magmom": -0.0 },
        "label": "Zr",
        "xyz": [-1.2075860666417013, 1.3178316407768325, 2.1402157440512397]
      },
      {
        "species": [{ "element": "Zr", "occu": 1 }],
        "abc": [0.73378011, 0.60271449, 0.9933177],
        "properties": { "magmom": -0.0 },
        "label": "Zr",
        "xyz": [2.176456229915728, 2.9816069354744603, 3.3541333327524665]
      },
      {
        "species": [{ "element": "Zr", "occu": 1 }],
        "abc": [0.60271449, 0.9933177, 0.73378011],
        "properties": { "magmom": -0.0 },
        "label": "Zr",
        "xyz": [-0.5571567113673758, 4.91759764219004, 0.6196509221483879]
      },
      {
        "species": [{ "element": "Zr", "occu": 1 }],
        "abc": [0.9933177, 0.73378011, 0.60271449],
        "properties": { "magmom": -0.0 },
        "label": "Zr",
        "xyz": [3.333363956641695, 3.6312675192231674, -0.761398214051237]
      },
      {
        "species": [{ "element": "Pd", "occu": 1 }],
        "abc": [0.9231784900000001, 0.43893217, 0.7621645300000001],
        "properties": { "magmom": -0.0 },
        "label": "Pd",
        "xyz": [4.241601041540307, 2.1703689419932815, 1.5459796889628663]
      },
      {
        "species": [{ "element": "Pd", "occu": 1 }],
        "abc": [0.7621645300000001, 0.9231784900000001, 0.43893217],
        "properties": { "magmom": -0.0 },
        "label": "Pd",
        "xyz": [0.8627006431852746, 4.570493767225169, -1.8595901367482113]
      },
      {
        "species": [{ "element": "Pd", "occu": 1 }],
        "abc": [0.43893217, 0.7621645300000001, 0.9231784900000001],
        "properties": { "magmom": -0.0 },
        "label": "Pd",
        "xyz": [-0.5885644535480302, 3.7723858492193907, 3.2425983183014253]
      },
      {
        "species": [{ "element": "Pd", "occu": 1 }],
        "abc": [0.23783547, 0.07682151, 0.56106783],
        "properties": { "magmom": -0.0 },
        "label": "Pd",
        "xyz": [1.2630772468147267, 0.37860539277483113, 3.2384076667482113]
      },
      {
        "species": [{ "element": "Pd", "occu": 1 }],
        "abc": [0.07682151, 0.56106783, 0.23783547],
        "properties": { "magmom": -0.0 },
        "label": "Pd",
        "xyz": [-2.115823151540306, 2.778730218006719, -0.16716215896286646]
      },
      {
        "species": [{ "element": "Pd", "occu": 1 }],
        "abc": [0.56106783, 0.23783547, 0.07682151],
        "properties": { "magmom": -0.0 },
        "label": "Pd",
        "xyz": [2.7143423435480307, 1.1767133107806094, -1.8637807883014257]
      },
      {
        "species": [{ "element": "Pd", "occu": 1 }],
        "abc": [0.5, 0.5, 0.5],
        "properties": { "magmom": -0.0 },
        "label": "Pd",
        "xyz": [1.0628889450000003, 2.4745495799999997, 0.6894087649999996]
      },
      {
        "species": [{ "element": "Pd", "occu": 1 }],
        "abc": [-0.0, 0.0, -0.0],
        "properties": { "magmom": -0.0 },
        "label": "Pd",
        "xyz": [0.0, 0.0, 0.0]
      }
    ]
  },
  "task_ids": null,
  "uncorrected_energy_per_atom": null,
  "energy_per_atom": -23.59961126,
  "formation_energy_per_atom": -0.7294412378571451,
  "energy_above_hull": 0.008916877857142,
  "is_stable": false,
  "equilibrium_reaction_energy_per_atom": null,
  "decomposes_to": null,
  "xas": null,
  "grain_boundaries": null,
  "band_gap": 0.0,
  "cbm": null,
  "vbm": null,
  "efermi": 5.109738,
  "is_gap_direct": null,
  "is_metal": null,
  "es_source_calc_id": null,
  "bandstructure": null,
  "dos": null,
  "dos_energy_up": null,
  "dos_energy_down": null,
  "is_magnetic": null,
  "ordering": null,
  "total_magnetization": 1e-7,
  "total_magnetization_normalized_vol": null,
  "total_magnetization_normalized_formula_units": null,
  "num_magnetic_sites": null,
  "num_unique_magnetic_sites": null,
  "types_of_magnetic_species": null,
  "bulk_modulus": null,
  "shear_modulus": null,
  "universal_anisotropy": null,
  "homogeneous_poisson": null,
  "e_total": null,
  "e_ionic": null,
  "e_electronic": null,
  "n": null,
  "e_ij_max": null,
  "weighted_surface_energy_EV_PER_ANG2": null,
  "weighted_surface_energy": null,
  "weighted_work_function": null,
  "surface_anisotropy": null,
  "shape_factor": null,
  "has_reconstructed": null,
  "possible_species": null,
  "has_props": null,
  "theoretical": null,
  "database_IDs": null,
  "fields_not_requested": [
    "builder_meta",
    "nsites",
    "elements",
    "nelements",
    "composition",
    "composition_reduced",
    "chemsys",
    "symmetry",
    "property_name",
    "deprecated",
    "deprecation_reasons",
    "last_updated",
    "origins",
    "warnings",
    "task_ids",
    "uncorrected_energy_per_atom",
    "equilibrium_reaction_energy_per_atom",
    "decomposes_to",
    "xas",
    "grain_boundaries",
    "cbm",
    "vbm",
    "is_gap_direct",
    "is_metal",
    "es_source_calc_id",
    "bandstructure",
    "dos",
    "dos_energy_up",
    "dos_energy_down",
    "is_magnetic",
    "ordering",
    "total_magnetization_normalized_vol",
    "total_magnetization_normalized_formula_units",
    "num_magnetic_sites",
    "num_unique_magnetic_sites",
    "types_of_magnetic_species",
    "bulk_modulus",
    "shear_modulus",
    "universal_anisotropy",
    "homogeneous_poisson",
    "e_total",
    "e_ionic",
    "e_electronic",
    "n",
    "e_ij_max",
    "weighted_surface_energy_EV_PER_ANG2",
    "weighted_surface_energy",
    "weighted_work_function",
    "surface_anisotropy",
    "shape_factor",
    "has_reconstructed",
    "possible_species",
    "has_props",
    "theoretical",
    "database_IDs"
  ]
}
