{
  "builder_meta": null,
  "nsites": null,
  "elements": null,
  "nelements": null,
  "composition": null,
  "composition_reduced": null,
  "formula_pretty": "Zr3Rh",
  "formula_anonymous": "AB3",
  "chemsys": null,
  "volume": 330.8631264552104,
  "density": 7.559883230895028,
  "density_atomic": 20.67894540345065,
  "symmetry": null,
  "property_name": null,
  "material_id": "mp-1188413",
  "deprecated": null,
  "deprecation_reasons": null,
  "last_updated": null,
  "origins": null,
  "warnings": null,
  "structure": {
    "@module": "pymatgen.core.structure",
    "@class": "Structure",
    "charge": 0,
    "lattice": {
      "matrix": [
        [-0.00285892, -3.03e-5, 5.75160265],
        [-5.36442564, 5.36338399, 2.87846153],
        [-5.36423017, -5.36316523, 2.87853631]
      ],
      "pbc": [true, true, true],
      "a": 5.751603360614211,
      "b": 8.113475892055616,
      "c": 8.113228573694174,
      "alpha": 82.75893128254664,
      "beta": 69.19874125308964,
      "gamma": 69.20039577224937,
      "volume": 330.8631264552104
    },
    "properties": {},
    "sites": [
      {
        "species": [{ "element": "Zr", "occu": 1 }],
        "abc": [0.66603069, 0.19167066, 7.707e-5],
        "properties": { "magmom": 0.167 },
        "label": "Zr",
        "xyz": [-1.0305205526191792, 1.0275698293225504, 4.38268235161845]
      },
      {
        "species": [{ "element": "Zr", "occu": 1 }],
        "abc": [0.8594891100000001, 0.80787083, 0.00033933],
        "properties": { "magmom": 0.164 },
        "label": "Zr",
        "xyz": [-4.338040449090029, 4.331075550232483, 7.269841721812384]
      },
      {
        "species": [{ "element": "Zr", "occu": 1 }],
        "abc": [0.14042551, -0.00019101, 0.192116099999999],
        "properties": { "magmom": 0.164 },
        "label": "Zr",
        "xyz": [-1.0299317861202844, -1.0313791025120806, 1.3601350900923443]
      },
      {
        "species": [{ "element": "Zr", "occu": 1 }],
        "abc": [0.33413308, 0.99964051, 0.80827078],
        "properties": { "magmom": 0.167 },
        "label": "Zr",
        "xyz": [-9.699202945977182, 1.026556039136132, 7.125864248787264]
      },
      {
        "species": [{ "element": "Zr", "occu": 1 }],
        "abc": [0.00011656000000000001, 0.35459047, 0.64514855],
        "properties": { "magmom": 0.011 },
        "label": "Zr",
        "xyz": [-5.36289985824512, -1.5582334252721095, 2.8784289601233537]
      },
      {
        "species": [{ "element": "Zr", "occu": 1 }],
        "abc": [0.99976298, 0.64554427, 0.35481849],
        "properties": { "magmom": 0.014 },
        "label": "Zr",
        "xyz": [-5.369160525053708, 1.5593213212068409, 8.629771659171201]
      },
      {
        "species": [{ "element": "Zr", "occu": 1 }],
        "abc": [0.64498888, 0.35487303000000003, 0.35444846],
        "properties": { "magmom": 0.012 },
        "label": "Zr",
        "xyz": [-3.8068770755273373, 0.0023351279226799804, 5.75150087845165]
      },
      {
        "species": [{ "element": "Zr", "occu": 1 }],
        "abc": [0.35511706, 0.64537414, 0.64536992],
        "properties": { "magmom": 0.012 },
        "label": "Zr",
        "xyz": [-6.924989630948612, 0.00015305455721925654, 5.757897605904838]
      },
      {
        "species": [{ "element": "Zr", "occu": 1 }],
        "abc": [0.04725387, 0.40909572, 0.99951749],
        "properties": { "magmom": 0.001 },
        "label": "Zr",
        "xyz": [-7.556340539916954, -3.166441445911611, 4.326499163467469]
      },
      {
        "species": [{ "element": "Zr", "occu": 1 }],
        "abc": [0.45658048, 0.59056941, -0.00014203],
        "properties": { "magmom": 0.004 },
        "label": "Zr",
        "xyz": [-3.1686091306585085, 3.1681984145468185, 4.32559198767396]
      },
      {
        "species": [{ "element": "Zr", "occu": 1 }],
        "abc": [0.54324619, 0.00044049000000000003, 0.40947137],
        "properties": { "magmom": 0.004 },
        "label": "Zr",
        "xyz": [-2.200414749952911, -2.193716557610267, 4.304482365976197]
      },
      {
        "species": [{ "element": "Zr", "occu": 1 }],
        "abc": [0.95293978, 6.384000000000001e-5, 0.59095835],
        "properties": { "magmom": 0.001 },
        "label": "Zr",
        "xyz": [-3.173103453812115, -3.1690937507395827, 7.182209793095181]
      },
      {
        "species": [{ "element": "Rh", "occu": 1 }],
        "abc": [0.50008833, 0.29356909999999903, 0.70612948],
        "properties": { "magmom": 0.017 },
        "label": "Rh",
        "xyz": [-5.364100380222534, -2.2125804167916754, 5.7539560725502135]
      },
      {
        "species": [{ "element": "Rh", "occu": 1 }],
        "abc": [0.49977874, 0.70681653, 0.29352753],
        "properties": { "magmom": 0.015 },
        "label": "Rh",
        "xyz": [-5.367642775894771, 2.216676674629751, 5.754002568860366]
      },
      {
        "species": [{ "element": "Rh", "occu": 1 }],
        "abc": [0.20648846, 0.29365822, 0.29331576],
        "properties": { "magmom": 0.016 },
        "label": "Rh",
        "xyz": [-3.1493112678813038, 0.0018946536365351818, 2.877243528423941]
      },
      {
        "species": [{ "element": "Rh", "occu": 1 }],
        "abc": [0.79356227, 0.70641279, 0.70663836],
        "properties": { "magmom": 0.016 },
        "label": "Rh",
        "xyz": [-7.582338424136205, -0.0010792792557716702, 8.631721072685835]
      }
    ]
  },
  "task_ids": null,
  "uncorrected_energy_per_atom": null,
  "energy_per_atom": -23.5510951175,
  "formation_energy_per_atom": -0.454694031249999,
  "energy_above_hull": 0.0,
  "is_stable": true,
  "equilibrium_reaction_energy_per_atom": null,
  "decomposes_to": null,
  "xas": null,
  "grain_boundaries": null,
  "band_gap": 0.0,
  "cbm": null,
  "vbm": null,
  "efermi": 4.74703695,
  "is_gap_direct": null,
  "is_metal": null,
  "es_source_calc_id": null,
  "bandstructure": null,
  "dos": null,
  "dos_energy_up": null,
  "dos_energy_down": null,
  "is_magnetic": null,
  "ordering": null,
  "total_magnetization": 1.2206112,
  "total_magnetization_normalized_vol": null,
  "total_magnetization_normalized_formula_units": null,
  "num_magnetic_sites": null,
  "num_unique_magnetic_sites": null,
  "types_of_magnetic_species": null,
  "bulk_modulus": null,
  "shear_modulus": null,
  "universal_anisotropy": null,
  "homogeneous_poisson": null,
  "e_total": null,
  "e_ionic": null,
  "e_electronic": null,
  "n": null,
  "e_ij_max": null,
  "weighted_surface_energy_EV_PER_ANG2": null,
  "weighted_surface_energy": null,
  "weighted_work_function": null,
  "surface_anisotropy": null,
  "shape_factor": null,
  "has_reconstructed": null,
  "possible_species": null,
  "has_props": null,
  "theoretical": null,
  "database_IDs": null,
  "fields_not_requested": [
    "builder_meta",
    "nsites",
    "elements",
    "nelements",
    "composition",
    "composition_reduced",
    "chemsys",
    "symmetry",
    "property_name",
    "deprecated",
    "deprecation_reasons",
    "last_updated",
    "origins",
    "warnings",
    "task_ids",
    "uncorrected_energy_per_atom",
    "equilibrium_reaction_energy_per_atom",
    "decomposes_to",
    "xas",
    "grain_boundaries",
    "cbm",
    "vbm",
    "is_gap_direct",
    "is_metal",
    "es_source_calc_id",
    "bandstructure",
    "dos",
    "dos_energy_up",
    "dos_energy_down",
    "is_magnetic",
    "ordering",
    "total_magnetization_normalized_vol",
    "total_magnetization_normalized_formula_units",
    "num_magnetic_sites",
    "num_unique_magnetic_sites",
    "types_of_magnetic_species",
    "bulk_modulus",
    "shear_modulus",
    "universal_anisotropy",
    "homogeneous_poisson",
    "e_total",
    "e_ionic",
    "e_electronic",
    "n",
    "e_ij_max",
    "weighted_surface_energy_EV_PER_ANG2",
    "weighted_surface_energy",
    "weighted_work_function",
    "surface_anisotropy",
    "shape_factor",
    "has_reconstructed",
    "possible_species",
    "has_props",
    "theoretical",
    "database_IDs"
  ]
}
