{"builder_meta": null, "nsites": null, "elements": null, "nelements": null, "composition": null, "composition_reduced": null, "formula_pretty": "Zr3Rh5", "formula_anonymous": "A3B5", "chemsys": null, "volume": 263.6980890920357, "density": 9.926776993577514, "density_atomic": 16.48113056825223, "symmetry": null, "property_name": null, "material_id": "mp-2626", "deprecated": null, "deprecation_reasons": null, "last_updated": null, "origins": null, "warnings": null, "structure": {"@module": "pymatgen.core.structure", "@class": "Structure", "charge": 0, "lattice": {"matrix": [[5.59262328, -0.01196443, 0.0], [-1.19697992, 5.46304112, 0.0], [-0.0, -0.0, 8.63496466]], "pbc": [true, true, true], "a": 5.59263607787805, "b": 5.592636159066139, "c": 8.63496466, "alpha": 90.0, "beta": 90.0, "gamma": 102.48107395969869, "volume": 263.6980890920357}, "properties": {}, "sites": [{"species": [{"element": "Zr", "occu": 1}], "abc": [0.56365907, 0.56365907, 0.75], "properties": {"magmom": -0.0}, "label": "Zr", "xyz": [2.477644248349275, 3.0725488175840785, 6.476223494999999]}, {"species": [{"element": "Zr", "occu": 1}], "abc": [0.43634093, 0.43634093, 0.25], "properties": {"magmom": -0.0}, "label": "Zr", "xyz": [1.9179991116507247, 2.378527872415922, 2.158741165]}, {"species": [{"element": "Zr", "occu": 1}], "abc": [0.20739191, 0.79260809, 0.5], "properties": {"magmom": 0.0}, "label": "Zr", "xyz": [0.21112885579011198, 4.3275692617249, 4.31748233]}, {"species": [{"element": "Zr", "occu": 1}], "abc": [0.79260809, 0.20739191, -0.0], "properties": {"magmom": 0.0}, "label": "Zr", "xyz": [4.184514504209888, 1.1235074282751005, 0.0]}, {"species": [{"element": "Zr", "occu": 1}], "abc": [0.79260809, 0.20739191, 0.5], "properties": {"magmom": 0.0}, "label": "Zr", "xyz": [4.184514504209888, 1.1235074282751005, 4.31748233]}, {"species": [{"element": "Zr", "occu": 1}], "abc": [0.20739191, 0.79260809, -0.0], "properties": {"magmom": 0.0}, "label": "Zr", "xyz": [0.21112885579011198, 4.3275692617249, 0.0]}, {"species": [{"element": "Rh", "occu": 1}], "abc": [0.71170587, 0.71170587, 0.025883470000000002], "properties": {"magmom": -0.0}, "label": "Rh", "xyz": [3.1284051817385228, 3.87956327809317, 0.22350284872817022]}, {"species": [{"element": "Rh", "occu": 1}], "abc": [0.71170587, 0.71170587, 0.47411653000000004], "properties": {"magmom": -0.0}, "label": "Rh", "xyz": [3.1284051817385228, 3.87956327809317, 4.0939794812718295]}, {"species": [{"element": "Rh", "occu": 1}], "abc": [0.28829413, 0.28829413, 0.97411653], "properties": {"magmom": -0.0}, "label": "Rh", "xyz": [1.2672381782614766, 1.5715134119068295, 8.41146181127183]}, {"species": [{"element": "Rh", "occu": 1}], "abc": [0.28829413, 0.28829413, 0.52588347], "properties": {"magmom": -0.0}, "label": "Rh", "xyz": [1.2672381782614766, 1.5715134119068295, 4.54098517872817]}, {"species": [{"element": "Rh", "occu": 1}], "abc": [0.02409901, 0.49428432, 0.75], "properties": {"magmom": 0.0}, "label": "Rh", "xyz": [-0.4568717214599016, 2.700007234213024, 6.476223494999999]}, {"species": [{"element": "Rh", "occu": 1}], "abc": [0.97590099, 0.50571568, 0.25], "properties": {"magmom": 0.0}, "label": "Rh", "xyz": [4.8525150814599005, 2.7510694557869755, 2.158741165]}, {"species": [{"element": "Rh", "occu": 1}], "abc": [0.01233194, 0.01233194, 0.25], "properties": {"magmom": -0.0}, "label": "Rh", "xyz": [0.054206810176918405, 0.0672223506764786, 2.158741165]}, {"species": [{"element": "Rh", "occu": 1}], "abc": [0.9876680600000001, 0.9876680600000001, 0.75], "properties": {"magmom": -0.0}, "label": "Rh", "xyz": [4.341436549823082, 5.383854339323522, 6.476223494999999]}, {"species": [{"element": "Rh", "occu": 1}], "abc": [0.49428432, 0.02409901, 0.75], "properties": {"magmom": 0.0}, "label": "Rh", "xyz": [2.7354999639090907, 0.1257400524345536, 6.476223494999999]}, {"species": [{"element": "Rh", "occu": 1}], "abc": [0.50571568, 0.97590099, 0.25], "properties": {"magmom": 0.0}, "label": "Rh", "xyz": [1.6601433960909093, 5.325336637565446, 2.158741165]}]}, "task_ids": null, "uncorrected_energy_per_atom": null, "energy_per_atom": -24.491088218125, "formation_energy_per_atom": -0.8747733599999991, "energy_above_hull": 0.0, "is_stable": true, "equilibrium_reaction_energy_per_atom": null, "decomposes_to": null, "xas": null, "grain_boundaries": null, "band_gap": 0.0, "cbm": null, "vbm": null, "efermi": 5.72448761, "is_gap_direct": null, "is_metal": null, "es_source_calc_id": null, "bandstructure": null, "dos": null, "dos_energy_up": null, "dos_energy_down": null, "is_magnetic": null, "ordering": null, "total_magnetization": 3e-07, "total_magnetization_normalized_vol": null, "total_magnetization_normalized_formula_units": null, "num_magnetic_sites": null, "num_unique_magnetic_sites": null, "types_of_magnetic_species": null, "bulk_modulus": null, "shear_modulus": null, "universal_anisotropy": null, "homogeneous_poisson": null, "e_total": null, "e_ionic": null, "e_electronic": null, "n": null, "e_ij_max": null, "weighted_surface_energy_EV_PER_ANG2": null, "weighted_surface_energy": null, "weighted_work_function": null, "surface_anisotropy": null, "shape_factor": null, "has_reconstructed": null, "possible_species": null, "has_props": null, "theoretical": null, "database_IDs": null, "fields_not_requested": ["builder_meta", "nsites", "elements", "nelements", "composition", "composition_reduced", "chemsys", "symmetry", "property_name", "deprecated", "deprecation_reasons", "last_updated", "origins", "warnings", "task_ids", "uncorrected_energy_per_atom", "equilibrium_reaction_energy_per_atom", "decomposes_to", "xas", "grain_boundaries", "cbm", "vbm", "is_gap_direct", "is_metal", "es_source_calc_id", "bandstructure", "dos", "dos_energy_up", "dos_energy_down", "is_magnetic", "ordering", "total_magnetization_normalized_vol", "total_magnetization_normalized_formula_units", "num_magnetic_sites", "num_unique_magnetic_sites", "types_of_magnetic_species", "bulk_modulus", "shear_modulus", "universal_anisotropy", "homogeneous_poisson", "e_total", "e_ionic", "e_electronic", "n", "e_ij_max", "weighted_surface_energy_EV_PER_ANG2", "weighted_surface_energy", "weighted_work_function", "surface_anisotropy", "shape_factor", "has_reconstructed", "possible_species", "has_props", "theoretical", "database_IDs"]}