{"builder_meta": null, "nsites": null, "elements": null, "nelements": null, "composition": null, "composition_reduced": null, "formula_pretty": "Zr3Sc", "formula_anonymous": "AB3", "chemsys": null, "volume": 188.77689755624223, "density": 5.605496249111247, "density_atomic": 23.59711219453028, "symmetry": null, "property_name": null, "material_id": "mp-1188062", "deprecated": null, "deprecation_reasons": null, "last_updated": null, "origins": null, "warnings": null, "structure": {"@module": "pymatgen.core.structure", "@class": "Structure", "charge": 0, "lattice": {"matrix": [[6.5200209000000005, 0.0, 0.0], [-3.2600104500000002, 5.64650469, 0.0], [0.0, 0.0, 5.12767113]], "pbc": [true, true, true], "a": 6.5200209000000005, "b": 6.520021729127994, "c": 5.12767113, "alpha": 90.0, "beta": 90.0, "gamma": 119.99999579336792, "volume": 188.77689755624223}, "properties": {}, "sites": [{"species": [{"element": "Zr", "occu": 1}], "abc": [0.16725566, 0.83274634, 0.25], "properties": {"magmom": 0.0}, "label": "Zr", "xyz": [-1.6242513717559595, 4.702106114390335, 1.2819177825]}, {"species": [{"element": "Zr", "occu": 1}], "abc": [0.83274634, 0.66548969, 0.750000999999999], "properties": {"magmom": 0.0}, "label": "Zr", "xyz": [3.2600201974312464, 3.7576906557316465, 3.845758475171125]}, {"species": [{"element": "Zr", "occu": 1}], "abc": [0.33451031000000003, 0.16725366, 0.750000999999999], "properties": {"magmom": 0.0}, "label": "Zr", "xyz": [1.635765533064732, 0.9443985756096654, 3.845758475171125]}, {"species": [{"element": "Zr", "occu": 1}], "abc": [0.83274534, 0.16725366, 0.750000999999999], "properties": {"magmom": 0.0}, "label": "Zr", "xyz": [4.884268341776859, 0.9443985756096654, 3.845758475171125]}, {"species": [{"element": "Zr", "occu": 1}], "abc": [0.16725466, 0.33451031000000003, 0.25], "properties": {"magmom": 0.0}, "label": "Zr", "xyz": [-3.227410345640891e-06, 1.8888140342683541, 1.2819177825]}, {"species": [{"element": "Zr", "occu": 1}], "abc": [0.66548969, 0.83274634, 0.25], "properties": {"magmom": 0.0}, "label": "Zr", "xyz": [1.6242449169352677, 4.702106114390335, 1.2819177825]}, {"species": [{"element": "Sc", "occu": 1}], "abc": [0.333333, 0.666667, 0.750000999999999], "properties": {"magmom": -0.0}, "label": "Sc", "xyz": [-3.260010450034656e-06, 3.76433834216823, 3.845758475171125]}, {"species": [{"element": "Sc", "occu": 1}], "abc": [0.666667999999999, 0.333333, 0.25], "properties": {"magmom": -0.0}, "label": "Sc", "xyz": [3.260020230031344, 1.88216634783177, 1.2819177825]}]}, "task_ids": null, "uncorrected_energy_per_atom": null, "energy_per_atom": -19.92738974125, "formation_energy_per_atom": -0.015423973749999001, "energy_above_hull": 0.0, "is_stable": true, "equilibrium_reaction_energy_per_atom": null, "decomposes_to": null, "xas": null, "grain_boundaries": null, "band_gap": 0.0, "cbm": null, "vbm": null, "efermi": 4.0722998, "is_gap_direct": null, "is_metal": null, "es_source_calc_id": null, "bandstructure": null, "dos": null, "dos_energy_up": null, "dos_energy_down": null, "is_magnetic": null, "ordering": null, "total_magnetization": 4.999999999999999e-06, "total_magnetization_normalized_vol": null, "total_magnetization_normalized_formula_units": null, "num_magnetic_sites": null, "num_unique_magnetic_sites": null, "types_of_magnetic_species": null, "bulk_modulus": null, "shear_modulus": null, "universal_anisotropy": null, "homogeneous_poisson": null, "e_total": null, "e_ionic": null, "e_electronic": null, "n": null, "e_ij_max": null, "weighted_surface_energy_EV_PER_ANG2": null, "weighted_surface_energy": null, "weighted_work_function": null, "surface_anisotropy": null, "shape_factor": null, "has_reconstructed": null, "possible_species": null, "has_props": null, "theoretical": null, "database_IDs": null, "fields_not_requested": ["builder_meta", "nsites", "elements", "nelements", "composition", "composition_reduced", "chemsys", "symmetry", "property_name", "deprecated", "deprecation_reasons", "last_updated", "origins", "warnings", "task_ids", "uncorrected_energy_per_atom", "equilibrium_reaction_energy_per_atom", "decomposes_to", "xas", "grain_boundaries", "cbm", "vbm", "is_gap_direct", "is_metal", "es_source_calc_id", "bandstructure", "dos", "dos_energy_up", "dos_energy_down", "is_magnetic", "ordering", "total_magnetization_normalized_vol", "total_magnetization_normalized_formula_units", "num_magnetic_sites", "num_unique_magnetic_sites", "types_of_magnetic_species", "bulk_modulus", "shear_modulus", "universal_anisotropy", "homogeneous_poisson", "e_total", "e_ionic", "e_electronic", "n", "e_ij_max", "weighted_surface_energy_EV_PER_ANG2", "weighted_surface_energy", "weighted_work_function", "surface_anisotropy", "shape_factor", "has_reconstructed", "possible_species", "has_props", "theoretical", "database_IDs"]}