{
  "builder_meta": null,
  "nsites": null,
  "elements": null,
  "nelements": null,
  "composition": null,
  "composition_reduced": null,
  "formula_pretty": "Zr3Sb",
  "formula_anonymous": "AB3",
  "chemsys": null,
  "volume": 371.549228047702,
  "density": 7.06910669828622,
  "density_atomic": 23.221826752981375,
  "symmetry": null,
  "property_name": null,
  "material_id": "mp-1105139",
  "deprecated": null,
  "deprecation_reasons": null,
  "last_updated": null,
  "origins": null,
  "warnings": null,
  "structure": {
    "@module": "pymatgen.core.structure",
    "@class": "Structure",
    "charge": 0,
    "lattice": {
      "matrix": [
        [2e-8, -0.0, 5.7134848],
        [-5.70197212, 5.70243311, 2.85674035],
        [-5.7024331, -5.70197213, 2.85674035]
      ],
      "pbc": [true, true, true],
      "a": 5.7134848,
      "b": 8.555185261500752,
      "c": 8.555185261500213,
      "alpha": 83.59809291511337,
      "beta": 70.49317359084121,
      "gamma": 70.493173590831,
      "volume": 371.549228047702
    },
    "properties": {},
    "sites": [
      {
        "species": [{ "element": "Zr", "occu": 1 }],
        "abc": [0.89561619, 0.97411471, 0.8135500000000001],
        "properties": { "magmom": -0.0 },
        "label": "Zr",
        "xyz": [-10.193589348694562, 0.915984548880548, 10.223983397526961]
      },
      {
        "species": [{ "element": "Zr", "occu": 1 }],
        "abc": [0.6832819, 0.025885290000000002, 0.18645],
        "properties": { "magmom": -0.0 },
        "label": "Zr",
        "xyz": [-1.210815839727477, -0.915523568880548, 4.510507540437072]
      },
      {
        "species": [{ "element": "Zr", "occu": 1 }],
        "abc": [0.1302681, 0.18645, 0.97411471],
        "properties": { "magmom": -0.0 },
        "label": "Zr",
        "xyz": [-6.617956664669539, -4.491156274483532, 4.059716845117928]
      },
      {
        "species": [{ "element": "Zr", "occu": 1 }],
        "abc": [0.29083381, 0.8135500000000001, 0.025885290000000002],
        "properties": { "magmom": -0.0 },
        "label": "Zr",
        "xyz": [-4.7864485469084235, 4.491617254483533, 4.05972321691804]
      },
      {
        "species": [{ "element": "Zr", "occu": 1 }],
        "abc": [0.61635114, 0.38331126, 0.33229669],
        "properties": { "magmom": -0.0 },
        "label": "Zr",
        "xyz": [-4.080529749551487, 0.2910603551885691, 5.565818975398455]
      },
      {
        "species": [{ "element": "Zr", "occu": 1 }],
        "abc": [0.33195909, 0.61668874, 0.66770331],
        "properties": { "magmom": -0.0 },
        "label": "Zr",
        "xyz": [-7.323875451482309, -0.2905993751885694, 5.565817809391049]
      },
      {
        "species": [{ "element": "Zr", "occu": 1 }],
        "abc": [0.000337599999999, 0.66770331, 0.38331126],
        "properties": { "magmom": -0.0 },
        "label": "Zr",
        "xyz": [-5.993032474671672, 1.6219033409654111, 3.0044046030253737]
      },
      {
        "species": [{ "element": "Zr", "occu": 1 }],
        "abc": [0.05135217, 0.33229669, 0.61668874],
        "properties": { "magmom": -0.0 },
        "label": "Zr",
        "xyz": [-5.411372744294534, -1.6214423609654098, 3.0044048121851166]
      },
      {
        "species": [{ "element": "Zr", "occu": 1 }],
        "abc": [0.02178802, 0.031939050000000004, 0.39938145],
        "properties": { "magmom": 0.0 },
        "label": "Zr",
        "xyz": [-2.459561572209521, -2.095131600917043, 1.3566561972242712]
      },
      {
        "species": [{ "element": "Zr", "occu": 1 }],
        "abc": [0.45310951, 0.96806095, 0.60061855],
        "properties": { "magmom": 0.0 },
        "label": "Zr",
        "xyz": [-8.944843638292529, 2.0955925809170437, 7.070144321988272]
      },
      {
        "species": [{ "element": "Zr", "occu": 1 }],
        "abc": [0.94627293, 0.60061855, 0.031939050000000004],
        "properties": { "magmom": 0.0 },
        "label": "Zr",
        "xyz": [-3.606840503831922, 3.242871533041514, 7.213568821825624]
      },
      {
        "species": [{ "element": "Zr", "occu": 1 }],
        "abc": [0.57882954, 0.39938145, 0.96806095],
        "properties": { "magmom": 0.0 },
        "label": "Zr",
        "xyz": [-7.797564685666028, -3.2424105530415135, 7.213561658961831]
      },
      {
        "species": [{ "element": "Sb", "occu": 1 }],
        "abc": [0.18173344, 0.32567724000000003, 0.25376099],
        "properties": { "magmom": 0.0 },
        "label": "Sb",
        "xyz": [-3.3040576078286494, 0.41021458388820786, 2.6936358190652925]
      },
      {
        "species": [{ "element": "Sb", "occu": 1 }],
        "abc": [0.76117367, 0.67432276, 0.74623901],
        "properties": { "magmom": 0.0 },
        "label": "Sb",
        "xyz": [-8.10034759331321, -0.4097536038882068, 8.407130321731636]
      },
      {
        "species": [{ "element": "Sb", "occu": 1 }],
        "abc": [0.49258731, 0.74623901, 0.32567724000000003],
        "properties": { "magmom": 0.0 },
        "label": "Sb",
        "xyz": [-6.112186693317299, 2.3983754927423, 5.8765765115535755]
      },
      {
        "species": [{ "element": "Sb", "occu": 1 }],
        "abc": [0.5645035700000001, 0.25376099, 0.67432276],
        "properties": { "magmom": 0.0 },
        "label": "Sb",
        "xyz": [-5.292218505540884, -2.3979145127422994, 5.876576863545049]
      }
    ]
  },
  "task_ids": null,
  "uncorrected_energy_per_atom": null,
  "energy_per_atom": -24.0676798075,
  "formation_energy_per_atom": -0.5787569462499991,
  "energy_above_hull": 0.0,
  "is_stable": true,
  "equilibrium_reaction_energy_per_atom": null,
  "decomposes_to": null,
  "xas": null,
  "grain_boundaries": null,
  "band_gap": 0.0,
  "cbm": null,
  "vbm": null,
  "efermi": 5.68156453,
  "is_gap_direct": null,
  "is_metal": null,
  "es_source_calc_id": null,
  "bandstructure": null,
  "dos": null,
  "dos_energy_up": null,
  "dos_energy_down": null,
  "is_magnetic": null,
  "ordering": null,
  "total_magnetization": 7e-7,
  "total_magnetization_normalized_vol": null,
  "total_magnetization_normalized_formula_units": null,
  "num_magnetic_sites": null,
  "num_unique_magnetic_sites": null,
  "types_of_magnetic_species": null,
  "bulk_modulus": null,
  "shear_modulus": null,
  "universal_anisotropy": null,
  "homogeneous_poisson": null,
  "e_total": null,
  "e_ionic": null,
  "e_electronic": null,
  "n": null,
  "e_ij_max": null,
  "weighted_surface_energy_EV_PER_ANG2": null,
  "weighted_surface_energy": null,
  "weighted_work_function": null,
  "surface_anisotropy": null,
  "shape_factor": null,
  "has_reconstructed": null,
  "possible_species": null,
  "has_props": null,
  "theoretical": null,
  "database_IDs": null,
  "fields_not_requested": [
    "builder_meta",
    "nsites",
    "elements",
    "nelements",
    "composition",
    "composition_reduced",
    "chemsys",
    "symmetry",
    "property_name",
    "deprecated",
    "deprecation_reasons",
    "last_updated",
    "origins",
    "warnings",
    "task_ids",
    "uncorrected_energy_per_atom",
    "equilibrium_reaction_energy_per_atom",
    "decomposes_to",
    "xas",
    "grain_boundaries",
    "cbm",
    "vbm",
    "is_gap_direct",
    "is_metal",
    "es_source_calc_id",
    "bandstructure",
    "dos",
    "dos_energy_up",
    "dos_energy_down",
    "is_magnetic",
    "ordering",
    "total_magnetization_normalized_vol",
    "total_magnetization_normalized_formula_units",
    "num_magnetic_sites",
    "num_unique_magnetic_sites",
    "types_of_magnetic_species",
    "bulk_modulus",
    "shear_modulus",
    "universal_anisotropy",
    "homogeneous_poisson",
    "e_total",
    "e_ionic",
    "e_electronic",
    "n",
    "e_ij_max",
    "weighted_surface_energy_EV_PER_ANG2",
    "weighted_surface_energy",
    "weighted_work_function",
    "surface_anisotropy",
    "shape_factor",
    "has_reconstructed",
    "possible_species",
    "has_props",
    "theoretical",
    "database_IDs"
  ]
}
