{"builder_meta": null, "nsites": null, "elements": null, "nelements": null, "composition": null, "composition_reduced": null, "formula_pretty": "Zr3Si", "formula_anonymous": "AB3", "chemsys": null, "volume": 661.7151763145079, "density": 6.057955269279062, "density_atomic": 20.67859925982837, "symmetry": null, "property_name": null, "material_id": "mp-1200912", "deprecated": null, "deprecation_reasons": null, "last_updated": null, "origins": null, "warnings": null, "structure": {"@module": "pymatgen.core.structure", "@class": "Structure", "charge": 0, "lattice": {"matrix": [[11.02498341, 6.161e-05, -0.00014026000000000002], [6.183000000000001e-05, 11.02509169, -3.096e-05], [-6.956e-05, -1.5300000000000003e-05, 5.44391005]], "pbc": [true, true, true], "a": 11.02498341106434, "b": 11.025091690216845, "c": 5.443910050465904, "alpha": 90.00032192730994, "beta": 90.00146102009036, "gamma": 89.99935849528894, "volume": 661.7151763145079}, "properties": {}, "sites": [{"species": [{"element": "Zr", "occu": 1}], "abc": [0.91772706, 0.60819198, 0.53358234], "properties": {"magmom": 0.0}, "label": "Zr", "xyz": [10.117926099930628, 6.70542072197701, 2.904626713207381]}, {"species": [{"element": "Zr", "occu": 1}], "abc": [0.08229863, 0.39178431, 0.53357714], "properties": {"magmom": 0.0}, "label": "Zr", "xyz": [0.9073281388137573, 4.319454847141737, 2.904722282048176]}, {"species": [{"element": "Zr", "occu": 1}], "abc": [0.891792199999999, 0.41768749, 0.03360497], "properties": {"magmom": 0.0}, "label": "Zr", "xyz": [9.832017698223185, 4.6050973041773595, 0.1828044195342861]}, {"species": [{"element": "Zr", "occu": 1}], "abc": [0.10823908, 0.58229475, 0.033603060000000004], "properties": {"magmom": 0.0}, "label": "Zr", "xyz": [1.1933677271692018, 6.419859163838528, 0.18289882658593223]}, {"species": [{"element": "Zr", "occu": 1}], "abc": [0.58226712, 0.89179518, 0.96642843], "properties": {"magmom": 0.0}, "label": "Zr", "xyz": [6.419473253122868, 9.832144715322338, 5.2610401639176985]}, {"species": [{"element": "Zr", "occu": 1}], "abc": [0.41769314, 0.10821582, 0.96641387], "properties": {"magmom": 0.0}, "label": "Zr", "xyz": [4.604999406206161, 1.1931002857506803, 5.26100824335079]}, {"species": [{"element": "Zr", "occu": 1}], "abc": [0.60820429, 0.08231102, 0.46639568000000003], "properties": {"magmom": 0.0}, "label": "Zr", "xyz": [6.705414853947696, 0.9075168782098267, 2.53892827454569]}, {"species": [{"element": "Zr", "occu": 1}], "abc": [0.39175451, 0.91770456, 0.46639691], "properties": {"magmom": 0.0}, "label": "Zr", "xyz": [4.319111272646565, 10.117793918453744, 2.5389394660171956]}, {"species": [{"element": "Zr", "occu": 1}], "abc": [0.86184634, 0.9724566800000001, 0.72207455], "properties": {"magmom": 0.0}, "label": "Zr", "xyz": [9.501851499960047, 10.72146611216538, 3.9307579097677663]}, {"species": [{"element": "Zr", "occu": 1}], "abc": [0.13818352, 0.02756328, 0.7220778], "properties": {"magmom": 0.0}, "label": "Zr", "xyz": [1.5234224920412378, 0.3038851549734704, 3.9309063573222263]}, {"species": [{"element": "Zr", "occu": 1}], "abc": [0.527568599999999, 0.36181923, 0.22208115], "properties": {"magmom": 0.0}, "label": "Zr", "xyz": [5.816441985955113, 3.9891192916150495, 1.2089046057053607]}, {"species": [{"element": "Zr", "occu": 1}], "abc": [0.47240275, 0.63816907, 0.22206696], "properties": {"magmom": 0.0}, "label": "Zr", "xyz": [5.208256492604238, 7.035898217580968, 1.208826538392826]}, {"species": [{"element": "Zr", "occu": 1}], "abc": [0.63816462, 0.52754539, 0.77792455], "properties": {"magmom": 0.0}, "label": "Zr", "xyz": [7.035732854048719, 5.816263710463432, 4.234845434111853]}, {"species": [{"element": "Zr", "occu": 1}], "abc": [0.36181435, 0.47243747, 0.77792289], "properties": {"magmom": 0.0}, "label": "Zr", "xyz": [3.9889723047424757, 5.208676813703511, 4.234876864251243]}, {"species": [{"element": "Zr", "occu": 1}], "abc": [0.9724368800000001, 0.13818335, 0.27791587], "properties": {"magmom": 0.0}, "label": "Zr", "xyz": [10.721089681320775, 1.5235397635047274, 1.5128083255941889]}, {"species": [{"element": "Zr", "occu": 1}], "abc": [0.02760164, 0.86183455, 0.27792371], "properties": {"magmom": 0.0}, "label": "Zr", "xyz": [0.30434157794575134, 9.501802383664167, 1.5129611241985912]}, {"species": [{"element": "Zr", "occu": 1}], "abc": [0.82067301, 0.71616061, 0.00969221], "properties": {"magmom": 0.0}, "label": "Zr", "xyz": [9.047949926305154, 7.895786803389663, 0.0526262394968423]}, {"species": [{"element": "Zr", "occu": 1}], "abc": [0.17934126, 0.28382998, 0.0096876], "properties": {"magmom": 0.0}, "label": "Zr", "xyz": [1.9772512915667042, 3.1292624548656147, 0.0527044812190716]}, {"species": [{"element": "Zr", "occu": 1}], "abc": [0.78383566, 0.32064256, 0.50967717], "properties": {"magmom": 0.0}, "label": "Zr", "xyz": [8.64175951985194, 3.535154117770638, 2.7745168001352294]}, {"species": [{"element": "Zr", "occu": 1}], "abc": [0.2161725, 0.6793566600000001, 0.50968243], "properties": {"magmom": 0.0}, "label": "Zr", "xyz": [2.3833047773106824, 7.4899749869587025, 2.774613949748378]}, {"species": [{"element": "Zr", "occu": 1}], "abc": [0.6793318700000001, 0.78384043, 0.49030527], "properties": {"magmom": 0.0}, "label": "Zr", "xyz": [7.489636955853483, 8.641946963044907, 2.6690582361331647]}, {"species": [{"element": "Zr", "occu": 1}], "abc": [0.32064908000000003, 0.21615856, 0.49031385], "properties": {"magmom": 0.0}, "label": "Zr", "xyz": [3.535130046284122, 2.38318019696628, 2.6691728291602144]}, {"species": [{"element": "Zr", "occu": 1}], "abc": [0.71617746, 0.17936855000000002, 0.99033156], "properties": {"magmom": 0.0}, "label": "Zr", "xyz": [7.895786818010073, 1.9775836816727923, 5.391169928015331]}, {"species": [{"element": "Zr", "occu": 1}], "abc": [0.28382116, 0.82064568, 0.99032207], "properties": {"magmom": 0.0}, "label": "Zr", "xyz": [3.1291054341261613, 9.047696201296395, 5.39115905366365]}, {"species": [{"element": "Si", "occu": 1}], "abc": [0.79481517, 0.95773228, 0.21224147000000002], "properties": {"magmom": -0.0}, "label": "Si", "xyz": [8.762868516336551, 10.559131922740887, 1.1552823393926408]}, {"species": [{"element": "Si", "occu": 1}], "abc": [0.2051892, 0.0422781, 0.21224441], "properties": {"magmom": -0.0}, "label": "Si", "xyz": [2.262195376244936, 0.466129323346128, 1.1554093878881526]}, {"species": [{"element": "Si", "occu": 1}], "abc": [0.54226851, 0.2948105, 0.7122501999999991], "properties": {"magmom": 0.0}, "label": "Si", "xyz": [5.978470010524723, 3.250335305409586, 3.8773408359802124]}, {"species": [{"element": "Si", "occu": 1}], "abc": [0.45771618000000003, 0.70518885, 0.71224307], "properties": {"magmom": -0.0}, "label": "Si", "xyz": [5.04630734918722, 7.774789032590535, 3.8773011748976507]}, {"species": [{"element": "Si", "occu": 1}], "abc": [0.7051899500000001, 0.54226646, 0.28776233], "properties": {"magmom": -0.0}, "label": "Si", "xyz": [7.774721011236278, 5.978576485900888, 1.566436541786428]}, {"species": [{"element": "Si", "occu": 1}], "abc": [0.29480812, 0.45772288, 0.28776035], "properties": {"magmom": -0.0}, "label": "Si", "xyz": [3.2502629165290142, 5.0464504810057855, 1.5664859404692417]}, {"species": [{"element": "Si", "occu": 1}], "abc": [0.95773346, 0.20519662, 0.7877465], "properties": {"magmom": -0.0}, "label": "Si", "xyz": [10.558953399362375, 2.262358503415108, 4.28828040361987]}, {"species": [{"element": "Si", "occu": 1}], "abc": [0.04228466, 0.79480511, 0.78774963], "properties": {"magmom": 0.0}, "label": "Si", "xyz": [0.4661820219331791, 8.762789766019099, 4.288407589628164]}]}, "task_ids": null, "uncorrected_energy_per_atom": null, "energy_per_atom": -19.859733453125, "formation_energy_per_atom": -0.603948375624998, "energy_above_hull": 0.020884128124997, "is_stable": false, "equilibrium_reaction_energy_per_atom": null, "decomposes_to": null, "xas": null, "grain_boundaries": null, "band_gap": 0.0, "cbm": null, "vbm": null, "efermi": 4.98298702, "is_gap_direct": null, "is_metal": null, "es_source_calc_id": null, "bandstructure": null, "dos": null, "dos_energy_up": null, "dos_energy_down": null, "is_magnetic": null, "ordering": null, "total_magnetization": 0.0053067, "total_magnetization_normalized_vol": null, "total_magnetization_normalized_formula_units": null, "num_magnetic_sites": null, "num_unique_magnetic_sites": null, "types_of_magnetic_species": null, "bulk_modulus": null, "shear_modulus": null, "universal_anisotropy": null, "homogeneous_poisson": null, "e_total": null, "e_ionic": null, "e_electronic": null, "n": null, "e_ij_max": null, "weighted_surface_energy_EV_PER_ANG2": null, "weighted_surface_energy": null, "weighted_work_function": null, "surface_anisotropy": null, "shape_factor": null, "has_reconstructed": null, "possible_species": null, "has_props": null, "theoretical": null, "database_IDs": null, "fields_not_requested": ["builder_meta", "nsites", "elements", "nelements", "composition", "composition_reduced", "chemsys", "symmetry", "property_name", "deprecated", "deprecation_reasons", "last_updated", "origins", "warnings", "task_ids", "uncorrected_energy_per_atom", "equilibrium_reaction_energy_per_atom", "decomposes_to", "xas", "grain_boundaries", "cbm", "vbm", "is_gap_direct", "is_metal", "es_source_calc_id", "bandstructure", "dos", "dos_energy_up", "dos_energy_down", "is_magnetic", "ordering", "total_magnetization_normalized_vol", "total_magnetization_normalized_formula_units", "num_magnetic_sites", "num_unique_magnetic_sites", "types_of_magnetic_species", "bulk_modulus", "shear_modulus", "universal_anisotropy", "homogeneous_poisson", "e_total", "e_ionic", "e_electronic", "n", "e_ij_max", "weighted_surface_energy_EV_PER_ANG2", "weighted_surface_energy", "weighted_work_function", "surface_anisotropy", "shape_factor", "has_reconstructed", "possible_species", "has_props", "theoretical", "database_IDs"]}