{"builder_meta": null, "nsites": null, "elements": null, "nelements": null, "composition": null, "composition_reduced": null, "formula_pretty": "Zr3Se2", "formula_anonymous": "A2B3", "chemsys": null, "volume": 108.94851181897465, "density": 6.5781107503591425, "density_atomic": 21.78970236379493, "symmetry": null, "property_name": null, "material_id": "mp-1215426", "deprecated": null, "deprecation_reasons": null, "last_updated": null, "origins": null, "warnings": null, "structure": {"@module": "pymatgen.core.structure", "@class": "Structure", "charge": 0, "lattice": {"matrix": [[1.71629, -2.972701, 0.0], [1.71629, 2.972701, 0.0], [0.0, 0.0, 10.677004]], "pbc": [true, true, true], "a": 3.432579583855413, "b": 3.432579583855413, "c": 10.677004, "alpha": 90.0, "beta": 90.0, "gamma": 119.99999197923773, "volume": 108.94851181897465}, "properties": {}, "sites": [{"species": [{"element": "Zr", "occu": 1}], "abc": [0.0, 0.0, 0.353076], "properties": {"magmom": 0.003}, "label": "Zr", "xyz": [0.0, 0.0, 3.769793864304]}, {"species": [{"element": "Zr", "occu": 1}], "abc": [0.0, 0.0, 0.0], "properties": {"magmom": -0.001}, "label": "Zr", "xyz": [0.0, 0.0, 0.0]}, {"species": [{"element": "Zr", "occu": 1}], "abc": [0.0, 0.0, 0.646923999999999], "properties": {"magmom": 0.003}, "label": "Zr", "xyz": [0.0, 0.0, 6.90721013569599]}, {"species": [{"element": "Se", "occu": 1}], "abc": [0.666667, 0.333333, 0.177564], "properties": {"magmom": 0.0}, "label": "Se", "xyz": [1.71629, -0.990902315134, 1.895851538256]}, {"species": [{"element": "Se", "occu": 1}], "abc": [0.666667, 0.333333, 0.822436], "properties": {"magmom": 0.0}, "label": "Se", "xyz": [1.71629, -0.990902315134, 8.781152461744]}]}, "task_ids": null, "uncorrected_energy_per_atom": null, "energy_per_atom": -20.3637167155, "formation_energy_per_atom": -0.9892174801250001, "energy_above_hull": 0.27114162683333004, "is_stable": false, "equilibrium_reaction_energy_per_atom": null, "decomposes_to": null, "xas": null, "grain_boundaries": null, "band_gap": 0.0, "cbm": null, "vbm": null, "efermi": 5.4122014400000005, "is_gap_direct": null, "is_metal": null, "es_source_calc_id": null, "bandstructure": null, "dos": null, "dos_energy_up": null, "dos_energy_down": null, "is_magnetic": null, "ordering": null, "total_magnetization": 0.011377499999999001, "total_magnetization_normalized_vol": null, "total_magnetization_normalized_formula_units": null, "num_magnetic_sites": null, "num_unique_magnetic_sites": null, "types_of_magnetic_species": null, "bulk_modulus": null, "shear_modulus": null, "universal_anisotropy": null, "homogeneous_poisson": null, "e_total": null, "e_ionic": null, "e_electronic": null, "n": null, "e_ij_max": null, "weighted_surface_energy_EV_PER_ANG2": null, "weighted_surface_energy": null, "weighted_work_function": null, "surface_anisotropy": null, "shape_factor": null, "has_reconstructed": null, "possible_species": null, "has_props": null, "theoretical": null, "database_IDs": null, "fields_not_requested": ["builder_meta", "nsites", "elements", "nelements", "composition", "composition_reduced", "chemsys", "symmetry", "property_name", "deprecated", "deprecation_reasons", "last_updated", "origins", "warnings", "task_ids", "uncorrected_energy_per_atom", "equilibrium_reaction_energy_per_atom", "decomposes_to", "xas", "grain_boundaries", "cbm", "vbm", "is_gap_direct", "is_metal", "es_source_calc_id", "bandstructure", "dos", "dos_energy_up", "dos_energy_down", "is_magnetic", "ordering", "total_magnetization_normalized_vol", "total_magnetization_normalized_formula_units", "num_magnetic_sites", "num_unique_magnetic_sites", "types_of_magnetic_species", "bulk_modulus", "shear_modulus", "universal_anisotropy", "homogeneous_poisson", "e_total", "e_ionic", "e_electronic", "n", "e_ij_max", "weighted_surface_energy_EV_PER_ANG2", "weighted_surface_energy", "weighted_work_function", "surface_anisotropy", "shape_factor", "has_reconstructed", "possible_species", "has_props", "theoretical", "database_IDs"]}