{
  "builder_meta": null,
  "nsites": null,
  "elements": null,
  "nelements": null,
  "composition": null,
  "composition_reduced": null,
  "formula_pretty": "Zr3Se",
  "formula_anonymous": "AB3",
  "chemsys": null,
  "volume": 165.70057173490457,
  "density": 7.067678837826774,
  "density_atomic": 20.71257146686307,
  "symmetry": null,
  "property_name": null,
  "material_id": "mp-1188055",
  "deprecated": null,
  "deprecation_reasons": null,
  "last_updated": null,
  "origins": null,
  "warnings": null,
  "structure": {
    "@module": "pymatgen.core.structure",
    "@class": "Structure",
    "charge": 0,
    "lattice": {
      "matrix": [
        [3.027173, -5.243218, 0.0],
        [3.027173, 5.243218, 0.0],
        [0.0, 0.0, 5.21986]
      ],
      "pbc": [true, true, true],
      "a": 6.054346485579843,
      "b": 6.054346485579843,
      "c": 5.21986,
      "alpha": 90.0,
      "beta": 90.0,
      "gamma": 120.0000053062215,
      "volume": 165.70057173490457
    },
    "properties": {},
    "sites": [
      {
        "species": [{ "element": "Zr", "occu": 1 }],
        "abc": [0.165476999999999, 0.330953999999999, 0.25],
        "properties": { "magmom": 0.008 },
        "label": "Zr",
        "xyz": [1.502782519562994, 0.8676319849859999, 1.304965]
      },
      {
        "species": [{ "element": "Zr", "occu": 1 }],
        "abc": [0.669045999999999, 0.834523, 0.25],
        "properties": { "magmom": 0.009000000000000001 },
        "label": "Zr",
        "xyz": [4.551563480436997, 0.8676319849860055, 1.304965]
      },
      {
        "species": [{ "element": "Zr", "occu": 1 }],
        "abc": [0.165476999999999, 0.834523, 0.25],
        "properties": { "magmom": 0.007 },
        "label": "Zr",
        "xyz": [3.027172999999997, 3.507954030028005, 1.304965]
      },
      {
        "species": [{ "element": "Zr", "occu": 1 }],
        "abc": [0.834523, 0.669045999999999, 0.75],
        "properties": { "magmom": 0.01 },
        "label": "Zr",
        "xyz": [4.551563480436997, -0.8676319849860055, 3.9148949999999996]
      },
      {
        "species": [{ "element": "Zr", "occu": 1 }],
        "abc": [0.330953999999999, 0.165476999999999, 0.75],
        "properties": { "magmom": 0.011 },
        "label": "Zr",
        "xyz": [1.502782519562994, -0.8676319849859999, 3.9148949999999996]
      },
      {
        "species": [{ "element": "Zr", "occu": 1 }],
        "abc": [0.834523, 0.165476999999999, 0.75],
        "properties": { "magmom": 0.01 },
        "label": "Zr",
        "xyz": [3.027172999999997, -3.507954030028005, 3.9148949999999996]
      },
      {
        "species": [{ "element": "Se", "occu": 1 }],
        "abc": [0.333333, 0.666667, 0.75],
        "properties": { "magmom": 0.001 },
        "label": "Se",
        "xyz": [3.027173, 1.747742828812, 3.9148949999999996]
      },
      {
        "species": [{ "element": "Se", "occu": 1 }],
        "abc": [0.666667, 0.333333, 0.25],
        "properties": { "magmom": 0.001 },
        "label": "Se",
        "xyz": [3.027173, -1.747742828812, 1.304965]
      }
    ]
  },
  "task_ids": null,
  "uncorrected_energy_per_atom": null,
  "energy_per_atom": -21.006178036875,
  "formation_energy_per_atom": -0.36594405039062305,
  "energy_above_hull": 0.43092868979166704,
  "is_stable": false,
  "equilibrium_reaction_energy_per_atom": null,
  "decomposes_to": null,
  "xas": null,
  "grain_boundaries": null,
  "band_gap": 0.0,
  "cbm": null,
  "vbm": null,
  "efermi": 5.80495523,
  "is_gap_direct": null,
  "is_metal": null,
  "es_source_calc_id": null,
  "bandstructure": null,
  "dos": null,
  "dos_energy_up": null,
  "dos_energy_down": null,
  "is_magnetic": null,
  "ordering": null,
  "total_magnetization": 0.1064166,
  "total_magnetization_normalized_vol": null,
  "total_magnetization_normalized_formula_units": null,
  "num_magnetic_sites": null,
  "num_unique_magnetic_sites": null,
  "types_of_magnetic_species": null,
  "bulk_modulus": null,
  "shear_modulus": null,
  "universal_anisotropy": null,
  "homogeneous_poisson": null,
  "e_total": null,
  "e_ionic": null,
  "e_electronic": null,
  "n": null,
  "e_ij_max": null,
  "weighted_surface_energy_EV_PER_ANG2": null,
  "weighted_surface_energy": null,
  "weighted_work_function": null,
  "surface_anisotropy": null,
  "shape_factor": null,
  "has_reconstructed": null,
  "possible_species": null,
  "has_props": null,
  "theoretical": null,
  "database_IDs": null,
  "fields_not_requested": [
    "builder_meta",
    "nsites",
    "elements",
    "nelements",
    "composition",
    "composition_reduced",
    "chemsys",
    "symmetry",
    "property_name",
    "deprecated",
    "deprecation_reasons",
    "last_updated",
    "origins",
    "warnings",
    "task_ids",
    "uncorrected_energy_per_atom",
    "equilibrium_reaction_energy_per_atom",
    "decomposes_to",
    "xas",
    "grain_boundaries",
    "cbm",
    "vbm",
    "is_gap_direct",
    "is_metal",
    "es_source_calc_id",
    "bandstructure",
    "dos",
    "dos_energy_up",
    "dos_energy_down",
    "is_magnetic",
    "ordering",
    "total_magnetization_normalized_vol",
    "total_magnetization_normalized_formula_units",
    "num_magnetic_sites",
    "num_unique_magnetic_sites",
    "types_of_magnetic_species",
    "bulk_modulus",
    "shear_modulus",
    "universal_anisotropy",
    "homogeneous_poisson",
    "e_total",
    "e_ionic",
    "e_electronic",
    "n",
    "e_ij_max",
    "weighted_surface_energy_EV_PER_ANG2",
    "weighted_surface_energy",
    "weighted_work_function",
    "surface_anisotropy",
    "shape_factor",
    "has_reconstructed",
    "possible_species",
    "has_props",
    "theoretical",
    "database_IDs"
  ]
}
