{
  "builder_meta": null,
  "nsites": null,
  "elements": null,
  "nelements": null,
  "composition": null,
  "composition_reduced": null,
  "formula_pretty": "Zr3S4",
  "formula_anonymous": "A3B4",
  "chemsys": null,
  "volume": 1109.55134241734,
  "density": 4.81220661073748,
  "density_atomic": 19.81341682888107,
  "symmetry": null,
  "property_name": null,
  "material_id": "mp-684749",
  "deprecated": null,
  "deprecation_reasons": null,
  "last_updated": null,
  "origins": null,
  "warnings": null,
  "structure": {
    "@module": "pymatgen.core.structure",
    "@class": "Structure",
    "charge": 0,
    "lattice": {
      "matrix": [
        [6.35885742, 0.00303905, 3.6542099],
        [2.12531905, 5.9510504, 3.64967314],
        [-0.03191065, -0.04537231, 29.2888802]
      ],
      "pbc": [true, true, true],
      "a": 7.334052557554518,
      "b": 7.297403370821056,
      "c": 29.288932727329794,
      "alpha": 60.09577949164888,
      "beta": 60.17805391289472,
      "gamma": 59.86443726201983,
      "volume": 1109.5513424173398
    },
    "properties": {},
    "sites": [
      {
        "species": [{ "element": "Zr", "occu": 1 }],
        "abc": [0.98192534, 0.99181048, 0.99754449],
        "properties": { "magmom": -0.0 },
        "label": "Zr",
        "xyz": [8.320004648198848, 5.860037376093647, 36.42490642909547]
      },
      {
        "species": [{ "element": "Zr", "occu": 1 }],
        "abc": [0.51253254, 0.99089888, 0.00308499],
        "properties": { "magmom": -0.0 },
        "label": "Zr",
        "xyz": [5.364999167221968, 5.898306815076612, 5.579714411060427]
      },
      {
        "species": [{ "element": "Zr", "occu": 1 }],
        "abc": [-0.0, 0.5, 0.125],
        "properties": { "magmom": -0.0 },
        "label": "Zr",
        "xyz": [1.05867069375, 2.9698536612499997, 5.485946595]
      },
      {
        "species": [{ "element": "Zr", "occu": 1 }],
        "abc": [0.9839164300000001, 0.01637222, 0.36902547],
        "properties": { "magmom": -0.0 },
        "label": "Zr",
        "xyz": [6.279604640007946, 0.08367853958374379, 14.463533192433523]
      },
      {
        "species": [{ "element": "Zr", "occu": 1 }],
        "abc": [-0.0, 0.0, 0.125],
        "properties": { "magmom": -0.0 },
        "label": "Zr",
        "xyz": [-0.00398883125, -0.00567153875, 3.661110025]
      },
      {
        "species": [{ "element": "Zr", "occu": 1 }],
        "abc": [0.5, 0.5, 0.125],
        "properties": { "magmom": -0.0 },
        "label": "Zr",
        "xyz": [4.23809940375, 2.9713731862499997, 7.313051545]
      },
      {
        "species": [{ "element": "Zr", "occu": 1 }],
        "abc": [0.01807466, 0.00818952, 0.25245551],
        "properties": { "magmom": -0.0 },
        "label": "Zr",
        "xyz": [0.1242835093011517, 0.037336686406352904, 7.490076860904528]
      },
      {
        "species": [{ "element": "Zr", "occu": 1 }],
        "abc": [0.98300898, 0.54299656, -0.00058982],
        "properties": { "magmom": 0.0 },
        "label": "Zr",
        "xyz": [7.404873700991682, 3.2344140705231768, 5.556605939329736]
      },
      {
        "species": [{ "element": "Zr", "occu": 1 }],
        "abc": [0.51896604, 0.00116605, 0.37716662],
        "properties": { "magmom": -0.0 },
        "label": "Zr",
        "xyz": [3.2904736504577663, -0.0085965347415102, 12.947454491115618]
      },
      {
        "species": [{ "element": "Zr", "occu": 1 }],
        "abc": [0.5194887300000001, 0.46433048, 0.37758629],
        "properties": { "magmom": 0.0 },
        "label": "Zr",
        "xyz": [4.278156156061532, 2.7477008787594683, 14.652054954016192]
      },
      {
        "species": [{ "element": "Zr", "occu": 1 }],
        "abc": [0.48746746, 0.00910112, 0.24691501000000002],
        "properties": { "magmom": -0.0 },
        "label": "Zr",
        "xyz": [3.111199640278033, 0.0444395574233879, 9.046388678939573]
      },
      {
        "species": [{ "element": "Zr", "occu": 1 }],
        "abc": [0.98058614, 0.98994389, 0.74782082],
        "properties": { "magmom": 0.0 },
        "label": "Zr",
        "xyz": [8.31549061168653, 5.860255674801329, 29.099073614076666]
      },
      {
        "species": [{ "element": "Zr", "occu": 1 }],
        "abc": [0.01941386, 0.01005611, 0.5021791800000001],
        "properties": { "magmom": 0.0 },
        "label": "Zr",
        "xyz": [0.1287975458134697, 0.03711838769867119, 14.815909675923338]
      },
      {
        "species": [{ "element": "Zr", "occu": 1 }],
        "abc": [0.01699102, 0.45700344, 0.25058982],
        "properties": { "magmom": 0.0 },
        "label": "Zr",
        "xyz": [1.0713251065083174, 2.7083323019768226, 9.069497150670264]
      },
      {
        "species": [{ "element": "Zr", "occu": 1 }],
        "abc": [-0.0, 0.0, 0.625],
        "properties": { "magmom": -0.0 },
        "label": "Zr",
        "xyz": [-0.019944156249999997, -0.02835769375, 18.305550125]
      },
      {
        "species": [{ "element": "Zr", "occu": 1 }],
        "abc": [0.5, 0.5, 0.625],
        "properties": { "magmom": 0.0 },
        "label": "Zr",
        "xyz": [4.2221440787499995, 2.94868703125, 21.957491645]
      },
      {
        "species": [{ "element": "Zr", "occu": 1 }],
        "abc": [0.51896277, 0.98327747, 0.75426169],
        "properties": { "magmom": 0.0 },
        "label": "Zr",
        "xyz": [5.365719618347058, 5.818888339740853, 27.57652054115112]
      },
      {
        "species": [{ "element": "Zr", "occu": 1 }],
        "abc": [0.48103723, 0.01672253, 0.49573831],
        "properties": { "magmom": 0.0 },
        "label": "Zr",
        "xyz": [3.078568539152941, 0.07848572275914739, 16.338462748848883]
      },
      {
        "species": [{ "element": "Zr", "occu": 1 }],
        "abc": [0.01975571, 0.45953339, 0.50191068],
        "properties": { "magmom": 0.0 },
        "label": "Zr",
        "xyz": [1.0862625149582057, 2.711993555998061, 16.44973995910021]
      },
      {
        "species": [{ "element": "Zr", "occu": 1 }],
        "abc": [0.5, 0.0, 0.625],
        "properties": { "magmom": 0.0 },
        "label": "Zr",
        "xyz": [3.15948455375, -0.02683816875, 20.132655075]
      },
      {
        "species": [{ "element": "Zr", "occu": 1 }],
        "abc": [0.016083570000000002, 0.9836277800000001, 0.88097453],
        "properties": { "magmom": -0.0 },
        "label": "Zr",
        "xyz": [2.164683517492054, 5.813695522916256, 29.451450097566482]
      },
      {
        "species": [{ "element": "Zr", "occu": 1 }],
        "abc": [0.48051127, 0.53566952, 0.87241371],
        "properties": { "magmom": 0.0 },
        "label": "Zr",
        "xyz": [4.166132001438468, 3.1496731837405316, 29.26292833598381]
      },
      {
        "species": [{ "element": "Zr", "occu": 1 }],
        "abc": [0.98024429, 0.54046661, 0.7480893200000001],
        "properties": { "magmom": 0.0 },
        "label": "Zr",
        "xyz": [7.3580256425417945, 3.185380506501939, 27.465243330899792]
      },
      {
        "species": [{ "element": "Zr", "occu": 1 }],
        "abc": [0.48103396, 0.99883395, 0.87283338],
        "properties": { "magmom": -0.0 },
        "label": "Zr",
        "xyz": [5.153814507042234, 5.9059705972415095, 30.96752879888438]
      },
      {
        "species": [{ "element": "S", "occu": 1 }],
        "abc": [0.24566231, 0.25571653, 0.06173514],
        "properties": { "magmom": 0.0 },
        "label": "S",
        "xyz": [2.1036408069214954, 1.5197274722763443, 3.6391365158441014]
      },
      {
        "species": [{ "element": "S", "occu": 1 }],
        "abc": [0.27416855, 0.23540923, 0.179255],
        "properties": { "magmom": -0.0 },
        "label": "S",
        "xyz": [2.2379982959972224, 1.3936321908580194, 7.111214393568728]
      },
      {
        "species": [{ "element": "S", "occu": 1 }],
        "abc": [0.25213147, 0.75071857, 0.06005106],
        "properties": { "magmom": -0.0 },
        "label": "S",
        "xyz": [3.196868278476977, 4.465605631119682, 5.420047016626775]
      },
      {
        "species": [{ "element": "S", "occu": 1 }],
        "abc": [0.24173204, 0.74077753, 0.19011747],
        "properties": { "magmom": 0.0 },
        "label": "S",
        "xyz": [3.105461400482628, 4.400512983188419, 9.155263270428835]
      },
      {
        "species": [{ "element": "S", "occu": 1 }],
        "abc": [0.25822051, 0.23893717, 0.31358205],
        "properties": { "magmom": 0.0 },
        "label": "S",
        "xyz": [2.1397985181199397, 1.408483944161248, 11.000101610842073]
      },
      {
        "species": [{ "element": "S", "occu": 1 }],
        "abc": [0.75826796, 0.25922247, 0.05988253],
        "properties": { "magmom": 0.0 },
        "label": "S",
        "xyz": [5.370737407017372, 1.5422333893115814, 5.470839819571166]
      },
      {
        "species": [{ "element": "S", "occu": 1 }],
        "abc": [0.72583145, 0.76459077, 0.070745],
        "properties": { "magmom": -0.0 },
        "label": "S",
        "xyz": [6.238200511502777, 4.54911418164198, 7.514888696431273]
      },
      {
        "species": [{ "element": "S", "occu": 1 }],
        "abc": [0.26155129, 0.73978688, 0.31382067],
        "properties": { "magmom": 0.0 },
        "label": "S",
        "xyz": [3.2254362885680004, 4.3890651068629785, 12.84719962644991]
      },
      {
        "species": [{ "element": "S", "occu": 1 }],
        "abc": [0.74786853, 0.24928143, 0.18994894],
        "properties": { "magmom": -0.0 },
        "label": "S",
        "xyz": [5.279330529023023, 1.477140741380317, 9.206056073373226]
      },
      {
        "species": [{ "element": "S", "occu": 1 }],
        "abc": [0.23865149, 0.26701592, 0.43055499],
        "properties": { "magmom": -0.0 },
        "label": "S",
        "xyz": [2.071305529818188, 1.5702151968547255, 14.457076990206339]
      },
      {
        "species": [{ "element": "S", "occu": 1 }],
        "abc": [0.2477212, 0.75169447, 0.43621971],
        "properties": { "magmom": 0.0 },
        "label": "S",
        "xyz": [3.1588943130930462, 4.454332217573918, 16.42505120519416]
      },
      {
        "species": [{ "element": "S", "occu": 1 }],
        "abc": [0.72954239, 0.26758726, 0.30699295],
        "properties": { "magmom": -0.0 },
        "label": "S",
        "xyz": [5.1979679964914185, 1.580713407163019, 12.633986794230447]
      },
      {
        "species": [{ "element": "S", "occu": 1 }],
        "abc": [0.25427575, 0.25064134, 0.56381214],
        "properties": { "magmom": -0.0 },
        "label": "S",
        "xyz": [2.131604442367801, 1.46677054418373, 18.357362153117165]
      },
      {
        "species": [{ "element": "S", "occu": 1 }],
        "abc": [0.7543376900000001, 0.7442834700000001, 0.18826486],
        "properties": { "magmom": 0.0 },
        "label": "S",
        "xyz": [6.372558000578504, 4.4230189002236555, 10.9869665741559]
      },
      {
        "species": [{ "element": "S", "occu": 1 }],
        "abc": [0.75903476, 0.23850461, 0.43931424],
        "properties": { "magmom": -0.0 },
        "label": "S",
        "xyz": [5.319473403857084, 1.4017269974450275, 16.511158348833348]
      },
      {
        "species": [{ "element": "S", "occu": 1 }],
        "abc": [0.75367808, 0.74892643, 0.31045612],
        "properties": { "magmom": -0.0 },
        "label": "S",
        "xyz": [6.374332203441167, 4.445103284873058, 14.580346682792907]
      },
      {
        "species": [{ "element": "S", "occu": 1 }],
        "abc": [0.24381304, 0.24770527, 0.69059201],
        "properties": { "magmom": 0.0 },
        "label": "S",
        "xyz": [2.054787847689244, 1.443513751373577, 22.021653943039748]
      },
      {
        "species": [{ "element": "S", "occu": 1 }],
        "abc": [0.2552232, 0.73834014, 0.56369243],
        "properties": { "magmom": 0.0 },
        "label": "S",
        "xyz": [3.1741485121564312, 4.369098993870403, 20.137259373208405]
      },
      {
        "species": [{ "element": "S", "occu": 1 }],
        "abc": [0.26308465000000003, 0.74298872, 0.68801738],
        "properties": { "magmom": 0.0 },
        "label": "S",
        "xyz": [3.2300507774846223, 4.3911459089063225, 23.824291125612895]
      },
      {
        "species": [{ "element": "S", "occu": 1 }],
        "abc": [0.73691535, 0.25701128, 0.56198262],
        "properties": { "magmom": 0.0 },
        "label": "S",
        "xyz": [5.214237380015377, 1.506228153593677, 20.09069216438711]
      },
      {
        "species": [{ "element": "S", "occu": 1 }],
        "abc": [0.24142953, 0.25952294, 0.81073414],
        "properties": { "magmom": -0.0 },
        "label": "S",
        "xyz": [2.0609139531570286, 1.5083829315816588, 25.57490318252021]
      },
      {
        "species": [{ "element": "S", "occu": 1 }],
        "abc": [0.75857047, 0.74047706, 0.43926586],
        "properties": { "magmom": -0.0 },
        "label": "S",
        "xyz": [6.383374204342971, 4.388991130918341, 18.340080107479793]
      },
      {
        "species": [{ "element": "S", "occu": 1 }],
        "abc": [0.7447768, 0.26165986, 0.68630757],
        "properties": { "magmom": 0.0 },
        "label": "S",
        "xyz": [5.270139645343568, 1.5282750686295974, 23.777723916791594]
      },
      {
        "species": [{ "element": "S", "occu": 1 }],
        "abc": [0.75618696, 0.75229373, 0.55940799],
        "properties": { "magmom": 0.0 },
        "label": "S",
        "xyz": [6.389498184491705, 4.453854360076023, 21.89332569728711]
      },
      {
        "species": [{ "element": "S", "occu": 1 }],
        "abc": [0.24096524, 0.76149539, 0.81068576],
        "properties": { "magmom": -0.0 },
        "label": "S",
        "xyz": [3.124814753642916, 4.495647065054972, 27.403824941166654]
      },
      {
        "species": [{ "element": "S", "occu": 1 }],
        "abc": [0.24632192, 0.25107357, 0.93954388],
        "properties": { "magmom": -0.0 },
        "label": "S",
        "xyz": [2.0699559540588326, 1.4522707776269412, 29.334636607207095]
      },
      {
        "species": [{ "element": "S", "occu": 1 }],
        "abc": [0.27045761, 0.73241274, 0.9430070500000001],
        "properties": { "magmom": -0.0 },
        "label": "S",
        "xyz": [3.2463201610085806, 4.316660655336982, 31.280996495769553]
      },
      {
        "species": [{ "element": "S", "occu": 1 }],
        "abc": [0.752278799999999, 0.24830553, 0.81378029],
        "properties": { "magmom": 0.0 },
        "label": "S",
        "xyz": [5.285393844406947, 1.443041844926082, 27.48993208480584]
      },
      {
        "species": [{ "element": "S", "occu": 1 }],
        "abc": [0.74572425, 0.7493586600000001, 0.68618786],
        "properties": { "magmom": -0.0 },
        "label": "S",
        "xyz": [6.312683715132199, 4.43060351831627, 25.55762113688284]
      },
      {
        "species": [{ "element": "S", "occu": 1 }],
        "abc": [0.73844871, 0.26021312, 0.93617933],
        "properties": { "magmom": 0.0 },
        "label": "S",
        "xyz": [5.218851868931999, 1.5083089556370213, 31.067783663550095]
      },
      {
        "species": [{ "element": "S", "occu": 1 }],
        "abc": [0.76134851, 0.73298408, 0.81944501],
        "properties": { "magmom": -0.0 },
        "label": "S",
        "xyz": [6.372982627681812, 4.327158865645274, 29.457906299793663]
      },
      {
        "species": [{ "element": "S", "occu": 1 }],
        "abc": [0.74177949, 0.76106283, 0.93641795],
        "properties": { "magmom": 0.0 },
        "label": "S",
        "xyz": [6.304489639380059, 4.488890118338752, 32.91488167915793]
      }
    ]
  },
  "task_ids": null,
  "uncorrected_energy_per_atom": null,
  "energy_per_atom": -7.888308120535714,
  "formation_energy_per_atom": -1.860230954821429,
  "energy_above_hull": 0.0,
  "is_stable": true,
  "equilibrium_reaction_energy_per_atom": null,
  "decomposes_to": null,
  "xas": null,
  "grain_boundaries": null,
  "band_gap": 0.0,
  "cbm": null,
  "vbm": null,
  "efermi": 8.20993645,
  "is_gap_direct": null,
  "is_metal": null,
  "es_source_calc_id": null,
  "bandstructure": null,
  "dos": null,
  "dos_energy_up": null,
  "dos_energy_down": null,
  "is_magnetic": null,
  "ordering": null,
  "total_magnetization": 1e-7,
  "total_magnetization_normalized_vol": null,
  "total_magnetization_normalized_formula_units": null,
  "num_magnetic_sites": null,
  "num_unique_magnetic_sites": null,
  "types_of_magnetic_species": null,
  "bulk_modulus": null,
  "shear_modulus": null,
  "universal_anisotropy": null,
  "homogeneous_poisson": null,
  "e_total": null,
  "e_ionic": null,
  "e_electronic": null,
  "n": null,
  "e_ij_max": null,
  "weighted_surface_energy_EV_PER_ANG2": null,
  "weighted_surface_energy": null,
  "weighted_work_function": null,
  "surface_anisotropy": null,
  "shape_factor": null,
  "has_reconstructed": null,
  "possible_species": null,
  "has_props": null,
  "theoretical": null,
  "database_IDs": null,
  "fields_not_requested": [
    "builder_meta",
    "nsites",
    "elements",
    "nelements",
    "composition",
    "composition_reduced",
    "chemsys",
    "symmetry",
    "property_name",
    "deprecated",
    "deprecation_reasons",
    "last_updated",
    "origins",
    "warnings",
    "task_ids",
    "uncorrected_energy_per_atom",
    "equilibrium_reaction_energy_per_atom",
    "decomposes_to",
    "xas",
    "grain_boundaries",
    "cbm",
    "vbm",
    "is_gap_direct",
    "is_metal",
    "es_source_calc_id",
    "bandstructure",
    "dos",
    "dos_energy_up",
    "dos_energy_down",
    "is_magnetic",
    "ordering",
    "total_magnetization_normalized_vol",
    "total_magnetization_normalized_formula_units",
    "num_magnetic_sites",
    "num_unique_magnetic_sites",
    "types_of_magnetic_species",
    "bulk_modulus",
    "shear_modulus",
    "universal_anisotropy",
    "homogeneous_poisson",
    "e_total",
    "e_ionic",
    "e_electronic",
    "n",
    "e_ij_max",
    "weighted_surface_energy_EV_PER_ANG2",
    "weighted_surface_energy",
    "weighted_work_function",
    "surface_anisotropy",
    "shape_factor",
    "has_reconstructed",
    "possible_species",
    "has_props",
    "theoretical",
    "database_IDs"
  ]
}
