{"builder_meta": null, "nsites": null, "elements": null, "nelements": null, "composition": null, "composition_reduced": null, "formula_pretty": "Zr3S2", "formula_anonymous": "A2B3", "chemsys": null, "volume": 101.7875557707784, "density": 5.510825105564115, "density_atomic": 20.35751115415568, "symmetry": null, "property_name": null, "material_id": "mp-1215419", "deprecated": null, "deprecation_reasons": null, "last_updated": null, "origins": null, "warnings": null, "structure": {"@module": "pymatgen.core.structure", "@class": "Structure", "charge": 0, "lattice": {"matrix": [[3.869471, -2.902538, 0.0], [3.869471, 2.902538, 0.0], [1.692241, 0.0, 4.531429]], "pbc": [true, true, true], "a": 4.83709961250386, "b": 4.83709961250386, "c": 4.837099170383216, "alpha": 73.74803703118157, "beta": 73.74803703118157, "gamma": 73.74803472181279, "volume": 101.7875557707784}, "properties": {}, "sites": [{"species": [{"element": "Zr", "occu": 1}], "abc": [0.161273, 0.838727, 0.5], "properties": {"magmom": 0.0}, "label": "Zr", "xyz": [4.7155915, 1.966335978252, 2.2657145]}, {"species": [{"element": "Zr", "occu": 1}], "abc": [0.5, 0.161273, 0.838727], "properties": {"magmom": 0.0}, "label": "Zr", "xyz": [3.97810491379, -0.9831679891259999, 3.800631850883]}, {"species": [{"element": "Zr", "occu": 1}], "abc": [0.838727, 0.5, 0.161273], "properties": {"magmom": 0.0}, "label": "Zr", "xyz": [5.45307808621, -0.9831679891260001, 0.730797149117]}, {"species": [{"element": "S", "occu": 1}], "abc": [0.334976999999999, 0.334976999999999, 0.334976999999999], "properties": {"magmom": 0.0}, "label": "S", "xyz": [3.1592293877909907, 0.0, 1.5179244921329957]}, {"species": [{"element": "S", "occu": 1}], "abc": [0.665022999999999, 0.665022999999999, 0.665022999999999], "properties": {"magmom": 0.0}, "label": "S", "xyz": [6.271953612208991, 0.0, 3.0135045078669958]}]}, "task_ids": null, "uncorrected_energy_per_atom": null, "energy_per_atom": -8.042021647999999, "formation_energy_per_atom": -1.258057442999998, "energy_above_hull": 0.17395226800000002, "is_stable": false, "equilibrium_reaction_energy_per_atom": null, "decomposes_to": null, "xas": null, "grain_boundaries": null, "band_gap": 0.0, "cbm": null, "vbm": null, "efermi": 5.75364677, "is_gap_direct": null, "is_metal": null, "es_source_calc_id": null, "bandstructure": null, "dos": null, "dos_energy_up": null, "dos_energy_down": null, "is_magnetic": null, "ordering": null, "total_magnetization": 8.850000000000002e-05, "total_magnetization_normalized_vol": null, "total_magnetization_normalized_formula_units": null, "num_magnetic_sites": null, "num_unique_magnetic_sites": null, "types_of_magnetic_species": null, "bulk_modulus": null, "shear_modulus": null, "universal_anisotropy": null, "homogeneous_poisson": null, "e_total": null, "e_ionic": null, "e_electronic": null, "n": null, "e_ij_max": null, "weighted_surface_energy_EV_PER_ANG2": null, "weighted_surface_energy": null, "weighted_work_function": null, "surface_anisotropy": null, "shape_factor": null, "has_reconstructed": null, "possible_species": null, "has_props": null, "theoretical": null, "database_IDs": null, "fields_not_requested": ["builder_meta", "nsites", "elements", "nelements", "composition", "composition_reduced", "chemsys", "symmetry", "property_name", "deprecated", "deprecation_reasons", "last_updated", "origins", "warnings", "task_ids", "uncorrected_energy_per_atom", "equilibrium_reaction_energy_per_atom", "decomposes_to", "xas", "grain_boundaries", "cbm", "vbm", "is_gap_direct", "is_metal", "es_source_calc_id", "bandstructure", "dos", "dos_energy_up", "dos_energy_down", "is_magnetic", "ordering", "total_magnetization_normalized_vol", "total_magnetization_normalized_formula_units", "num_magnetic_sites", "num_unique_magnetic_sites", "types_of_magnetic_species", "bulk_modulus", "shear_modulus", "universal_anisotropy", "homogeneous_poisson", "e_total", "e_ionic", "e_electronic", "n", "e_ij_max", "weighted_surface_energy_EV_PER_ANG2", "weighted_surface_energy", "weighted_work_function", "surface_anisotropy", "shape_factor", "has_reconstructed", "possible_species", "has_props", "theoretical", "database_IDs"]}