{
  "builder_meta": null,
  "nsites": null,
  "elements": null,
  "nelements": null,
  "composition": null,
  "composition_reduced": null,
  "formula_pretty": "Zr3Te",
  "formula_anonymous": "AB3",
  "chemsys": null,
  "volume": 367.77766445040993,
  "density": 7.247072312870821,
  "density_atomic": 22.98610402815062,
  "symmetry": null,
  "property_name": null,
  "material_id": "mp-1793",
  "deprecated": null,
  "deprecation_reasons": null,
  "last_updated": null,
  "origins": null,
  "warnings": null,
  "structure": {
    "@module": "pymatgen.core.structure",
    "@class": "Structure",
    "charge": 0,
    "lattice": {
      "matrix": [
        [5.3424814, 1e-8, 1.87465905],
        [2.67067139, 8.05960576, 0.93895611],
        [0.0026730400000000002, -0.00172314, 8.5423272]
      ],
      "pbc": [true, true, true],
      "a": 5.661841932012307,
      "b": 8.542328093470541,
      "c": 8.542327792013964,
      "alpha": 83.69473995929533,
      "beta": 70.64626831026143,
      "gamma": 70.64626498203185,
      "volume": 367.77766445040993
    },
    "properties": {},
    "sites": [
      {
        "species": [{ "element": "Zr", "occu": 1 }],
        "abc": [0.29356463, 0.02033948, 0.81477542],
        "properties": { "magmom": 0.0 },
        "label": "Zr",
        "xyz": [1.6248615700850357, 0.1625242209818323, 7.529509701567049]
      },
      {
        "species": [{ "element": "Zr", "occu": 1 }],
        "abc": [0.89165995, 0.81477542, 0.97966052],
        "properties": { "magmom": 0.0 },
        "label": "Zr",
        "xyz": [6.942292773225544, 6.565080584826587, 10.805177460439008]
      },
      {
        "species": [{ "element": "Zr", "occu": 1 }],
        "abc": [0.68609489, 0.18522458, 0.02033948],
        "properties": { "magmom": 0.0 },
        "label": "Zr",
        "xyz": [4.160177543234432, 1.4928020509509625, 1.6338582390482943]
      },
      {
        "species": [{ "element": "Zr", "occu": 1 }],
        "abc": [0.12867953000000001, 0.97966052, 0.18522458],
        "properties": { "magmom": 0.0 },
        "label": "Zr",
        "xyz": [3.304314430973588, 7.89535840324061, 2.7433374442866]
      },
      {
        "species": [{ "element": "Zr", "occu": 1 }],
        "abc": [0.33729287, 0.66015219, 0.62233466],
        "properties": { "magmom": -0.0 },
        "label": "Zr",
        "xyz": [3.5666939766460284, 5.319494026627511, 6.568349357197107]
      },
      {
        "species": [{ "element": "Zr", "occu": 1 }],
        "abc": [0.04037247, 0.62233466, 0.33984781000000003],
        "properties": { "magmom": -0.0 },
        "label": "Zr",
        "xyz": [1.8786489683044778, 5.015186405432043, 3.5631207389515587]
      },
      {
        "species": [{ "element": "Zr", "occu": 1 }],
        "abc": [0.00255494, 0.37766534, 0.66015219],
        "properties": { "magmom": -0.0 },
        "label": "Zr",
        "xyz": [1.0240343511706962, 3.0426962149972314, 5.998636828698004]
      },
      {
        "species": [{ "element": "Zr", "occu": 1 }],
        "abc": [0.61977972, 0.33984781000000003, 0.37766534],
        "properties": { "magmom": -0.0 },
        "label": "Zr",
        "xyz": [4.219792963878797, 2.738388602943216, 4.707118745153334]
      },
      {
        "species": [{ "element": "Zr", "occu": 1 }],
        "abc": [0.94926781, 0.03099054, 0.59664628],
        "properties": { "magmom": 0.0 },
        "label": "Zr",
        "xyz": [5.155806026454676, 0.2487434391112693, 6.905399994198197]
      },
      {
        "species": [{ "element": "Zr", "occu": 1 }],
        "abc": [0.45408592000000003, 0.59664628, 0.96900946],
        "properties": { "magmom": 0.0 },
        "label": "Zr",
        "xyz": [4.021981932594775, 4.807064060550528, 9.68907681673566]
      },
      {
        "species": [{ "element": "Zr", "occu": 1 }],
        "abc": [0.01974166, 0.40335372, 0.03099054],
        "properties": { "magmom": 0.0 },
        "label": "Zr",
        "xyz": [1.1827775303622363, 3.2508185641877487, 0.6804716542509402]
      },
      {
        "species": [{ "element": "Zr", "occu": 1 }],
        "abc": [0.5769036200000001, 0.96900946, 0.40335372],
        "properties": { "magmom": 0.0 },
        "label": "Zr",
        "xyz": [5.671080881531727, 7.809139196150445, 5.436934398902746]
      },
      {
        "species": [{ "element": "Te", "occu": 1 }],
        "abc": [0.76540388, 0.74381421, 0.67931733],
        "properties": { "magmom": -0.0 },
        "label": "Te",
        "xyz": [6.077455164906067, 5.993678740075873, 7.9362311132218135]
      },
      {
        "species": [{ "element": "Te", "occu": 1 }],
        "abc": [0.55527779, 0.67931733, 0.25618579],
        "properties": { "magmom": -0.0 },
        "label": "Te",
        "xyz": [4.7814794177343956, 5.4745884273064185, 3.8672285340903745]
      },
      {
        "species": [{ "element": "Te", "occu": 1 }],
        "abc": [0.49078092, 0.32068267, 0.74381421],
        "properties": { "magmom": -0.0 },
        "label": "Te",
        "xyz": [3.4804142137485976, 2.583294203154169, 7.5750582034424525]
      },
      {
        "species": [{ "element": "Te", "occu": 1 }],
        "abc": [0.18853742, 0.25618579, 0.32068267],
        "properties": { "magmom": -0.0 },
        "label": "Te",
        "xyz": [1.6923029170357529, 2.064203889463541, 3.3333668879919522]
      }
    ]
  },
  "task_ids": null,
  "uncorrected_energy_per_atom": null,
  "energy_per_atom": -24.0000523025,
  "formation_energy_per_atom": -0.5834022962500001,
  "energy_above_hull": 0.0,
  "is_stable": true,
  "equilibrium_reaction_energy_per_atom": null,
  "decomposes_to": null,
  "xas": null,
  "grain_boundaries": null,
  "band_gap": 0.0,
  "cbm": null,
  "vbm": null,
  "efermi": 6.18747201,
  "is_gap_direct": null,
  "is_metal": null,
  "es_source_calc_id": null,
  "bandstructure": null,
  "dos": null,
  "dos_energy_up": null,
  "dos_energy_down": null,
  "is_magnetic": null,
  "ordering": null,
  "total_magnetization": 8e-7,
  "total_magnetization_normalized_vol": null,
  "total_magnetization_normalized_formula_units": null,
  "num_magnetic_sites": null,
  "num_unique_magnetic_sites": null,
  "types_of_magnetic_species": null,
  "bulk_modulus": null,
  "shear_modulus": null,
  "universal_anisotropy": null,
  "homogeneous_poisson": null,
  "e_total": null,
  "e_ionic": null,
  "e_electronic": null,
  "n": null,
  "e_ij_max": null,
  "weighted_surface_energy_EV_PER_ANG2": null,
  "weighted_surface_energy": null,
  "weighted_work_function": null,
  "surface_anisotropy": null,
  "shape_factor": null,
  "has_reconstructed": null,
  "possible_species": null,
  "has_props": null,
  "theoretical": null,
  "database_IDs": null,
  "fields_not_requested": [
    "builder_meta",
    "nsites",
    "elements",
    "nelements",
    "composition",
    "composition_reduced",
    "chemsys",
    "symmetry",
    "property_name",
    "deprecated",
    "deprecation_reasons",
    "last_updated",
    "origins",
    "warnings",
    "task_ids",
    "uncorrected_energy_per_atom",
    "equilibrium_reaction_energy_per_atom",
    "decomposes_to",
    "xas",
    "grain_boundaries",
    "cbm",
    "vbm",
    "is_gap_direct",
    "is_metal",
    "es_source_calc_id",
    "bandstructure",
    "dos",
    "dos_energy_up",
    "dos_energy_down",
    "is_magnetic",
    "ordering",
    "total_magnetization_normalized_vol",
    "total_magnetization_normalized_formula_units",
    "num_magnetic_sites",
    "num_unique_magnetic_sites",
    "types_of_magnetic_species",
    "bulk_modulus",
    "shear_modulus",
    "universal_anisotropy",
    "homogeneous_poisson",
    "e_total",
    "e_ionic",
    "e_electronic",
    "n",
    "e_ij_max",
    "weighted_surface_energy_EV_PER_ANG2",
    "weighted_surface_energy",
    "weighted_work_function",
    "surface_anisotropy",
    "shape_factor",
    "has_reconstructed",
    "possible_species",
    "has_props",
    "theoretical",
    "database_IDs"
  ]
}
