{"builder_meta": null, "nsites": null, "elements": null, "nelements": null, "composition": null, "composition_reduced": null, "formula_pretty": "Zr3Te2", "formula_anonymous": "A2B3", "chemsys": null, "volume": 131.56028280626276, "density": 6.67536279565575, "density_atomic": 26.312056561252554, "symmetry": null, "property_name": null, "material_id": "mp-1215393", "deprecated": null, "deprecation_reasons": null, "last_updated": null, "origins": null, "warnings": null, "structure": {"@module": "pymatgen.core.structure", "@class": "Structure", "charge": 0, "lattice": {"matrix": [[4.440015, -3.052758, 0.0], [4.440015, 3.052758, 0.0], [2.341074, 0.0, 4.853086]], "pbc": [true, true, true], "a": 5.388233904238846, "b": 5.388233904238846, "c": 5.388234515764139, "alpha": 69.02138518814583, "beta": 69.02138518814583, "gamma": 69.02138667347559, "volume": 131.56028280626276}, "properties": {}, "sites": [{"species": [{"element": "Zr", "occu": 1}], "abc": [0.0, 0.645513999999999, 0.354485999999999], "properties": {"magmom": -0.0}, "label": "Zr", "xyz": [3.695969800673993, 1.970598027611997, 1.7203510437959952]}, {"species": [{"element": "Zr", "occu": 1}], "abc": [0.645513999999999, 0.354485999999999, 0.0], "properties": {"magmom": -0.0}, "label": "Zr", "xyz": [4.440014999999991, -0.8884380552240001, 0.0]}, {"species": [{"element": "Zr", "occu": 1}], "abc": [0.354485999999999, 0.0, 0.645513999999999], "properties": {"magmom": -0.0}, "label": "Zr", "xyz": [3.085119199325993, -1.0821599723879969, 3.1327349562039957]}, {"species": [{"element": "Te", "occu": 1}], "abc": [0.159155, 0.159155, 0.159155], "properties": {"magmom": 0.0}, "label": "Te", "xyz": [1.7858948071199998, 0.0, 0.77239290233]}, {"species": [{"element": "Te", "occu": 1}], "abc": [0.840845, 0.840845, 0.840845], "properties": {"magmom": 0.0}, "label": "Te", "xyz": [9.435209192879999, 0.0, 4.08069309767]}]}, "task_ids": null, "uncorrected_energy_per_atom": null, "energy_per_atom": -24.275351297999997, "formation_energy_per_atom": -0.458586430999997, "energy_above_hull": 0.41944380885714505, "is_stable": false, "equilibrium_reaction_energy_per_atom": null, "decomposes_to": null, "xas": null, "grain_boundaries": null, "band_gap": 0.0, "cbm": null, "vbm": null, "efermi": 5.78416932, "is_gap_direct": null, "is_metal": null, "es_source_calc_id": null, "bandstructure": null, "dos": null, "dos_energy_up": null, "dos_energy_down": null, "is_magnetic": null, "ordering": null, "total_magnetization": 0.0001637, "total_magnetization_normalized_vol": null, "total_magnetization_normalized_formula_units": null, "num_magnetic_sites": null, "num_unique_magnetic_sites": null, "types_of_magnetic_species": null, "bulk_modulus": null, "shear_modulus": null, "universal_anisotropy": null, "homogeneous_poisson": null, "e_total": null, "e_ionic": null, "e_electronic": null, "n": null, "e_ij_max": null, "weighted_surface_energy_EV_PER_ANG2": null, "weighted_surface_energy": null, "weighted_work_function": null, "surface_anisotropy": null, "shape_factor": null, "has_reconstructed": null, "possible_species": null, "has_props": null, "theoretical": null, "database_IDs": null, "fields_not_requested": ["builder_meta", "nsites", "elements", "nelements", "composition", "composition_reduced", "chemsys", "symmetry", "property_name", "deprecated", "deprecation_reasons", "last_updated", "origins", "warnings", "task_ids", "uncorrected_energy_per_atom", "equilibrium_reaction_energy_per_atom", "decomposes_to", "xas", "grain_boundaries", "cbm", "vbm", "is_gap_direct", "is_metal", "es_source_calc_id", "bandstructure", "dos", "dos_energy_up", "dos_energy_down", "is_magnetic", "ordering", "total_magnetization_normalized_vol", "total_magnetization_normalized_formula_units", "num_magnetic_sites", "num_unique_magnetic_sites", "types_of_magnetic_species", "bulk_modulus", "shear_modulus", "universal_anisotropy", "homogeneous_poisson", "e_total", "e_ionic", "e_electronic", "n", "e_ij_max", "weighted_surface_energy_EV_PER_ANG2", "weighted_surface_energy", "weighted_work_function", "surface_anisotropy", "shape_factor", "has_reconstructed", "possible_species", "has_props", "theoretical", "database_IDs"]}