{
  "builder_meta": null,
  "nsites": null,
  "elements": null,
  "nelements": null,
  "composition": null,
  "composition_reduced": null,
  "formula_pretty": "Zr3Ta",
  "formula_anonymous": "AB3",
  "chemsys": null,
  "volume": 177.394839673078,
  "density": 8.511116474236113,
  "density_atomic": 22.17435495913475,
  "symmetry": null,
  "property_name": null,
  "material_id": "mp-1188053",
  "deprecated": null,
  "deprecation_reasons": null,
  "last_updated": null,
  "origins": null,
  "warnings": null,
  "structure": {
    "@module": "pymatgen.core.structure",
    "@class": "Structure",
    "charge": 0,
    "lattice": {
      "matrix": [
        [3.153045, -5.461234, 0.0],
        [3.153045, 5.461234, 0.0],
        [0.0, 0.0, 5.150982]
      ],
      "pbc": [true, true, true],
      "a": 6.306089880011306,
      "b": 6.306089880011306,
      "c": 5.150982,
      "alpha": 90.0,
      "beta": 90.0,
      "gamma": 119.99999874115524,
      "volume": 177.394839673078
    },
    "properties": {},
    "sites": [
      {
        "species": [{ "element": "Zr", "occu": 1 }],
        "abc": [0.171203, 0.342404999999999, 0.25],
        "properties": { "magmom": -0.0 },
        "label": "Zr",
        "xyz": [1.6194291363599969, 0.9349741832679948, 1.2877455]
      },
      {
        "species": [{ "element": "Zr", "occu": 1 }],
        "abc": [0.657594999999999, 0.828797, 0.25],
        "properties": { "magmom": -0.0 },
        "label": "Zr",
        "xyz": [4.686660863639997, 0.9349741832680056, 1.2877455]
      },
      {
        "species": [{ "element": "Zr", "occu": 1 }],
        "abc": [0.171203, 0.828797, 0.25],
        "properties": { "magmom": -0.0 },
        "label": "Zr",
        "xyz": [3.1530449999999997, 3.5912747109960006, 1.2877455]
      },
      {
        "species": [{ "element": "Zr", "occu": 1 }],
        "abc": [0.828797, 0.657594999999999, 0.75],
        "properties": { "magmom": -0.0 },
        "label": "Zr",
        "xyz": [4.686660863639997, -0.9349741832680056, 3.8632365]
      },
      {
        "species": [{ "element": "Zr", "occu": 1 }],
        "abc": [0.342404999999999, 0.171203, 0.75],
        "properties": { "magmom": -0.0 },
        "label": "Zr",
        "xyz": [1.6194291363599969, -0.9349741832679948, 3.8632365]
      },
      {
        "species": [{ "element": "Zr", "occu": 1 }],
        "abc": [0.828797, 0.171203, 0.75],
        "properties": { "magmom": -0.0 },
        "label": "Zr",
        "xyz": [3.1530449999999997, -3.5912747109960006, 3.8632365]
      },
      {
        "species": [{ "element": "Ta", "occu": 1 }],
        "abc": [0.333333, 0.666667, 0.75],
        "properties": { "magmom": -0.0 },
        "label": "Ta",
        "xyz": [3.153045, 1.820414974156, 3.8632365]
      },
      {
        "species": [{ "element": "Ta", "occu": 1 }],
        "abc": [0.666667, 0.333333, 0.25],
        "properties": { "magmom": -0.0 },
        "label": "Ta",
        "xyz": [3.153045, -1.820414974156, 1.2877455]
      }
    ]
  },
  "task_ids": null,
  "uncorrected_energy_per_atom": null,
  "energy_per_atom": -29.057040953166663,
  "formation_energy_per_atom": 0.15326115375000102,
  "energy_above_hull": 0.15326115375000102,
  "is_stable": false,
  "equilibrium_reaction_energy_per_atom": null,
  "decomposes_to": null,
  "xas": null,
  "grain_boundaries": null,
  "band_gap": 0.0,
  "cbm": null,
  "vbm": null,
  "efermi": 4.6125649,
  "is_gap_direct": null,
  "is_metal": null,
  "es_source_calc_id": null,
  "bandstructure": null,
  "dos": null,
  "dos_energy_up": null,
  "dos_energy_down": null,
  "is_magnetic": null,
  "ordering": null,
  "total_magnetization": 0.0002008,
  "total_magnetization_normalized_vol": null,
  "total_magnetization_normalized_formula_units": null,
  "num_magnetic_sites": null,
  "num_unique_magnetic_sites": null,
  "types_of_magnetic_species": null,
  "bulk_modulus": null,
  "shear_modulus": null,
  "universal_anisotropy": null,
  "homogeneous_poisson": null,
  "e_total": null,
  "e_ionic": null,
  "e_electronic": null,
  "n": null,
  "e_ij_max": null,
  "weighted_surface_energy_EV_PER_ANG2": null,
  "weighted_surface_energy": null,
  "weighted_work_function": null,
  "surface_anisotropy": null,
  "shape_factor": null,
  "has_reconstructed": null,
  "possible_species": null,
  "has_props": null,
  "theoretical": null,
  "database_IDs": null,
  "fields_not_requested": [
    "builder_meta",
    "nsites",
    "elements",
    "nelements",
    "composition",
    "composition_reduced",
    "chemsys",
    "symmetry",
    "property_name",
    "deprecated",
    "deprecation_reasons",
    "last_updated",
    "origins",
    "warnings",
    "task_ids",
    "uncorrected_energy_per_atom",
    "equilibrium_reaction_energy_per_atom",
    "decomposes_to",
    "xas",
    "grain_boundaries",
    "cbm",
    "vbm",
    "is_gap_direct",
    "is_metal",
    "es_source_calc_id",
    "bandstructure",
    "dos",
    "dos_energy_up",
    "dos_energy_down",
    "is_magnetic",
    "ordering",
    "total_magnetization_normalized_vol",
    "total_magnetization_normalized_formula_units",
    "num_magnetic_sites",
    "num_unique_magnetic_sites",
    "types_of_magnetic_species",
    "bulk_modulus",
    "shear_modulus",
    "universal_anisotropy",
    "homogeneous_poisson",
    "e_total",
    "e_ionic",
    "e_electronic",
    "n",
    "e_ij_max",
    "weighted_surface_energy_EV_PER_ANG2",
    "weighted_surface_energy",
    "weighted_work_function",
    "surface_anisotropy",
    "shape_factor",
    "has_reconstructed",
    "possible_species",
    "has_props",
    "theoretical",
    "database_IDs"
  ]
}
