{"builder_meta": null, "nsites": null, "elements": null, "nelements": null, "composition": null, "composition_reduced": null, "formula_pretty": "Zr3V", "formula_anonymous": "AB3", "chemsys": null, "volume": 171.04449193840148, "density": 6.30284427387328, "density_atomic": 21.380561492300185, "symmetry": null, "property_name": null, "material_id": "mp-1188058", "deprecated": null, "deprecation_reasons": null, "last_updated": null, "origins": null, "warnings": null, "structure": {"@module": "pymatgen.core.structure", "@class": "Structure", "charge": 0, "lattice": {"matrix": [[3.168058, -5.487238, 0.0], [3.168058, 5.487238, 0.0], [0.0, 0.0, 4.919627]], "pbc": [true, true, true], "a": 6.336116504611322, "b": 6.336116504611322, "c": 4.919627, "alpha": 90.0, "beta": 90.0, "gamma": 120.00000526897128, "volume": 171.04449193840148}, "properties": {}, "sites": [{"species": [{"element": "Zr", "occu": 1}], "abc": [0.172877, 0.345754, 0.25], "properties": {"magmom": -0.091}, "label": "Zr", "xyz": [1.643053088598, 0.948617243726, 1.22990675]}, {"species": [{"element": "Zr", "occu": 1}], "abc": [0.654246, 0.827122999999999, 0.25], "properties": {"magmom": -0.091}, "label": "Zr", "xyz": [4.693062911401997, 0.9486172437259945, 1.22990675]}, {"species": [{"element": "Zr", "occu": 1}], "abc": [0.172877, 0.827122999999999, 0.25], "properties": {"magmom": -0.091}, "label": "Zr", "xyz": [3.1680579999999967, 3.5900035125479945, 1.22990675]}, {"species": [{"element": "Zr", "occu": 1}], "abc": [0.827122999999999, 0.654246, 0.75], "properties": {"magmom": -0.094}, "label": "Zr", "xyz": [4.693062911401997, -0.9486172437259945, 3.68972025]}, {"species": [{"element": "Zr", "occu": 1}], "abc": [0.345754, 0.172877, 0.75], "properties": {"magmom": -0.095}, "label": "Zr", "xyz": [1.643053088598, -0.948617243726, 3.68972025]}, {"species": [{"element": "Zr", "occu": 1}], "abc": [0.827122999999999, 0.172877, 0.75], "properties": {"magmom": -0.095}, "label": "Zr", "xyz": [3.1680579999999967, -3.5900035125479945, 3.68972025]}, {"species": [{"element": "V", "occu": 1}], "abc": [0.333333, 0.666667, 0.75], "properties": {"magmom": 1.669}, "label": "V", "xyz": [3.1680579999999994, 1.8290829914920002, 3.68972025]}, {"species": [{"element": "V", "occu": 1}], "abc": [0.666667, 0.333333, 0.25], "properties": {"magmom": 1.6760000000000002}, "label": "V", "xyz": [3.1680579999999994, -1.8290829914920002, 1.22990675]}]}, "task_ids": null, "uncorrected_energy_per_atom": null, "energy_per_atom": -20.40583070625, "formation_energy_per_atom": 0.17890715499999701, "energy_above_hull": 0.17890715499999701, "is_stable": false, "equilibrium_reaction_energy_per_atom": null, "decomposes_to": null, "xas": null, "grain_boundaries": null, "band_gap": 0.0, "cbm": null, "vbm": null, "efermi": 4.44055987, "is_gap_direct": null, "is_metal": null, "es_source_calc_id": null, "bandstructure": null, "dos": null, "dos_energy_up": null, "dos_energy_down": null, "is_magnetic": null, "ordering": null, "total_magnetization": 3.2340735, "total_magnetization_normalized_vol": null, "total_magnetization_normalized_formula_units": null, "num_magnetic_sites": null, "num_unique_magnetic_sites": null, "types_of_magnetic_species": null, "bulk_modulus": null, "shear_modulus": null, "universal_anisotropy": null, "homogeneous_poisson": null, "e_total": null, "e_ionic": null, "e_electronic": null, "n": null, "e_ij_max": null, "weighted_surface_energy_EV_PER_ANG2": null, "weighted_surface_energy": null, "weighted_work_function": null, "surface_anisotropy": null, "shape_factor": null, "has_reconstructed": null, "possible_species": null, "has_props": null, "theoretical": null, "database_IDs": null, "fields_not_requested": ["builder_meta", "nsites", "elements", "nelements", "composition", "composition_reduced", "chemsys", "symmetry", "property_name", "deprecated", "deprecation_reasons", "last_updated", "origins", "warnings", "task_ids", "uncorrected_energy_per_atom", "equilibrium_reaction_energy_per_atom", "decomposes_to", "xas", "grain_boundaries", "cbm", "vbm", "is_gap_direct", "is_metal", "es_source_calc_id", "bandstructure", "dos", "dos_energy_up", "dos_energy_down", "is_magnetic", "ordering", "total_magnetization_normalized_vol", "total_magnetization_normalized_formula_units", "num_magnetic_sites", "num_unique_magnetic_sites", "types_of_magnetic_species", "bulk_modulus", "shear_modulus", "universal_anisotropy", "homogeneous_poisson", "e_total", "e_ionic", "e_electronic", "n", "e_ij_max", "weighted_surface_energy_EV_PER_ANG2", "weighted_surface_energy", "weighted_work_function", "surface_anisotropy", "shape_factor", "has_reconstructed", "possible_species", "has_props", "theoretical", "database_IDs"]}