{
  "builder_meta": null,
  "nsites": null,
  "elements": null,
  "nelements": null,
  "composition": null,
  "composition_reduced": null,
  "formula_pretty": "Zr3W5",
  "formula_anonymous": "A3B5",
  "chemsys": null,
  "volume": 301.937910180318,
  "density": 13.120648256923621,
  "density_atomic": 18.871119386269875,
  "symmetry": null,
  "property_name": null,
  "material_id": "mp-1188207",
  "deprecated": null,
  "deprecation_reasons": null,
  "last_updated": null,
  "origins": null,
  "warnings": null,
  "structure": {
    "@module": "pymatgen.core.structure",
    "@class": "Structure",
    "charge": 0,
    "lattice": {
      "matrix": [
        [-5.330493, 5.330493, 2.65658],
        [5.330493, -5.330493, 2.65658],
        [5.330493, 5.330493, -2.65658]
      ],
      "pbc": [true, true, true],
      "a": 7.992854843076908,
      "b": 7.992854843076908,
      "c": 7.992854843076908,
      "alpha": 96.34237439493462,
      "beta": 96.34237439493462,
      "gamma": 141.17470224781448,
      "volume": 301.937910180318
    },
    "properties": {},
    "sites": [
      {
        "species": [{ "element": "Zr", "occu": 1 }],
        "abc": [0.688091999999999, 0.188091999999999, 0.876184],
        "properties": { "magmom": -0.0 },
        "label": "Zr",
        "xyz": [2.0052461787119995, 7.335739178712, -5.329070518200751e-15]
      },
      {
        "species": [{ "element": "Zr", "occu": 1 }],
        "abc": [0.311907999999999, 0.811908, 0.123816],
        "properties": { "magmom": -0.0 },
        "label": "Zr",
        "xyz": [3.325246821288005, -2.0052461787120053, 2.6565799999999973]
      },
      {
        "species": [{ "element": "Zr", "occu": 1 }],
        "abc": [0.811908, 0.688091999999999, 0.5],
        "properties": { "magmom": -0.0 },
        "label": "Zr",
        "xyz": [2.0052461787119946, 3.325246821288005, 2.6565799999999973]
      },
      {
        "species": [{ "element": "Zr", "occu": 1 }],
        "abc": [0.188091999999999, 0.311907999999999, 0.5],
        "properties": { "magmom": -0.0 },
        "label": "Zr",
        "xyz": [3.325246821288, 2.0052461787119995, -5.329070518200751e-15]
      },
      {
        "species": [{ "element": "Zr", "occu": 1 }],
        "abc": [0.75, 0.75, 0.0],
        "properties": { "magmom": 0.004 },
        "label": "Zr",
        "xyz": [0.0, 0.0, 3.98487]
      },
      {
        "species": [{ "element": "Zr", "occu": 1 }],
        "abc": [0.25, 0.25, 0.0],
        "properties": { "magmom": 0.004 },
        "label": "Zr",
        "xyz": [0.0, 0.0, 1.32829]
      },
      {
        "species": [{ "element": "W", "occu": 1 }],
        "abc": [0.258062, 0.058459, 0.316521],
        "properties": { "magmom": 0.0 },
        "label": "W",
        "xyz": [0.6232305805739997, 2.7511953691319997, 0.0]
      },
      {
        "species": [{ "element": "W", "occu": 1 }],
        "abc": [0.741938, 0.941541, 0.683479],
        "properties": { "magmom": 0.0 },
        "label": "W",
        "xyz": [4.707262419425999, 2.579297630868, 2.65658]
      },
      {
        "species": [{ "element": "W", "occu": 1 }],
        "abc": [0.241938, 0.558458999999999, 0.800396999999999],
        "properties": { "magmom": 0.0 },
        "label": "W",
        "xyz": [5.95372358057399, 2.579297630867999, 0.0]
      },
      {
        "species": [{ "element": "W", "occu": 1 }],
        "abc": [0.758062, 0.441540999999999, 0.199603],
        "properties": { "magmom": 0.0 },
        "label": "W",
        "xyz": [-0.6232305805740053, 2.751195369132005, 2.6565799999999973]
      },
      {
        "species": [{ "element": "W", "occu": 1 }],
        "abc": [0.058459, 0.741938, 0.800396999999999],
        "properties": { "magmom": 0.0 },
        "label": "W",
        "xyz": [7.909790630867994, 0.6232305805739946, 2.6645352591003757e-15]
      },
      {
        "species": [{ "element": "W", "occu": 1 }],
        "abc": [0.941541, 0.258062, 0.199603],
        "properties": { "magmom": 0.0 },
        "label": "W",
        "xyz": [-2.579297630867999, 4.707262419425999, 2.65658]
      },
      {
        "species": [{ "element": "W", "occu": 1 }],
        "abc": [0.558458999999999, 0.758062, 0.316521],
        "properties": { "magmom": 0.0 },
        "label": "W",
        "xyz": [2.7511953691320046, 0.623230580573995, 2.6565799999999973]
      },
      {
        "species": [{ "element": "W", "occu": 1 }],
        "abc": [0.441540999999999, 0.241938, 0.683479],
        "properties": { "magmom": 0.0 },
        "label": "W",
        "xyz": [2.5792976308680045, 4.707262419425994, -2.6645352591003757e-15]
      },
      {
        "species": [{ "element": "W", "occu": 1 }],
        "abc": [0.25, 0.75, 0.5],
        "properties": { "magmom": -0.0 },
        "label": "W",
        "xyz": [5.330492999999999, 4.440892098500626e-16, 1.32829]
      },
      {
        "species": [{ "element": "W", "occu": 1 }],
        "abc": [0.75, 0.25, 0.5],
        "properties": { "magmom": -0.0 },
        "label": "W",
        "xyz": [4.440892098500626e-16, 5.330492999999999, 1.32829]
      }
    ]
  },
  "task_ids": null,
  "uncorrected_energy_per_atom": null,
  "energy_per_atom": -40.1881326934375,
  "formation_energy_per_atom": 0.44791075843749406,
  "energy_above_hull": 0.5787867881250001,
  "is_stable": false,
  "equilibrium_reaction_energy_per_atom": null,
  "decomposes_to": null,
  "xas": null,
  "grain_boundaries": null,
  "band_gap": 0.0,
  "cbm": null,
  "vbm": null,
  "efermi": 5.41377232,
  "is_gap_direct": null,
  "is_metal": null,
  "es_source_calc_id": null,
  "bandstructure": null,
  "dos": null,
  "dos_energy_up": null,
  "dos_energy_down": null,
  "is_magnetic": null,
  "ordering": null,
  "total_magnetization": 0.023017299999999002,
  "total_magnetization_normalized_vol": null,
  "total_magnetization_normalized_formula_units": null,
  "num_magnetic_sites": null,
  "num_unique_magnetic_sites": null,
  "types_of_magnetic_species": null,
  "bulk_modulus": null,
  "shear_modulus": null,
  "universal_anisotropy": null,
  "homogeneous_poisson": null,
  "e_total": null,
  "e_ionic": null,
  "e_electronic": null,
  "n": null,
  "e_ij_max": null,
  "weighted_surface_energy_EV_PER_ANG2": null,
  "weighted_surface_energy": null,
  "weighted_work_function": null,
  "surface_anisotropy": null,
  "shape_factor": null,
  "has_reconstructed": null,
  "possible_species": null,
  "has_props": null,
  "theoretical": null,
  "database_IDs": null,
  "fields_not_requested": [
    "builder_meta",
    "nsites",
    "elements",
    "nelements",
    "composition",
    "composition_reduced",
    "chemsys",
    "symmetry",
    "property_name",
    "deprecated",
    "deprecation_reasons",
    "last_updated",
    "origins",
    "warnings",
    "task_ids",
    "uncorrected_energy_per_atom",
    "equilibrium_reaction_energy_per_atom",
    "decomposes_to",
    "xas",
    "grain_boundaries",
    "cbm",
    "vbm",
    "is_gap_direct",
    "is_metal",
    "es_source_calc_id",
    "bandstructure",
    "dos",
    "dos_energy_up",
    "dos_energy_down",
    "is_magnetic",
    "ordering",
    "total_magnetization_normalized_vol",
    "total_magnetization_normalized_formula_units",
    "num_magnetic_sites",
    "num_unique_magnetic_sites",
    "types_of_magnetic_species",
    "bulk_modulus",
    "shear_modulus",
    "universal_anisotropy",
    "homogeneous_poisson",
    "e_total",
    "e_ionic",
    "e_electronic",
    "n",
    "e_ij_max",
    "weighted_surface_energy_EV_PER_ANG2",
    "weighted_surface_energy",
    "weighted_work_function",
    "surface_anisotropy",
    "shape_factor",
    "has_reconstructed",
    "possible_species",
    "has_props",
    "theoretical",
    "database_IDs"
  ]
}
