{"builder_meta": null, "nsites": null, "elements": null, "nelements": null, "composition": null, "composition_reduced": null, "formula_pretty": "Zr3Zn2", "formula_anonymous": "A2B3", "chemsys": null, "volume": 392.6388258412313, "density": 6.842639116088159, "density_atomic": 19.631941292061565, "symmetry": null, "property_name": null, "material_id": "mp-1207421", "deprecated": null, "deprecation_reasons": null, "last_updated": null, "origins": null, "warnings": null, "structure": {"@module": "pymatgen.core.structure", "@class": "Structure", "charge": 0, "lattice": {"matrix": [[7.57040197, 3.0000000000000004e-08, 0.0], [-3.0000000000000004e-08, 7.57040197, 0.0], [0.0, 0.0, 6.851022]], "pbc": [true, true, true], "a": 7.57040197, "b": 7.57040197, "c": 6.851022, "alpha": 90.0, "beta": 90.0, "gamma": 90.0, "volume": 392.6388258412313}, "properties": {}, "sites": [{"species": [{"element": "Zr", "occu": 1}], "abc": [0.5, 0.0, 0.25], "properties": {"magmom": 0.324}, "label": "Zr", "xyz": [3.785200985, 1.5000000000000002e-08, 1.7127555]}, {"species": [{"element": "Zr", "occu": 1}], "abc": [0.5, 0.0, 0.75], "properties": {"magmom": 0.329}, "label": "Zr", "xyz": [3.785200985, 1.5000000000000002e-08, 5.1382665]}, {"species": [{"element": "Zr", "occu": 1}], "abc": [0.0, 0.5, 0.25], "properties": {"magmom": 0.322}, "label": "Zr", "xyz": [-1.5000000000000002e-08, 3.785200985, 1.7127555]}, {"species": [{"element": "Zr", "occu": 1}], "abc": [0.0, 0.5, 0.75], "properties": {"magmom": 0.326}, "label": "Zr", "xyz": [-1.5000000000000002e-08, 3.785200985, 5.1382665]}, {"species": [{"element": "Zr", "occu": 1}], "abc": [0.70456841, 0.29527458, 8.747e-05], "properties": {"magmom": 0.209}, "label": "Zr", "xyz": [5.33386607020553, 2.2353472832599746, 0.00059925889434]}, {"species": [{"element": "Zr", "occu": 1}], "abc": [0.29543159, 0.70472542, 8.747e-05], "properties": {"magmom": 0.209}, "label": "Zr", "xyz": [2.2365358697944697, 5.335054716740025, 0.00059925889434]}, {"species": [{"element": "Zr", "occu": 1}], "abc": [0.7952745800000001, 0.79543159, 0.49991253], "properties": {"magmom": 0.209}, "label": "Zr", "xyz": [6.020548223259975, 6.021736899794469, 3.42491174110566]}, {"species": [{"element": "Zr", "occu": 1}], "abc": [0.20472542, 0.20456841, 0.49991253], "properties": {"magmom": 0.209}, "label": "Zr", "xyz": [1.549853716740025, 1.5486651002055303, 3.42491174110566]}, {"species": [{"element": "Zr", "occu": 1}], "abc": [0.14813309, 0.14815916, 5.093e-05], "properties": {"magmom": 0.339}, "label": "Zr", "xyz": [1.1214270319134125, 1.121624401181538, 0.00034892255046000006]}, {"species": [{"element": "Zr", "occu": 1}], "abc": [0.85186691, 0.85184084, 5.093e-05], "properties": {"magmom": 0.339}, "label": "Zr", "xyz": [6.448974908086587, 6.448777598818462, 0.00034892255046000006]}, {"species": [{"element": "Zr", "occu": 1}], "abc": [0.6481591600000001, 0.35186691000000003, 0.49994907], "properties": {"magmom": 0.339}, "label": "Zr", "xyz": [4.906825371181538, 2.6637739680865877, 3.4251620774495404]}, {"species": [{"element": "Zr", "occu": 1}], "abc": [0.35184084, 0.64813309, 0.49994907], "properties": {"magmom": 0.339}, "label": "Zr", "xyz": [2.663576568818462, 4.906628031913412, 3.4251620774495404]}, {"species": [{"element": "Zn", "occu": 1}], "abc": [0.37808259, 0.37850282, 0.19530174], "properties": {"magmom": 0.017}, "label": "Zn", "xyz": [2.8622371728036176, 2.865418505521033, 1.33801651737828]}, {"species": [{"element": "Zn", "occu": 1}], "abc": [0.62191093, 0.62148568, 0.80478136], "properties": {"magmom": 0.017}, "label": "Zn", "xyz": [4.708115710991962, 4.704896434856118, 5.51357480254992]}, {"species": [{"element": "Zn", "occu": 1}], "abc": [0.62191741, 0.62149718, 0.19530174], "properties": {"magmom": 0.017}, "label": "Zn", "xyz": [4.708164767196382, 4.704983494478967, 1.33801651737828]}, {"species": [{"element": "Zn", "occu": 1}], "abc": [0.8785143200000001, 0.12191093, 0.69521864], "properties": {"magmom": 0.017}, "label": "Zn", "xyz": [6.650706535143883, 0.9229147709919617, 4.7629581974500805]}, {"species": [{"element": "Zn", "occu": 1}], "abc": [0.87850282, 0.12191741, 0.30469826], "properties": {"magmom": 0.017}, "label": "Zn", "xyz": [6.650619475521033, 0.9229638271963823, 2.0874944826217203]}, {"species": [{"element": "Zn", "occu": 1}], "abc": [0.37808907, 0.37851432, 0.80478136], "properties": {"magmom": 0.017}, "label": "Zn", "xyz": [2.8622862290080384, 2.8655055651438825, 5.51357480254992]}, {"species": [{"element": "Zn", "occu": 1}], "abc": [0.12149718, 0.87808259, 0.30469826], "properties": {"magmom": 0.017}, "label": "Zn", "xyz": [0.9197824644789668, 6.647438172803618, 2.0874944826217203]}, {"species": [{"element": "Zn", "occu": 1}], "abc": [0.12148568, 0.87808907, 0.69521864], "properties": {"magmom": 0.017}, "label": "Zn", "xyz": [0.9196954048561174, 6.647487229008038, 4.7629581974500805]}]}, "task_ids": null, "uncorrected_energy_per_atom": null, "energy_per_atom": -17.443205396499998, "formation_energy_per_atom": -0.22908921149999903, "energy_above_hull": 0.0317538645, "is_stable": false, "equilibrium_reaction_energy_per_atom": null, "decomposes_to": null, "xas": null, "grain_boundaries": null, "band_gap": 0.0, "cbm": null, "vbm": null, "efermi": 3.6288766900000002, "is_gap_direct": null, "is_metal": null, "es_source_calc_id": null, "bandstructure": null, "dos": null, "dos_energy_up": null, "dos_energy_down": null, "is_magnetic": null, "ordering": null, "total_magnetization": 6.7368041, "total_magnetization_normalized_vol": null, "total_magnetization_normalized_formula_units": null, "num_magnetic_sites": null, "num_unique_magnetic_sites": null, "types_of_magnetic_species": null, "bulk_modulus": null, "shear_modulus": null, "universal_anisotropy": null, "homogeneous_poisson": null, "e_total": null, "e_ionic": null, "e_electronic": null, "n": null, "e_ij_max": null, "weighted_surface_energy_EV_PER_ANG2": null, "weighted_surface_energy": null, "weighted_work_function": null, "surface_anisotropy": null, "shape_factor": null, "has_reconstructed": null, "possible_species": null, "has_props": null, "theoretical": null, "database_IDs": null, "fields_not_requested": ["builder_meta", "nsites", "elements", "nelements", "composition", "composition_reduced", "chemsys", "symmetry", "property_name", "deprecated", "deprecation_reasons", "last_updated", "origins", "warnings", "task_ids", "uncorrected_energy_per_atom", "equilibrium_reaction_energy_per_atom", "decomposes_to", "xas", "grain_boundaries", "cbm", "vbm", "is_gap_direct", "is_metal", "es_source_calc_id", "bandstructure", "dos", "dos_energy_up", "dos_energy_down", "is_magnetic", "ordering", "total_magnetization_normalized_vol", "total_magnetization_normalized_formula_units", "num_magnetic_sites", "num_unique_magnetic_sites", "types_of_magnetic_species", "bulk_modulus", "shear_modulus", "universal_anisotropy", "homogeneous_poisson", "e_total", "e_ionic", "e_electronic", "n", "e_ij_max", "weighted_surface_energy_EV_PER_ANG2", "weighted_surface_energy", "weighted_work_function", "surface_anisotropy", "shape_factor", "has_reconstructed", "possible_species", "has_props", "theoretical", "database_IDs"]}