{
  "builder_meta": null,
  "nsites": null,
  "elements": null,
  "nelements": null,
  "composition": null,
  "composition_reduced": null,
  "formula_pretty": "Zr4Al3",
  "formula_anonymous": "A3B4",
  "chemsys": null,
  "volume": 138.25470530044956,
  "density": 5.354868453873113,
  "density_atomic": 19.75067218577851,
  "symmetry": null,
  "property_name": null,
  "material_id": "mp-12752",
  "deprecated": null,
  "deprecation_reasons": null,
  "last_updated": null,
  "origins": null,
  "warnings": null,
  "structure": {
    "@module": "pymatgen.core.structure",
    "@class": "Structure",
    "charge": 0,
    "lattice": {
      "matrix": [
        [5.43807389, 0.0, 0.0],
        [-2.71903694, 4.70951068, 0.0],
        [-0.0, 0.0, 5.39832504]
      ],
      "pbc": [true, true, true],
      "a": 5.43807389,
      "b": 5.438074358274133,
      "c": 5.39832504,
      "alpha": 90.0,
      "beta": 90.0,
      "gamma": 119.99999709066486,
      "volume": 138.25470530044956
    },
    "properties": {},
    "sites": [
      {
        "species": [{ "element": "Zr", "occu": 1 }],
        "abc": [0.333333, 0.666667, 0.26033483],
        "properties": { "magmom": -0.11900000000000001 },
        "label": "Zr",
        "xyz": [-2.715703609990072e-6, 3.13967535650356, 1.4053720315731433]
      },
      {
        "species": [{ "element": "Zr", "occu": 1 }],
        "abc": [0.333333, 0.666667, 0.73966517],
        "properties": { "magmom": -0.11900000000000001 },
        "label": "Zr",
        "xyz": [-2.715703609990072e-6, 3.13967535650356, 3.9929530084268565]
      },
      {
        "species": [{ "element": "Zr", "occu": 1 }],
        "abc": [0.666667, 0.333333, 0.5],
        "properties": { "magmom": -0.012 },
        "label": "Zr",
        "xyz": [2.7190396657036104, 1.56983532349644, 2.69916252]
      },
      {
        "species": [{ "element": "Zr", "occu": 1 }],
        "abc": [-0.0, -0.0, 0.5],
        "properties": { "magmom": -0.012 },
        "label": "Zr",
        "xyz": [0.0, 0.0, 2.69916252]
      },
      {
        "species": [{ "element": "Al", "occu": 1 }],
        "abc": [0.333331999999999, 0.16666925, -0.0],
        "properties": { "magmom": 0.002 },
        "label": "Al",
        "xyz": [1.3595041983893796, 0.78493061290259, 0.0]
      },
      {
        "species": [{ "element": "Al", "occu": 1 }],
        "abc": [0.83333725, 0.666667999999999, 0.0],
        "properties": { "magmom": 0.002 },
        "label": "Al",
        "xyz": [2.719054622073486, 3.1396800660142357, 0.0]
      },
      {
        "species": [{ "element": "Al", "occu": 1 }],
        "abc": [0.83333075, 0.16666275, 0.0],
        "properties": { "magmom": 0.002 },
        "label": "Al",
        "xyz": [4.078552019537132, 0.78490000108317, 0.0]
      }
    ]
  },
  "task_ids": null,
  "uncorrected_energy_per_atom": null,
  "energy_per_atom": -16.403574357142855,
  "formation_energy_per_atom": -0.51850827,
  "energy_above_hull": 0.0,
  "is_stable": true,
  "equilibrium_reaction_energy_per_atom": null,
  "decomposes_to": null,
  "xas": null,
  "grain_boundaries": null,
  "band_gap": 0.0,
  "cbm": null,
  "vbm": null,
  "efermi": 5.43364788,
  "is_gap_direct": null,
  "is_metal": null,
  "es_source_calc_id": null,
  "bandstructure": null,
  "dos": null,
  "dos_energy_up": null,
  "dos_energy_down": null,
  "is_magnetic": null,
  "ordering": null,
  "total_magnetization": 0.3805465,
  "total_magnetization_normalized_vol": null,
  "total_magnetization_normalized_formula_units": null,
  "num_magnetic_sites": null,
  "num_unique_magnetic_sites": null,
  "types_of_magnetic_species": null,
  "bulk_modulus": null,
  "shear_modulus": null,
  "universal_anisotropy": null,
  "homogeneous_poisson": null,
  "e_total": null,
  "e_ionic": null,
  "e_electronic": null,
  "n": null,
  "e_ij_max": null,
  "weighted_surface_energy_EV_PER_ANG2": null,
  "weighted_surface_energy": null,
  "weighted_work_function": null,
  "surface_anisotropy": null,
  "shape_factor": null,
  "has_reconstructed": null,
  "possible_species": null,
  "has_props": null,
  "theoretical": null,
  "database_IDs": null,
  "fields_not_requested": [
    "builder_meta",
    "nsites",
    "elements",
    "nelements",
    "composition",
    "composition_reduced",
    "chemsys",
    "symmetry",
    "property_name",
    "deprecated",
    "deprecation_reasons",
    "last_updated",
    "origins",
    "warnings",
    "task_ids",
    "uncorrected_energy_per_atom",
    "equilibrium_reaction_energy_per_atom",
    "decomposes_to",
    "xas",
    "grain_boundaries",
    "cbm",
    "vbm",
    "is_gap_direct",
    "is_metal",
    "es_source_calc_id",
    "bandstructure",
    "dos",
    "dos_energy_up",
    "dos_energy_down",
    "is_magnetic",
    "ordering",
    "total_magnetization_normalized_vol",
    "total_magnetization_normalized_formula_units",
    "num_magnetic_sites",
    "num_unique_magnetic_sites",
    "types_of_magnetic_species",
    "bulk_modulus",
    "shear_modulus",
    "universal_anisotropy",
    "homogeneous_poisson",
    "e_total",
    "e_ionic",
    "e_electronic",
    "n",
    "e_ij_max",
    "weighted_surface_energy_EV_PER_ANG2",
    "weighted_surface_energy",
    "weighted_work_function",
    "surface_anisotropy",
    "shape_factor",
    "has_reconstructed",
    "possible_species",
    "has_props",
    "theoretical",
    "database_IDs"
  ]
}
