{
  "builder_meta": null,
  "nsites": null,
  "elements": null,
  "nelements": null,
  "composition": null,
  "composition_reduced": null,
  "formula_pretty": "Zr4Fe",
  "formula_anonymous": "AB4",
  "chemsys": null,
  "volume": 230.67489866185426,
  "density": 6.057502324468427,
  "density_atomic": 23.067489866185426,
  "symmetry": null,
  "property_name": null,
  "material_id": "mp-1207484",
  "deprecated": null,
  "deprecation_reasons": null,
  "last_updated": null,
  "origins": null,
  "warnings": null,
  "structure": {
    "@module": "pymatgen.core.structure",
    "@class": "Structure",
    "charge": 0,
    "lattice": {
      "matrix": [
        [-4.867696, -4.867696, 0.0],
        [-4.867696, 0.0, -4.867696],
        [0.0, -4.867696, -4.867696]
      ],
      "pbc": [true, true, true],
      "a": 6.883961700709264,
      "b": 6.883961700709264,
      "c": 6.883961700709264,
      "alpha": 59.99999999999999,
      "beta": 59.99999999999999,
      "gamma": 59.99999999999999,
      "volume": 230.67489866185426
    },
    "properties": {},
    "sites": [
      {
        "species": [{ "element": "Zr", "occu": 1 }],
        "abc": [0.611198999999999, 0.611198999999999, 0.611198999999999],
        "properties": { "magmom": -0.001 },
        "label": "Zr",
        "xyz": [-5.95026185500799, -5.95026185500799, -5.95026185500799]
      },
      {
        "species": [{ "element": "Zr", "occu": 1 }],
        "abc": [0.166404, 0.611198999999999, 0.611198999999999],
        "properties": { "magmom": -0.001 },
        "label": "Zr",
        "xyz": [-3.785135012687995, -3.785135012687995, -5.95026185500799]
      },
      {
        "species": [{ "element": "Zr", "occu": 1 }],
        "abc": [0.611198999999999, 0.166404, 0.611198999999999],
        "properties": { "magmom": -0.001 },
        "label": "Zr",
        "xyz": [-3.785135012687995, -5.95026185500799, -3.785135012687995]
      },
      {
        "species": [{ "element": "Zr", "occu": 1 }],
        "abc": [0.583596, 0.138800999999999, 0.138800999999999],
        "properties": { "magmom": -0.001 },
        "label": "Zr",
        "xyz": [-3.516408987311995, -3.516408987311995, -1.3512821449919903]
      },
      {
        "species": [{ "element": "Zr", "occu": 1 }],
        "abc": [0.138800999999999, 0.138800999999999, 0.138800999999999],
        "properties": { "magmom": -0.001 },
        "label": "Zr",
        "xyz": [-1.3512821449919903, -1.3512821449919903, -1.3512821449919903]
      },
      {
        "species": [{ "element": "Zr", "occu": 1 }],
        "abc": [0.611198999999999, 0.611198999999999, 0.166404],
        "properties": { "magmom": -0.001 },
        "label": "Zr",
        "xyz": [-5.95026185500799, -3.785135012687995, -3.785135012687995]
      },
      {
        "species": [{ "element": "Zr", "occu": 1 }],
        "abc": [0.138800999999999, 0.583596, 0.138800999999999],
        "properties": { "magmom": -0.001 },
        "label": "Zr",
        "xyz": [-3.516408987311995, -1.3512821449919903, -3.516408987311995]
      },
      {
        "species": [{ "element": "Zr", "occu": 1 }],
        "abc": [0.138800999999999, 0.138800999999999, 0.583596],
        "properties": { "magmom": -0.001 },
        "label": "Zr",
        "xyz": [-1.3512821449919903, -3.516408987311995, -3.516408987311995]
      },
      {
        "species": [{ "element": "Fe", "occu": 1 }],
        "abc": [0.0, 0.0, 0.0],
        "properties": { "magmom": 0.01 },
        "label": "Fe",
        "xyz": [0.0, 0.0, 0.0]
      },
      {
        "species": [{ "element": "Fe", "occu": 1 }],
        "abc": [0.75, 0.75, 0.75],
        "properties": { "magmom": 0.01 },
        "label": "Fe",
        "xyz": [-7.301544, -7.301544, -7.301544]
      }
    ]
  },
  "task_ids": null,
  "uncorrected_energy_per_atom": null,
  "energy_per_atom": -7.969170557,
  "formation_energy_per_atom": 0.5629941889999991,
  "energy_above_hull": 0.6505682650000001,
  "is_stable": false,
  "equilibrium_reaction_energy_per_atom": null,
  "decomposes_to": null,
  "xas": null,
  "grain_boundaries": null,
  "band_gap": 0.0,
  "cbm": null,
  "vbm": null,
  "efermi": 3.64081883,
  "is_gap_direct": null,
  "is_metal": null,
  "es_source_calc_id": null,
  "bandstructure": null,
  "dos": null,
  "dos_energy_up": null,
  "dos_energy_down": null,
  "is_magnetic": null,
  "ordering": null,
  "total_magnetization": 0.019046499999999,
  "total_magnetization_normalized_vol": null,
  "total_magnetization_normalized_formula_units": null,
  "num_magnetic_sites": null,
  "num_unique_magnetic_sites": null,
  "types_of_magnetic_species": null,
  "bulk_modulus": null,
  "shear_modulus": null,
  "universal_anisotropy": null,
  "homogeneous_poisson": null,
  "e_total": null,
  "e_ionic": null,
  "e_electronic": null,
  "n": null,
  "e_ij_max": null,
  "weighted_surface_energy_EV_PER_ANG2": null,
  "weighted_surface_energy": null,
  "weighted_work_function": null,
  "surface_anisotropy": null,
  "shape_factor": null,
  "has_reconstructed": null,
  "possible_species": null,
  "has_props": null,
  "theoretical": null,
  "database_IDs": null,
  "fields_not_requested": [
    "builder_meta",
    "nsites",
    "elements",
    "nelements",
    "composition",
    "composition_reduced",
    "chemsys",
    "symmetry",
    "property_name",
    "deprecated",
    "deprecation_reasons",
    "last_updated",
    "origins",
    "warnings",
    "task_ids",
    "uncorrected_energy_per_atom",
    "equilibrium_reaction_energy_per_atom",
    "decomposes_to",
    "xas",
    "grain_boundaries",
    "cbm",
    "vbm",
    "is_gap_direct",
    "is_metal",
    "es_source_calc_id",
    "bandstructure",
    "dos",
    "dos_energy_up",
    "dos_energy_down",
    "is_magnetic",
    "ordering",
    "total_magnetization_normalized_vol",
    "total_magnetization_normalized_formula_units",
    "num_magnetic_sites",
    "num_unique_magnetic_sites",
    "types_of_magnetic_species",
    "bulk_modulus",
    "shear_modulus",
    "universal_anisotropy",
    "homogeneous_poisson",
    "e_total",
    "e_ionic",
    "e_electronic",
    "n",
    "e_ij_max",
    "weighted_surface_energy_EV_PER_ANG2",
    "weighted_surface_energy",
    "weighted_work_function",
    "surface_anisotropy",
    "shape_factor",
    "has_reconstructed",
    "possible_species",
    "has_props",
    "theoretical",
    "database_IDs"
  ]
}
