{"builder_meta": null, "nsites": null, "elements": null, "nelements": null, "composition": null, "composition_reduced": null, "formula_pretty": "Zr4Mo", "formula_anonymous": "AB4", "chemsys": null, "volume": 248.41396587714368, "density": 6.160975519984532, "density_atomic": 24.841396587714367, "symmetry": null, "property_name": null, "material_id": "mp-1207454", "deprecated": null, "deprecation_reasons": null, "last_updated": null, "origins": null, "warnings": null, "structure": {"@module": "pymatgen.core.structure", "@class": "Structure", "charge": 0, "lattice": {"matrix": [[0.0, 4.989404, 4.989404], [4.989404, 0.0, 4.989404], [4.989404, 4.989404, 0.0]], "pbc": [true, true, true], "a": 7.056082804958571, "b": 7.056082804958571, "c": 7.056082804958571, "alpha": 60.00000000000001, "beta": 60.00000000000001, "gamma": 60.00000000000001, "volume": 248.41396587714368}, "properties": {}, "sites": [{"species": [{"element": "Zr", "occu": 1}], "abc": [0.394115, 0.394115, 0.394115], "properties": {"magmom": 0.0}, "label": "Zr", "xyz": [3.93279791492, 3.93279791492, 3.93279791492]}, {"species": [{"element": "Zr", "occu": 1}], "abc": [0.394115, 0.394115, 0.817655999999999], "properties": {"magmom": 0.0}, "label": "Zr", "xyz": [6.0460150744839956, 6.0460150744839956, 3.93279791492]}, {"species": [{"element": "Zr", "occu": 1}], "abc": [0.394115, 0.817655999999999, 0.394115], "properties": {"magmom": 0.0}, "label": "Zr", "xyz": [6.0460150744839956, 3.93279791492, 6.0460150744839956]}, {"species": [{"element": "Zr", "occu": 1}], "abc": [0.855885, 0.855885, 0.432344], "properties": {"magmom": 0.0}, "label": "Zr", "xyz": [6.427494925516001, 6.427494925516001, 8.540712085080001]}, {"species": [{"element": "Zr", "occu": 1}], "abc": [0.855885, 0.855885, 0.855885], "properties": {"magmom": 0.0}, "label": "Zr", "xyz": [8.540712085080001, 8.540712085080001, 8.540712085080001]}, {"species": [{"element": "Zr", "occu": 1}], "abc": [0.817655999999999, 0.394115, 0.394115], "properties": {"magmom": 0.0}, "label": "Zr", "xyz": [3.93279791492, 6.0460150744839956, 6.0460150744839956]}, {"species": [{"element": "Zr", "occu": 1}], "abc": [0.855885, 0.432344, 0.855885], "properties": {"magmom": 0.0}, "label": "Zr", "xyz": [6.427494925516001, 8.540712085080001, 6.427494925516001]}, {"species": [{"element": "Zr", "occu": 1}], "abc": [0.432344, 0.855885, 0.855885], "properties": {"magmom": 0.0}, "label": "Zr", "xyz": [8.540712085080001, 6.427494925516001, 6.427494925516001]}, {"species": [{"element": "Mo", "occu": 1}], "abc": [0.0, 0.0, 0.0], "properties": {"magmom": 0.001}, "label": "Mo", "xyz": [0.0, 0.0, 0.0]}, {"species": [{"element": "Mo", "occu": 1}], "abc": [0.25, 0.25, 0.25], "properties": {"magmom": 0.001}, "label": "Mo", "xyz": [2.494702, 2.494702, 2.494702]}]}, "task_ids": null, "uncorrected_energy_per_atom": null, "energy_per_atom": -22.5042329375, "formation_energy_per_atom": 0.9099964744999961, "energy_above_hull": 0.9517242989999981, "is_stable": false, "equilibrium_reaction_energy_per_atom": null, "decomposes_to": null, "xas": null, "grain_boundaries": null, "band_gap": 0.0, "cbm": null, "vbm": null, "efermi": 3.91284758, "is_gap_direct": null, "is_metal": null, "es_source_calc_id": null, "bandstructure": null, "dos": null, "dos_energy_up": null, "dos_energy_down": null, "is_magnetic": null, "ordering": null, "total_magnetization": 0.0085694, "total_magnetization_normalized_vol": null, "total_magnetization_normalized_formula_units": null, "num_magnetic_sites": null, "num_unique_magnetic_sites": null, "types_of_magnetic_species": null, "bulk_modulus": null, "shear_modulus": null, "universal_anisotropy": null, "homogeneous_poisson": null, "e_total": null, "e_ionic": null, "e_electronic": null, "n": null, "e_ij_max": null, "weighted_surface_energy_EV_PER_ANG2": null, "weighted_surface_energy": null, "weighted_work_function": null, "surface_anisotropy": null, "shape_factor": null, "has_reconstructed": null, "possible_species": null, "has_props": null, "theoretical": null, "database_IDs": null, "fields_not_requested": ["builder_meta", "nsites", "elements", "nelements", "composition", "composition_reduced", "chemsys", "symmetry", "property_name", "deprecated", "deprecation_reasons", "last_updated", "origins", "warnings", "task_ids", "uncorrected_energy_per_atom", "equilibrium_reaction_energy_per_atom", "decomposes_to", "xas", "grain_boundaries", "cbm", "vbm", "is_gap_direct", "is_metal", "es_source_calc_id", "bandstructure", "dos", "dos_energy_up", "dos_energy_down", "is_magnetic", "ordering", "total_magnetization_normalized_vol", "total_magnetization_normalized_formula_units", "num_magnetic_sites", "num_unique_magnetic_sites", "types_of_magnetic_species", "bulk_modulus", "shear_modulus", "universal_anisotropy", "homogeneous_poisson", "e_total", "e_ionic", "e_electronic", "n", "e_ij_max", "weighted_surface_energy_EV_PER_ANG2", "weighted_surface_energy", "weighted_work_function", "surface_anisotropy", "shape_factor", "has_reconstructed", "possible_species", "has_props", "theoretical", "database_IDs"]}