{
  "builder_meta": null,
  "nsites": null,
  "elements": null,
  "nelements": null,
  "composition": null,
  "composition_reduced": null,
  "formula_pretty": "Zr4Ni",
  "formula_anonymous": "AB4",
  "chemsys": null,
  "volume": 235.98641271524357,
  "density": 5.961247843081591,
  "density_atomic": 23.598641271524357,
  "symmetry": null,
  "property_name": null,
  "material_id": "mp-1207489",
  "deprecated": null,
  "deprecation_reasons": null,
  "last_updated": null,
  "origins": null,
  "warnings": null,
  "structure": {
    "@module": "pymatgen.core.structure",
    "@class": "Structure",
    "charge": 0,
    "lattice": {
      "matrix": [
        [-4.904774, -4.904774, 0.0],
        [-4.904774, 0.0, -4.904774],
        [0.0, -4.904774, -4.904774]
      ],
      "pbc": [true, true, true],
      "a": 6.936397911174935,
      "b": 6.936397911174935,
      "c": 6.936397911174935,
      "alpha": 59.99999999999999,
      "beta": 59.99999999999999,
      "gamma": 59.99999999999999,
      "volume": 235.98641271524357
    },
    "properties": {},
    "sites": [
      {
        "species": [{ "element": "Zr", "occu": 1 }],
        "abc": [0.610076, 0.610076, 0.610076],
        "properties": { "magmom": -0.0 },
        "label": "Zr",
        "xyz": [-5.9845698056479995, -5.9845698056479995, -5.9845698056479995]
      },
      {
        "species": [{ "element": "Zr", "occu": 1 }],
        "abc": [0.169771, 0.610076, 0.610076],
        "properties": { "magmom": -0.0 },
        "label": "Zr",
        "xyz": [-3.8249732895779998, -3.8249732895779998, -5.9845698056479995]
      },
      {
        "species": [{ "element": "Zr", "occu": 1 }],
        "abc": [0.610076, 0.169771, 0.610076],
        "properties": { "magmom": -0.0 },
        "label": "Zr",
        "xyz": [-3.8249732895779998, -5.9845698056479995, -3.8249732895779998]
      },
      {
        "species": [{ "element": "Zr", "occu": 1 }],
        "abc": [0.580229, 0.139924, 0.139924],
        "properties": { "magmom": -0.0 },
        "label": "Zr",
        "xyz": [-3.532187710422, -3.532187710422, -1.372591194352]
      },
      {
        "species": [{ "element": "Zr", "occu": 1 }],
        "abc": [0.139924, 0.139924, 0.139924],
        "properties": { "magmom": -0.0 },
        "label": "Zr",
        "xyz": [-1.372591194352, -1.372591194352, -1.372591194352]
      },
      {
        "species": [{ "element": "Zr", "occu": 1 }],
        "abc": [0.610076, 0.610076, 0.169771],
        "properties": { "magmom": -0.0 },
        "label": "Zr",
        "xyz": [-5.9845698056479995, -3.8249732895779998, -3.8249732895779998]
      },
      {
        "species": [{ "element": "Zr", "occu": 1 }],
        "abc": [0.139924, 0.580229, 0.139924],
        "properties": { "magmom": -0.0 },
        "label": "Zr",
        "xyz": [-3.532187710422, -1.372591194352, -3.532187710422]
      },
      {
        "species": [{ "element": "Zr", "occu": 1 }],
        "abc": [0.139924, 0.139924, 0.580229],
        "properties": { "magmom": -0.0 },
        "label": "Zr",
        "xyz": [-1.372591194352, -3.532187710422, -3.532187710422]
      },
      {
        "species": [{ "element": "Ni", "occu": 1 }],
        "abc": [0.0, 0.0, 0.0],
        "properties": { "magmom": 0.0 },
        "label": "Ni",
        "xyz": [0.0, 0.0, 0.0]
      },
      {
        "species": [{ "element": "Ni", "occu": 1 }],
        "abc": [0.75, 0.75, 0.75],
        "properties": { "magmom": 0.0 },
        "label": "Ni",
        "xyz": [-7.357161, -7.357161, -7.357161]
      }
    ]
  },
  "task_ids": null,
  "uncorrected_energy_per_atom": null,
  "energy_per_atom": -7.544189697,
  "formation_energy_per_atom": 0.449998142999999,
  "energy_above_hull": 0.643837124,
  "is_stable": false,
  "equilibrium_reaction_energy_per_atom": null,
  "decomposes_to": null,
  "xas": null,
  "grain_boundaries": null,
  "band_gap": 0.0,
  "cbm": null,
  "vbm": null,
  "efermi": 3.76356076,
  "is_gap_direct": null,
  "is_metal": null,
  "es_source_calc_id": null,
  "bandstructure": null,
  "dos": null,
  "dos_energy_up": null,
  "dos_energy_down": null,
  "is_magnetic": null,
  "ordering": null,
  "total_magnetization": 0.0021493,
  "total_magnetization_normalized_vol": null,
  "total_magnetization_normalized_formula_units": null,
  "num_magnetic_sites": null,
  "num_unique_magnetic_sites": null,
  "types_of_magnetic_species": null,
  "bulk_modulus": null,
  "shear_modulus": null,
  "universal_anisotropy": null,
  "homogeneous_poisson": null,
  "e_total": null,
  "e_ionic": null,
  "e_electronic": null,
  "n": null,
  "e_ij_max": null,
  "weighted_surface_energy_EV_PER_ANG2": null,
  "weighted_surface_energy": null,
  "weighted_work_function": null,
  "surface_anisotropy": null,
  "shape_factor": null,
  "has_reconstructed": null,
  "possible_species": null,
  "has_props": null,
  "theoretical": null,
  "database_IDs": null,
  "fields_not_requested": [
    "builder_meta",
    "nsites",
    "elements",
    "nelements",
    "composition",
    "composition_reduced",
    "chemsys",
    "symmetry",
    "property_name",
    "deprecated",
    "deprecation_reasons",
    "last_updated",
    "origins",
    "warnings",
    "task_ids",
    "uncorrected_energy_per_atom",
    "equilibrium_reaction_energy_per_atom",
    "decomposes_to",
    "xas",
    "grain_boundaries",
    "cbm",
    "vbm",
    "is_gap_direct",
    "is_metal",
    "es_source_calc_id",
    "bandstructure",
    "dos",
    "dos_energy_up",
    "dos_energy_down",
    "is_magnetic",
    "ordering",
    "total_magnetization_normalized_vol",
    "total_magnetization_normalized_formula_units",
    "num_magnetic_sites",
    "num_unique_magnetic_sites",
    "types_of_magnetic_species",
    "bulk_modulus",
    "shear_modulus",
    "universal_anisotropy",
    "homogeneous_poisson",
    "e_total",
    "e_ionic",
    "e_electronic",
    "n",
    "e_ij_max",
    "weighted_surface_energy_EV_PER_ANG2",
    "weighted_surface_energy",
    "weighted_work_function",
    "surface_anisotropy",
    "shape_factor",
    "has_reconstructed",
    "possible_species",
    "has_props",
    "theoretical",
    "database_IDs"
  ]
}
