{
  "builder_meta": null,
  "nsites": null,
  "elements": null,
  "nelements": null,
  "composition": null,
  "composition_reduced": null,
  "formula_pretty": "Zr4O",
  "formula_anonymous": "AB4",
  "chemsys": null,
  "volume": 286.99175263227033,
  "density": 6.611601408616027,
  "density_atomic": 19.132783508818022,
  "symmetry": null,
  "property_name": null,
  "material_id": "mp-1215377",
  "deprecated": null,
  "deprecation_reasons": null,
  "last_updated": null,
  "origins": null,
  "warnings": null,
  "structure": {
    "@module": "pymatgen.core.structure",
    "@class": "Structure",
    "charge": 0,
    "lattice": {
      "matrix": [
        [-2.82559796, -4.89610753, 0.00032396],
        [2.82445467, -4.89534743, 0.00039581],
        [2.82497644, -1.6322956, 10.37543282]
      ],
      "pbc": [true, true, true],
      "a": 5.652952580893364,
      "b": 5.651722816978729,
      "c": 10.876326908229064,
      "alpha": 74.93806296082411,
      "beta": 89.98787764936455,
      "gamma": 59.973254961442755,
      "volume": 286.99175263227033
    },
    "properties": {},
    "sites": [
      {
        "species": [{ "element": "Zr", "occu": 1 }],
        "abc": [0.458310799999999, 0.41392735, 0.37324181],
        "properties": { "magmom": -0.0 },
        "label": "Zr",
        "xyz": [0.9285162948952159, -4.879498112188566, 3.872857636221376]
      },
      {
        "species": [{ "element": "Zr", "occu": 1 }],
        "abc": [0.96565491, 0.40798879, 0.87445268],
        "properties": { "magmom": -0.0 },
        "label": "Zr",
        "xyz": [0.8941015183580248, -8.15256241279999, 9.073299355216571]
      },
      {
        "species": [{ "element": "Zr", "occu": 1 }],
        "abc": [0.12739901, 0.0856255, 0.37327486],
        "properties": { "magmom": 0.0 },
        "label": "Zr",
        "xyz": [0.9363596457283637, -1.6522207351116263, 3.87296339693734]
      },
      {
        "species": [{ "element": "Zr", "occu": 1 }],
        "abc": [0.62639442, 0.09131639, 0.87454608],
        "properties": { "magmom": 0.0 },
        "label": "Zr",
        "xyz": [0.9585522805700131, -4.941437609996608, 9.074033171710976]
      },
      {
        "species": [{ "element": "Zr", "occu": 1 }],
        "abc": [0.78668291, 0.75428691, 0.37315813000000003],
        "properties": { "magmom": 0.0 },
        "label": "Zr",
        "xyz": [0.9617624854509637, -8.153284979427683, 3.8722305171491977]
      },
      {
        "species": [{ "element": "Zr", "occu": 1 }],
        "abc": [0.28217981000000003, 0.75196459, 0.87442223],
        "properties": { "magmom": -0.0 },
        "label": "Zr",
        "xyz": [3.796785400773209, -6.490026174233662, 9.072898153755203]
      },
      {
        "species": [{ "element": "Zr", "occu": 1 }],
        "abc": [0.37287634000000003, 0.9138727400000001, 0.12752021],
        "properties": { "magmom": -0.0 },
        "label": "Zr",
        "xyz": [1.887835091516282, -6.5075179028329755, 1.323559889035618]
      },
      {
        "species": [{ "element": "Zr", "occu": 1 }],
        "abc": [0.87383901, 0.9081610800000001, 0.62626384],
        "properties": { "magmom": 0.0 },
        "label": "Zr",
        "xyz": [1.865122672717754, -9.746421476343874, 6.498400947637983]
      },
      {
        "species": [{ "element": "Zr", "occu": 1 }],
        "abc": [0.04192777, 0.58557292, 0.12754506000000002],
        "properties": { "magmom": 0.0 },
        "label": "Zr",
        "xyz": [1.895764936678574, -3.28005699965244, 1.3235805600907038]
      },
      {
        "species": [{ "element": "Zr", "occu": 1 }],
        "abc": [0.53463022, 0.59147436, 0.62634915],
        "properties": { "magmom": -0.0 },
        "label": "Zr",
        "xyz": [1.9293640512649357, -6.535466495653192, 6.499050837961606]
      },
      {
        "species": [{ "element": "Zr", "occu": 1 }],
        "abc": [0.71358862, 0.24519783, 0.1276385],
        "properties": { "magmom": -0.0 },
        "label": "Zr",
        "xyz": [-0.963188637596909, -4.902478944576985, 1.3246329079179975]
      },
      {
        "species": [{ "element": "Zr", "occu": 1 }],
        "abc": [0.21812138, 0.24744122000000002, 0.62640794],
        "properties": { "magmom": -0.0 },
        "label": "Zr",
        "xyz": [1.8521508553480461, -3.3017393957421204, 6.499422101696144]
      },
      {
        "species": [{ "element": "O", "occu": 1 }],
        "abc": [0.25014748, 0.49971084, 0.75040418],
        "properties": { "magmom": 0.0 },
        "label": "O",
        "xyz": [2.8244685354780015, -4.895888578011274, 7.786046985762389]
      },
      {
        "species": [{ "element": "O", "occu": 1 }],
        "abc": [0.50003239, 0.99976645, 0.5002286300000001],
        "properties": { "magmom": 0.0 },
        "label": "O",
        "xyz": [2.8240386118573744, -8.158937463273649, 5.190646253257277]
      },
      {
        "species": [{ "element": "O", "occu": 1 }],
        "abc": [0.00024194, 0.99969504, 0.00054868],
        "properties": { "magmom": -0.0 },
        "label": "O",
        "xyz": [2.8244597072064934, -4.895934717053364, 0.0060885601523424]
      }
    ]
  },
  "task_ids": null,
  "uncorrected_energy_per_atom": null,
  "energy_per_atom": -9.068482004,
  "formation_energy_per_atom": -1.240729299,
  "energy_above_hull": 0.0,
  "is_stable": true,
  "equilibrium_reaction_energy_per_atom": null,
  "decomposes_to": null,
  "xas": null,
  "grain_boundaries": null,
  "band_gap": 0.0,
  "cbm": null,
  "vbm": null,
  "efermi": 4.8170198,
  "is_gap_direct": null,
  "is_metal": null,
  "es_source_calc_id": null,
  "bandstructure": null,
  "dos": null,
  "dos_energy_up": null,
  "dos_energy_down": null,
  "is_magnetic": null,
  "ordering": null,
  "total_magnetization": 0.0,
  "total_magnetization_normalized_vol": null,
  "total_magnetization_normalized_formula_units": null,
  "num_magnetic_sites": null,
  "num_unique_magnetic_sites": null,
  "types_of_magnetic_species": null,
  "bulk_modulus": null,
  "shear_modulus": null,
  "universal_anisotropy": null,
  "homogeneous_poisson": null,
  "e_total": null,
  "e_ionic": null,
  "e_electronic": null,
  "n": null,
  "e_ij_max": null,
  "weighted_surface_energy_EV_PER_ANG2": null,
  "weighted_surface_energy": null,
  "weighted_work_function": null,
  "surface_anisotropy": null,
  "shape_factor": null,
  "has_reconstructed": null,
  "possible_species": null,
  "has_props": null,
  "theoretical": null,
  "database_IDs": null,
  "fields_not_requested": [
    "builder_meta",
    "nsites",
    "elements",
    "nelements",
    "composition",
    "composition_reduced",
    "chemsys",
    "symmetry",
    "property_name",
    "deprecated",
    "deprecation_reasons",
    "last_updated",
    "origins",
    "warnings",
    "task_ids",
    "uncorrected_energy_per_atom",
    "equilibrium_reaction_energy_per_atom",
    "decomposes_to",
    "xas",
    "grain_boundaries",
    "cbm",
    "vbm",
    "is_gap_direct",
    "is_metal",
    "es_source_calc_id",
    "bandstructure",
    "dos",
    "dos_energy_up",
    "dos_energy_down",
    "is_magnetic",
    "ordering",
    "total_magnetization_normalized_vol",
    "total_magnetization_normalized_formula_units",
    "num_magnetic_sites",
    "num_unique_magnetic_sites",
    "types_of_magnetic_species",
    "bulk_modulus",
    "shear_modulus",
    "universal_anisotropy",
    "homogeneous_poisson",
    "e_total",
    "e_ionic",
    "e_electronic",
    "n",
    "e_ij_max",
    "weighted_surface_energy_EV_PER_ANG2",
    "weighted_surface_energy",
    "weighted_work_function",
    "surface_anisotropy",
    "shape_factor",
    "has_reconstructed",
    "possible_species",
    "has_props",
    "theoretical",
    "database_IDs"
  ]
}
