{"builder_meta": null, "nsites": null, "elements": null, "nelements": null, "composition": null, "composition_reduced": null, "formula_pretty": "Zr4Pd", "formula_anonymous": "AB4", "chemsys": null, "volume": 107.31547122267122, "density": 7.292877921485632, "density_atomic": 21.463094244534243, "symmetry": null, "property_name": null, "material_id": "mp-1215363", "deprecated": null, "deprecation_reasons": null, "last_updated": null, "origins": null, "warnings": null, "structure": {"@module": "pymatgen.core.structure", "@class": "Structure", "charge": 0, "lattice": {"matrix": [[-1.64777, 1.64777, 9.881188], [1.64777, -1.64777, 9.881188], [1.64777, 1.64777, -9.881188]], "pbc": [true, true, true], "a": 10.152249417599235, "b": 10.152249417599235, "c": 10.152249417599235, "alpha": 161.31847111221782, "beta": 161.31847111221782, "gamma": 26.539418103994514, "volume": 107.31547122267122}, "properties": {}, "sites": [{"species": [{"element": "Zr", "occu": 1}], "abc": [0.412209, 0.412209, 0.0], "properties": {"magmom": 0.0}, "label": "Zr", "xyz": [0.0, 0.0, 8.146229248584]}, {"species": [{"element": "Zr", "occu": 1}], "abc": [0.804793, 0.804793, 0.0], "properties": {"magmom": 0.0}, "label": "Zr", "xyz": [0.0, 0.0, 15.904621868168]}, {"species": [{"element": "Zr", "occu": 1}], "abc": [0.195207, 0.195207, 0.0], "properties": {"magmom": 0.0}, "label": "Zr", "xyz": [0.0, 0.0, 3.857754131832]}, {"species": [{"element": "Zr", "occu": 1}], "abc": [0.587791, 0.587791, 0.0], "properties": {"magmom": 0.0}, "label": "Zr", "xyz": [0.0, 0.0, 11.616146751415998]}, {"species": [{"element": "Pd", "occu": 1}], "abc": [0.0, 0.0, 0.0], "properties": {"magmom": -0.0}, "label": "Pd", "xyz": [0.0, 0.0, 0.0]}]}, "task_ids": null, "uncorrected_energy_per_atom": null, "energy_per_atom": -23.076971866, "formation_energy_per_atom": -0.285047620000003, "energy_above_hull": 0.016882567999999, "is_stable": false, "equilibrium_reaction_energy_per_atom": null, "decomposes_to": null, "xas": null, "grain_boundaries": null, "band_gap": 0.0, "cbm": null, "vbm": null, "efermi": 4.61942602, "is_gap_direct": null, "is_metal": null, "es_source_calc_id": null, "bandstructure": null, "dos": null, "dos_energy_up": null, "dos_energy_down": null, "is_magnetic": null, "ordering": null, "total_magnetization": 0.0043508, "total_magnetization_normalized_vol": null, "total_magnetization_normalized_formula_units": null, "num_magnetic_sites": null, "num_unique_magnetic_sites": null, "types_of_magnetic_species": null, "bulk_modulus": null, "shear_modulus": null, "universal_anisotropy": null, "homogeneous_poisson": null, "e_total": null, "e_ionic": null, "e_electronic": null, "n": null, "e_ij_max": null, "weighted_surface_energy_EV_PER_ANG2": null, "weighted_surface_energy": null, "weighted_work_function": null, "surface_anisotropy": null, "shape_factor": null, "has_reconstructed": null, "possible_species": null, "has_props": null, "theoretical": null, "database_IDs": null, "fields_not_requested": ["builder_meta", "nsites", "elements", "nelements", "composition", "composition_reduced", "chemsys", "symmetry", "property_name", "deprecated", "deprecation_reasons", "last_updated", "origins", "warnings", "task_ids", "uncorrected_energy_per_atom", "equilibrium_reaction_energy_per_atom", "decomposes_to", "xas", "grain_boundaries", "cbm", "vbm", "is_gap_direct", "is_metal", "es_source_calc_id", "bandstructure", "dos", "dos_energy_up", "dos_energy_down", "is_magnetic", "ordering", "total_magnetization_normalized_vol", "total_magnetization_normalized_formula_units", "num_magnetic_sites", "num_unique_magnetic_sites", "types_of_magnetic_species", "bulk_modulus", "shear_modulus", "universal_anisotropy", "homogeneous_poisson", "e_total", "e_ionic", "e_electronic", "n", "e_ij_max", "weighted_surface_energy_EV_PER_ANG2", "weighted_surface_energy", "weighted_work_function", "surface_anisotropy", "shape_factor", "has_reconstructed", "possible_species", "has_props", "theoretical", "database_IDs"]}