{
  "builder_meta": null,
  "nsites": null,
  "elements": null,
  "nelements": null,
  "composition": null,
  "composition_reduced": null,
  "formula_pretty": "Zr4Sn3",
  "formula_anonymous": "A3B4",
  "chemsys": null,
  "volume": 322.1339477882933,
  "density": 7.433503045889425,
  "density_atomic": 23.009567699163807,
  "symmetry": null,
  "property_name": null,
  "material_id": "mp-1094315",
  "deprecated": null,
  "deprecation_reasons": null,
  "last_updated": null,
  "origins": null,
  "warnings": null,
  "structure": {
    "@module": "pymatgen.core.structure",
    "@class": "Structure",
    "charge": 0,
    "lattice": {
      "matrix": [
        [4.187319, -7.252649, 0.0],
        [4.187319, 7.252649, 0.0],
        [0.0, 0.0, 5.303637]
      ],
      "pbc": [true, true, true],
      "a": 8.374637778731806,
      "b": 8.374637778731806,
      "c": 5.303637,
      "alpha": 90.0,
      "beta": 90.0,
      "gamma": 119.99999825198579,
      "volume": 322.1339477882933
    },
    "properties": {},
    "sites": [
      {
        "species": [{ "element": "Zr", "occu": 1 }],
        "abc": [0.023482, 0.787342, 0.75],
        "properties": { "magmom": -0.009000000000000001 },
        "label": "Zr",
        "xyz": [3.3951787408559997, 5.54000846514, 3.97772775]
      },
      {
        "species": [{ "element": "Zr", "occu": 1 }],
        "abc": [0.666667, 0.333333, 0.25],
        "properties": { "magmom": -0.002 },
        "label": "Zr",
        "xyz": [4.187319, -2.4175545017660003, 1.32590925]
      },
      {
        "species": [{ "element": "Zr", "occu": 1 }],
        "abc": [0.333333, 0.666667, 0.75],
        "properties": { "magmom": -0.002 },
        "label": "Zr",
        "xyz": [4.187319, 2.4175545017660003, 3.97772775]
      },
      {
        "species": [{ "element": "Zr", "occu": 1 }],
        "abc": [0.976518, 0.21265799999999901, 0.25],
        "properties": { "magmom": -0.009000000000000001 },
        "label": "Zr",
        "xyz": [4.9794592591439955, -5.540008465140007, 1.32590925]
      },
      {
        "species": [{ "element": "Zr", "occu": 1 }],
        "abc": [0.7638600000000001, 0.976518, 0.75],
        "properties": { "magmom": -0.005 },
        "label": "Zr",
        "xyz": [7.287517866581999, 1.542333831041999, 3.97772775]
      },
      {
        "species": [{ "element": "Zr", "occu": 1 }],
        "abc": [0.21265799999999901, 0.23614000000000002, 0.75],
        "properties": { "magmom": -0.007 },
        "label": "Zr",
        "xyz": [1.8792603925619957, 0.17030670381800728, 3.97772775]
      },
      {
        "species": [{ "element": "Zr", "occu": 1 }],
        "abc": [0.787342, 0.7638600000000001, 0.25],
        "properties": { "magmom": -0.007 },
        "label": "Zr",
        "xyz": [6.495377607438, -0.1703067038179995, 1.32590925]
      },
      {
        "species": [{ "element": "Zr", "occu": 1 }],
        "abc": [0.23614000000000002, 0.023482, 0.25],
        "properties": { "magmom": -0.005 },
        "label": "Zr",
        "xyz": [1.0871201334179998, -1.542333831042, 1.32590925]
      },
      {
        "species": [{ "element": "Sn", "occu": 1 }],
        "abc": [0.451812999999999, 0.074849, 0.75],
        "properties": { "magmom": -0.0 },
        "label": "Sn",
        "xyz": [2.2053017991779957, -2.7339875776359928, 3.97772775]
      },
      {
        "species": [{ "element": "Sn", "occu": 1 }],
        "abc": [0.074849, 0.623035999999999, 0.25],
        "properties": { "magmom": -0.002 },
        "label": "Sn",
        "xyz": [2.9222671203149955, 3.9758078973629933, 1.32590925]
      },
      {
        "species": [{ "element": "Sn", "occu": 1 }],
        "abc": [0.925151, 0.376963999999999, 0.75],
        "properties": { "magmom": -0.002 },
        "label": "Sn",
        "xyz": [5.452370879684995, -3.975807897363007, 3.97772775]
      },
      {
        "species": [{ "element": "Sn", "occu": 1 }],
        "abc": [0.548187, 0.925151, 0.25],
        "properties": { "magmom": -0.0 },
        "label": "Sn",
        "xyz": [6.1693362008219985, 2.733987577636, 1.32590925]
      },
      {
        "species": [{ "element": "Sn", "occu": 1 }],
        "abc": [0.376963999999999, 0.451812999999999, 0.25],
        "properties": { "magmom": -0.0 },
        "label": "Sn",
        "xyz": [3.4703536788629914, 0.542853525001, 1.32590925]
      },
      {
        "species": [{ "element": "Sn", "occu": 1 }],
        "abc": [0.623035999999999, 0.548187, 0.75],
        "properties": { "magmom": -0.0 },
        "label": "Sn",
        "xyz": [4.904284321136995, -0.5428535250009934, 3.97772775]
      }
    ]
  },
  "task_ids": null,
  "uncorrected_energy_per_atom": null,
  "energy_per_atom": -24.004733582285716,
  "formation_energy_per_atom": -0.399345159428573,
  "energy_above_hull": 0.25386437699999903,
  "is_stable": false,
  "equilibrium_reaction_energy_per_atom": null,
  "decomposes_to": null,
  "xas": null,
  "grain_boundaries": null,
  "band_gap": 0.0,
  "cbm": null,
  "vbm": null,
  "efermi": 6.86460039,
  "is_gap_direct": null,
  "is_metal": null,
  "es_source_calc_id": null,
  "bandstructure": null,
  "dos": null,
  "dos_energy_up": null,
  "dos_energy_down": null,
  "is_magnetic": null,
  "ordering": null,
  "total_magnetization": 0.08603569999999901,
  "total_magnetization_normalized_vol": null,
  "total_magnetization_normalized_formula_units": null,
  "num_magnetic_sites": null,
  "num_unique_magnetic_sites": null,
  "types_of_magnetic_species": null,
  "bulk_modulus": null,
  "shear_modulus": null,
  "universal_anisotropy": null,
  "homogeneous_poisson": null,
  "e_total": null,
  "e_ionic": null,
  "e_electronic": null,
  "n": null,
  "e_ij_max": null,
  "weighted_surface_energy_EV_PER_ANG2": null,
  "weighted_surface_energy": null,
  "weighted_work_function": null,
  "surface_anisotropy": null,
  "shape_factor": null,
  "has_reconstructed": null,
  "possible_species": null,
  "has_props": null,
  "theoretical": null,
  "database_IDs": null,
  "fields_not_requested": [
    "builder_meta",
    "nsites",
    "elements",
    "nelements",
    "composition",
    "composition_reduced",
    "chemsys",
    "symmetry",
    "property_name",
    "deprecated",
    "deprecation_reasons",
    "last_updated",
    "origins",
    "warnings",
    "task_ids",
    "uncorrected_energy_per_atom",
    "equilibrium_reaction_energy_per_atom",
    "decomposes_to",
    "xas",
    "grain_boundaries",
    "cbm",
    "vbm",
    "is_gap_direct",
    "is_metal",
    "es_source_calc_id",
    "bandstructure",
    "dos",
    "dos_energy_up",
    "dos_energy_down",
    "is_magnetic",
    "ordering",
    "total_magnetization_normalized_vol",
    "total_magnetization_normalized_formula_units",
    "num_magnetic_sites",
    "num_unique_magnetic_sites",
    "types_of_magnetic_species",
    "bulk_modulus",
    "shear_modulus",
    "universal_anisotropy",
    "homogeneous_poisson",
    "e_total",
    "e_ionic",
    "e_electronic",
    "n",
    "e_ij_max",
    "weighted_surface_energy_EV_PER_ANG2",
    "weighted_surface_energy",
    "weighted_work_function",
    "surface_anisotropy",
    "shape_factor",
    "has_reconstructed",
    "possible_species",
    "has_props",
    "theoretical",
    "database_IDs"
  ]
}
