{"builder_meta": null, "nsites": null, "elements": null, "nelements": null, "composition": null, "composition_reduced": null, "formula_pretty": "Zr4V", "formula_anonymous": "AB4", "chemsys": null, "volume": 238.32055214222078, "density": 5.7948373138646, "density_atomic": 23.832055214222077, "symmetry": null, "property_name": null, "material_id": "mp-1207438", "deprecated": null, "deprecation_reasons": null, "last_updated": null, "origins": null, "warnings": null, "structure": {"@module": "pymatgen.core.structure", "@class": "Structure", "charge": 0, "lattice": {"matrix": [[-4.920892, -4.920892, 0.0], [-4.920892, 0.0, -4.920892], [0.0, -4.920892, -4.920892]], "pbc": [true, true, true], "a": 6.959192205373265, "b": 6.959192205373265, "c": 6.959192205373265, "alpha": 59.99999999999999, "beta": 59.99999999999999, "gamma": 59.99999999999999, "volume": 238.32055214222078}, "properties": {}, "sites": [{"species": [{"element": "Zr", "occu": 1}], "abc": [0.606903, 0.606903, 0.606903], "properties": {"magmom": 0.109}, "label": "Zr", "xyz": [-5.973008234952, -5.973008234952, -5.973008234952]}, {"species": [{"element": "Zr", "occu": 1}], "abc": [0.179291999999999, 0.606903, 0.606903], "properties": {"magmom": 0.107}, "label": "Zr", "xyz": [-3.868780685939995, -3.868780685939995, -5.973008234952]}, {"species": [{"element": "Zr", "occu": 1}], "abc": [0.606903, 0.179291999999999, 0.606903], "properties": {"magmom": 0.109}, "label": "Zr", "xyz": [-3.868780685939995, -5.973008234952, -3.868780685939995]}, {"species": [{"element": "Zr", "occu": 1}], "abc": [0.570708, 0.143097, 0.143097], "properties": {"magmom": 0.107}, "label": "Zr", "xyz": [-3.5125573140600004, -3.5125573140600004, -1.408329765048]}, {"species": [{"element": "Zr", "occu": 1}], "abc": [0.143097, 0.143097, 0.143097], "properties": {"magmom": 0.109}, "label": "Zr", "xyz": [-1.408329765048, -1.408329765048, -1.408329765048]}, {"species": [{"element": "Zr", "occu": 1}], "abc": [0.606903, 0.606903, 0.179291999999999], "properties": {"magmom": 0.109}, "label": "Zr", "xyz": [-5.973008234952, -3.868780685939995, -3.868780685939995]}, {"species": [{"element": "Zr", "occu": 1}], "abc": [0.143097, 0.570708, 0.143097], "properties": {"magmom": 0.109}, "label": "Zr", "xyz": [-3.5125573140600004, -1.408329765048, -3.5125573140600004]}, {"species": [{"element": "Zr", "occu": 1}], "abc": [0.143097, 0.143097, 0.570708], "properties": {"magmom": 0.109}, "label": "Zr", "xyz": [-1.408329765048, -3.5125573140600004, -3.5125573140600004]}, {"species": [{"element": "V", "occu": 1}], "abc": [0.0, 0.0, 0.0], "properties": {"magmom": 1.62}, "label": "V", "xyz": [0.0, 0.0, 0.0]}, {"species": [{"element": "V", "occu": 1}], "abc": [0.75, 0.75, 0.75], "properties": {"magmom": 1.62}, "label": "V", "xyz": [-7.381338, -7.381338, -7.381338]}]}, "task_ids": null, "uncorrected_energy_per_atom": null, "energy_per_atom": -20.178312412, "formation_energy_per_atom": 0.8394362579999971, "energy_above_hull": 0.8394362579999991, "is_stable": false, "equilibrium_reaction_energy_per_atom": null, "decomposes_to": null, "xas": null, "grain_boundaries": null, "band_gap": 0.0, "cbm": null, "vbm": null, "efermi": 3.79186026, "is_gap_direct": null, "is_metal": null, "es_source_calc_id": null, "bandstructure": null, "dos": null, "dos_energy_up": null, "dos_energy_down": null, "is_magnetic": null, "ordering": null, "total_magnetization": 4.3742016, "total_magnetization_normalized_vol": null, "total_magnetization_normalized_formula_units": null, "num_magnetic_sites": null, "num_unique_magnetic_sites": null, "types_of_magnetic_species": null, "bulk_modulus": null, "shear_modulus": null, "universal_anisotropy": null, "homogeneous_poisson": null, "e_total": null, "e_ionic": null, "e_electronic": null, "n": null, "e_ij_max": null, "weighted_surface_energy_EV_PER_ANG2": null, "weighted_surface_energy": null, "weighted_work_function": null, "surface_anisotropy": null, "shape_factor": null, "has_reconstructed": null, "possible_species": null, "has_props": null, "theoretical": null, "database_IDs": null, "fields_not_requested": ["builder_meta", "nsites", "elements", "nelements", "composition", "composition_reduced", "chemsys", "symmetry", "property_name", "deprecated", "deprecation_reasons", "last_updated", "origins", "warnings", "task_ids", "uncorrected_energy_per_atom", "equilibrium_reaction_energy_per_atom", "decomposes_to", "xas", "grain_boundaries", "cbm", "vbm", "is_gap_direct", "is_metal", "es_source_calc_id", "bandstructure", "dos", "dos_energy_up", "dos_energy_down", "is_magnetic", "ordering", "total_magnetization_normalized_vol", "total_magnetization_normalized_formula_units", "num_magnetic_sites", "num_unique_magnetic_sites", "types_of_magnetic_species", "bulk_modulus", "shear_modulus", "universal_anisotropy", "homogeneous_poisson", "e_total", "e_ionic", "e_electronic", "n", "e_ij_max", "weighted_surface_energy_EV_PER_ANG2", "weighted_surface_energy", "weighted_work_function", "surface_anisotropy", "shape_factor", "has_reconstructed", "possible_species", "has_props", "theoretical", "database_IDs"]}