{"builder_meta": null, "nsites": null, "elements": null, "nelements": null, "composition": null, "composition_reduced": null, "formula_pretty": "Zr4Zn", "formula_anonymous": "AB4", "chemsys": null, "volume": 254.23372691459278, "density": 5.6211130735880275, "density_atomic": 25.423372691459278, "symmetry": null, "property_name": null, "material_id": "mp-1207459", "deprecated": null, "deprecation_reasons": null, "last_updated": null, "origins": null, "warnings": null, "structure": {"@module": "pymatgen.core.structure", "@class": "Structure", "charge": 0, "lattice": {"matrix": [[0.0, 5.028067, 5.028067], [5.028067, 0.0, 5.028067], [5.028067, 5.028067, 0.0]], "pbc": [true, true, true], "a": 7.110760543920601, "b": 7.110760543920601, "c": 7.110760543920601, "alpha": 59.99999999999999, "beta": 59.99999999999999, "gamma": 59.99999999999999, "volume": 254.23372691459278}, "properties": {}, "sites": [{"species": [{"element": "Zr", "occu": 1}], "abc": [0.394889, 0.394889, 0.394889], "properties": {"magmom": -0.0}, "label": "Zr", "xyz": [3.971056699126, 3.971056699126, 3.971056699126]}, {"species": [{"element": "Zr", "occu": 1}], "abc": [0.394889, 0.394889, 0.815332], "properties": {"magmom": -0.0}, "label": "Zr", "xyz": [6.085072272807, 6.085072272807, 3.971056699126]}, {"species": [{"element": "Zr", "occu": 1}], "abc": [0.394889, 0.815332, 0.394889], "properties": {"magmom": -0.0}, "label": "Zr", "xyz": [6.085072272807, 3.971056699126, 6.085072272807]}, {"species": [{"element": "Zr", "occu": 1}], "abc": [0.855111, 0.855111, 0.434668], "properties": {"magmom": -0.0}, "label": "Zr", "xyz": [6.485095227193, 6.485095227193, 8.599110800874]}, {"species": [{"element": "Zr", "occu": 1}], "abc": [0.855111, 0.855111, 0.855111], "properties": {"magmom": -0.0}, "label": "Zr", "xyz": [8.599110800874, 8.599110800874, 8.599110800874]}, {"species": [{"element": "Zr", "occu": 1}], "abc": [0.815332, 0.394889, 0.394889], "properties": {"magmom": -0.0}, "label": "Zr", "xyz": [3.971056699126, 6.085072272807, 6.085072272807]}, {"species": [{"element": "Zr", "occu": 1}], "abc": [0.855111, 0.434668, 0.855111], "properties": {"magmom": -0.0}, "label": "Zr", "xyz": [6.485095227193, 8.599110800874, 6.485095227193]}, {"species": [{"element": "Zr", "occu": 1}], "abc": [0.434668, 0.855111, 0.855111], "properties": {"magmom": -0.0}, "label": "Zr", "xyz": [8.599110800874, 6.485095227193, 6.485095227193]}, {"species": [{"element": "Zn", "occu": 1}], "abc": [0.0, 0.0, 0.0], "properties": {"magmom": -0.0}, "label": "Zn", "xyz": [0.0, 0.0, 0.0]}, {"species": [{"element": "Zn", "occu": 1}], "abc": [0.25, 0.25, 0.25], "properties": {"magmom": 0.0}, "label": "Zn", "xyz": [2.5140335, 2.5140335, 2.5140335]}]}, "task_ids": null, "uncorrected_energy_per_atom": null, "energy_per_atom": -19.383730384, "formation_energy_per_atom": 0.598223660999997, "energy_above_hull": 0.728645198999998, "is_stable": false, "equilibrium_reaction_energy_per_atom": null, "decomposes_to": null, "xas": null, "grain_boundaries": null, "band_gap": 0.0, "cbm": null, "vbm": null, "efermi": 2.88157078, "is_gap_direct": null, "is_metal": null, "es_source_calc_id": null, "bandstructure": null, "dos": null, "dos_energy_up": null, "dos_energy_down": null, "is_magnetic": null, "ordering": null, "total_magnetization": 0.0018958, "total_magnetization_normalized_vol": null, "total_magnetization_normalized_formula_units": null, "num_magnetic_sites": null, "num_unique_magnetic_sites": null, "types_of_magnetic_species": null, "bulk_modulus": null, "shear_modulus": null, "universal_anisotropy": null, "homogeneous_poisson": null, "e_total": null, "e_ionic": null, "e_electronic": null, "n": null, "e_ij_max": null, "weighted_surface_energy_EV_PER_ANG2": null, "weighted_surface_energy": null, "weighted_work_function": null, "surface_anisotropy": null, "shape_factor": null, "has_reconstructed": null, "possible_species": null, "has_props": null, "theoretical": null, "database_IDs": null, "fields_not_requested": ["builder_meta", "nsites", "elements", "nelements", "composition", "composition_reduced", "chemsys", "symmetry", "property_name", "deprecated", "deprecation_reasons", "last_updated", "origins", "warnings", "task_ids", "uncorrected_energy_per_atom", "equilibrium_reaction_energy_per_atom", "decomposes_to", "xas", "grain_boundaries", "cbm", "vbm", "is_gap_direct", "is_metal", "es_source_calc_id", "bandstructure", "dos", "dos_energy_up", "dos_energy_down", "is_magnetic", "ordering", "total_magnetization_normalized_vol", "total_magnetization_normalized_formula_units", "num_magnetic_sites", "num_unique_magnetic_sites", "types_of_magnetic_species", "bulk_modulus", "shear_modulus", "universal_anisotropy", "homogeneous_poisson", "e_total", "e_ionic", "e_electronic", "n", "e_ij_max", "weighted_surface_energy_EV_PER_ANG2", "weighted_surface_energy", "weighted_work_function", "surface_anisotropy", "shape_factor", "has_reconstructed", "possible_species", "has_props", "theoretical", "database_IDs"]}