{
  "builder_meta": null,
  "nsites": null,
  "elements": null,
  "nelements": null,
  "composition": null,
  "composition_reduced": null,
  "formula_pretty": "Zr5Al4",
  "formula_anonymous": "A4B5",
  "chemsys": null,
  "volume": 357.2123758056361,
  "density": 5.244055011444076,
  "density_atomic": 19.845131989202006,
  "symmetry": null,
  "property_name": null,
  "material_id": "mp-570774",
  "deprecated": null,
  "deprecation_reasons": null,
  "last_updated": null,
  "origins": null,
  "warnings": null,
  "structure": {
    "@module": "pymatgen.core.structure",
    "@class": "Structure",
    "charge": 0,
    "lattice": {
      "matrix": [
        [8.4393958, 1.02e-6, -0.0],
        [-4.21969739, 7.30873102, -0.0],
        [-0.0, 0.0, 5.79126092]
      ],
      "pbc": [true, true, true],
      "a": 8.439395800000062,
      "b": 8.43939542774736,
      "c": 5.79126092,
      "alpha": 90.0,
      "beta": 90.0,
      "gamma": 119.99999053617015,
      "volume": 357.2123758056361
    },
    "properties": {},
    "sites": [
      {
        "species": [{ "element": "Zr", "occu": 1 }],
        "abc": [0.2911217, 0.2911217, 0.75],
        "properties": { "magmom": -0.006 },
        "label": "Zr",
        "xyz": [1.2284457746064967, 2.127730496329268, 4.34344569]
      },
      {
        "species": [{ "element": "Zr", "occu": 1 }],
        "abc": [0.999999, 0.7088783, 0.75],
        "properties": { "magmom": -0.006 },
        "label": "Zr",
        "xyz": [5.448135448266562, 5.181001840613846, 4.34344569]
      },
      {
        "species": [{ "element": "Zr", "occu": 1 }],
        "abc": [1e-6, 0.2911217, 0.25],
        "properties": { "magmom": -0.006 },
        "label": "Zr",
        "xyz": [-1.228437038266563, 2.127730199386154, 1.44781523]
      },
      {
        "species": [{ "element": "Zr", "occu": 1 }],
        "abc": [0.7088793, 0.999999, 0.75],
        "properties": { "magmom": -0.006 },
        "label": "Zr",
        "xyz": [1.7628198168243294, 7.308724434325866, 4.34344569]
      },
      {
        "species": [{ "element": "Zr", "occu": 1 }],
        "abc": [0.333333, 0.666666, 0.5],
        "properties": { "magmom": -0.126 },
        "label": "Zr",
        "xyz": [3.399996599817712e-7, 4.87248281417898, 2.89563046]
      },
      {
        "species": [{ "element": "Zr", "occu": 1 }],
        "abc": [0.7088783, 0.7088783, 0.25],
        "properties": { "magmom": -0.006 },
        "label": "Zr",
        "xyz": [2.991252635393502, 5.181001543670732, 1.44781523]
      },
      {
        "species": [{ "element": "Zr", "occu": 1 }],
        "abc": [0.2911207, 1e-6, 0.25],
        "properties": { "magmom": -0.006 },
        "label": "Zr",
        "xyz": [2.45687859317567, 7.6056741339999994e-6, 1.44781523]
      },
      {
        "species": [{ "element": "Zr", "occu": 1 }],
        "abc": [0.666667, 0.333333999999999, 0.5],
        "properties": { "magmom": -0.126 },
        "label": "Zr",
        "xyz": [4.219698070000344, 2.4362492258210127, 2.89563046]
      },
      {
        "species": [{ "element": "Zr", "occu": 1 }],
        "abc": [0.666667, 0.333333999999999, -0.0],
        "properties": { "magmom": -0.126 },
        "label": "Zr",
        "xyz": [4.219698070000344, 2.4362492258210127, 0.0]
      },
      {
        "species": [{ "element": "Zr", "occu": 1 }],
        "abc": [0.333333, 0.666666, -0.0],
        "properties": { "magmom": -0.126 },
        "label": "Zr",
        "xyz": [3.399996599817712e-7, 4.87248281417898, 0.0]
      },
      {
        "species": [{ "element": "Al", "occu": 1 }],
        "abc": [0.0, 0.63061804, 0.25],
        "properties": { "magmom": 0.001 },
        "label": "Al",
        "xyz": [-2.6610172974749156, 4.609017630719601, 1.44781523]
      },
      {
        "species": [{ "element": "Al", "occu": 1 }],
        "abc": [0.36938196, 0.36938196, 0.25],
        "properties": { "magmom": 0.001 },
        "label": "Al",
        "xyz": [1.5586804692946836, 2.699713766049998, 1.44781523]
      },
      {
        "species": [{ "element": "Al", "occu": 1 }],
        "abc": [0.63061804, 0.0, 0.25],
        "properties": { "magmom": 0.001 },
        "label": "Al",
        "xyz": [5.322035238180232, 6.432304008e-7, 1.44781523]
      },
      {
        "species": [{ "element": "Al", "occu": 1 }],
        "abc": [-0.0, -0.0, -0.0],
        "properties": { "magmom": -0.002 },
        "label": "Al",
        "xyz": [0.0, 0.0, 0.0]
      },
      {
        "species": [{ "element": "Al", "occu": 1 }],
        "abc": [0.36938196, -0.0, 0.75],
        "properties": { "magmom": 0.001 },
        "label": "Al",
        "xyz": [3.117360561819768, 3.767695992e-7, 4.34344569]
      },
      {
        "species": [{ "element": "Al", "occu": 1 }],
        "abc": [0.63061804, 0.63061804, 0.75],
        "properties": { "magmom": 0.001 },
        "label": "Al",
        "xyz": [2.661017940705316, 4.609018273950001, 4.34344569]
      },
      {
        "species": [{ "element": "Al", "occu": 1 }],
        "abc": [-0.0, -0.0, 0.5],
        "properties": { "magmom": -0.002 },
        "label": "Al",
        "xyz": [0.0, 0.0, 2.89563046]
      },
      {
        "species": [{ "element": "Al", "occu": 1 }],
        "abc": [-0.0, 0.36938196, 0.75],
        "properties": { "magmom": 0.001 },
        "label": "Al",
        "xyz": [-1.5586800925250845, 2.699713389280399, 4.34344569]
      }
    ]
  },
  "task_ids": null,
  "uncorrected_energy_per_atom": null,
  "energy_per_atom": -16.093138106666668,
  "formation_energy_per_atom": -0.462321123888888,
  "energy_above_hull": 0.062640739666662,
  "is_stable": false,
  "equilibrium_reaction_energy_per_atom": null,
  "decomposes_to": null,
  "xas": null,
  "grain_boundaries": null,
  "band_gap": 0.0,
  "cbm": null,
  "vbm": null,
  "efermi": 5.30646894,
  "is_gap_direct": null,
  "is_metal": null,
  "es_source_calc_id": null,
  "bandstructure": null,
  "dos": null,
  "dos_energy_up": null,
  "dos_energy_down": null,
  "is_magnetic": null,
  "ordering": null,
  "total_magnetization": 0.8305977,
  "total_magnetization_normalized_vol": null,
  "total_magnetization_normalized_formula_units": null,
  "num_magnetic_sites": null,
  "num_unique_magnetic_sites": null,
  "types_of_magnetic_species": null,
  "bulk_modulus": null,
  "shear_modulus": null,
  "universal_anisotropy": null,
  "homogeneous_poisson": null,
  "e_total": null,
  "e_ionic": null,
  "e_electronic": null,
  "n": null,
  "e_ij_max": null,
  "weighted_surface_energy_EV_PER_ANG2": null,
  "weighted_surface_energy": null,
  "weighted_work_function": null,
  "surface_anisotropy": null,
  "shape_factor": null,
  "has_reconstructed": null,
  "possible_species": null,
  "has_props": null,
  "theoretical": null,
  "database_IDs": null,
  "fields_not_requested": [
    "builder_meta",
    "nsites",
    "elements",
    "nelements",
    "composition",
    "composition_reduced",
    "chemsys",
    "symmetry",
    "property_name",
    "deprecated",
    "deprecation_reasons",
    "last_updated",
    "origins",
    "warnings",
    "task_ids",
    "uncorrected_energy_per_atom",
    "equilibrium_reaction_energy_per_atom",
    "decomposes_to",
    "xas",
    "grain_boundaries",
    "cbm",
    "vbm",
    "is_gap_direct",
    "is_metal",
    "es_source_calc_id",
    "bandstructure",
    "dos",
    "dos_energy_up",
    "dos_energy_down",
    "is_magnetic",
    "ordering",
    "total_magnetization_normalized_vol",
    "total_magnetization_normalized_formula_units",
    "num_magnetic_sites",
    "num_unique_magnetic_sites",
    "types_of_magnetic_species",
    "bulk_modulus",
    "shear_modulus",
    "universal_anisotropy",
    "homogeneous_poisson",
    "e_total",
    "e_ionic",
    "e_electronic",
    "n",
    "e_ij_max",
    "weighted_surface_energy_EV_PER_ANG2",
    "weighted_surface_energy",
    "weighted_work_function",
    "surface_anisotropy",
    "shape_factor",
    "has_reconstructed",
    "possible_species",
    "has_props",
    "theoretical",
    "database_IDs"
  ]
}
