{"builder_meta": null, "nsites": null, "elements": null, "nelements": null, "composition": null, "composition_reduced": null, "formula_pretty": "Zr5Al3", "formula_anonymous": "A3B5", "chemsys": null, "volume": 331.4121203461802, "density": 5.381920099318409, "density_atomic": 20.713257521636258, "symmetry": null, "property_name": null, "material_id": "mp-16724", "deprecated": null, "deprecation_reasons": null, "last_updated": null, "origins": null, "warnings": null, "structure": {"@module": "pymatgen.core.structure", "@class": "Structure", "charge": 0, "lattice": {"matrix": [[5.07208147, -0.00040871, 1.75116089], [2.53563875, 7.85859414, 0.87491988], [-0.02977546, -0.00069668, 8.30402613]], "pbc": [true, true, true], "a": 5.365871324214439, "b": 8.303761227550027, "c": 8.304079541472614, "alpha": 84.01953942896483, "beta": 71.15795867752267, "gamma": 71.15827251190939, "volume": 331.41212034618025}, "properties": {}, "sites": [{"species": [{"element": "Zr", "occu": 1}], "abc": [0.25004091, 0.50000807, 0.49993486000000004], "properties": {"magmom": -0.053}, "label": "Zr", "xyz": [2.5211819135311146, 3.9289100000161192, 5.026801003833334]}, {"species": [{"element": "Zr", "occu": 1}], "abc": [0.75002924, 0.49992564, 0.50000526], "properties": {"magmom": -0.053}, "label": "Zr", "xyz": [5.056952348445813, 3.928057816824533, 5.902873496579591]}, {"species": [{"element": "Zr", "occu": 1}], "abc": [0.0784653, 0.14114926, 0.7021413], "properties": {"magmom": 0.372}, "label": "Zr", "xyz": [0.734979347165318, 1.1087135101476895, 6.0914993603555745]}, {"species": [{"element": "Zr", "occu": 1}], "abc": [0.78042392, 0.2979098, 0.14107773], "properties": {"magmom": 0.371}, "label": "Zr", "xyz": [4.7095646819550065, 2.340734955435292, 2.798808209072398]}, {"species": [{"element": "Zr", "occu": 1}], "abc": [0.21956534, 0.7020677200000001, 0.85896041], "properties": {"magmom": 0.372}, "label": "Zr", "xyz": [2.868267467094861, 5.516577111186611, 8.13157693081734]}, {"species": [{"element": "Zr", "occu": 1}], "abc": [0.92151415, 0.85890168, 0.29784357], "properties": {"magmom": 0.372}, "label": "Zr", "xyz": [6.842990797501107, 6.749175575577561, 4.838490481791476]}, {"species": [{"element": "Zr", "occu": 1}], "abc": [0.28043741, 0.14106102, 0.29789748], "properties": {"magmom": 0.371}, "label": "Zr", "xyz": [1.771211144682477, 1.1082191483642154, 3.088256573157125]}, {"species": [{"element": "Zr", "occu": 1}], "abc": [0.71955186, 0.85897975, 0.7020831], "properties": {"magmom": 0.372}, "label": "Zr", "xyz": [5.80678314811462, 6.749590014433857, 7.841705943182588]}, {"species": [{"element": "Zr", "occu": 1}], "abc": [0.42151033, 0.29787153, 0.85888587], "properties": {"magmom": 0.372}, "label": "Zr", "xyz": [2.867655606329622, 2.3400808160359485, 8.130956835077793]}, {"species": [{"element": "Zr", "occu": 1}], "abc": [0.57847707, 0.70211022, 0.14115739], "properties": {"magmom": 0.372}, "label": "Zr", "xyz": [4.7101776819502685, 5.517264489632366, 2.7994712651775666]}, {"species": [{"element": "Al", "occu": 1}], "abc": [0.24998958000000002, 1.732e-05, 3.119999999999999e-06], "properties": {"magmom": -0.008}, "label": "Al", "xyz": [1.2680113407747973, 3.393543562139998e-05, 0.43781303757737344]}, {"species": [{"element": "Al", "occu": 1}], "abc": [0.74998983, 4.25e-06, 1.622e-05], "properties": {"magmom": -0.008}, "label": "Al", "xyz": [3.8040198129381757, -0.0002731406184739, 1.3134912679070674]}, {"species": [{"element": "Al", "occu": 1}], "abc": [0.16355569, 0.49999279, 0.17288526], "properties": {"magmom": -0.019}, "label": "Al", "xyz": [2.092221139462957, 3.9290531169872542, 2.1595096760244736]}, {"species": [{"element": "Al", "occu": 1}], "abc": [0.33646066, 0.82708345, 0.49998642], "properties": {"magmom": -0.019}, "label": "Al", "xyz": [3.788853398624404, 6.499227308085549, 5.464728797964728]}, {"species": [{"element": "Al", "occu": 1}], "abc": [0.66354159, 0.172926399999999, 0.49999887], "properties": {"magmom": -0.019}, "label": "Al", "xyz": [3.7891281875976044, 1.3583388583952876, 5.46526850788372]}, {"species": [{"element": "Al", "occu": 1}], "abc": [0.83644811, 0.499991099999999, 0.82712314], "properties": {"magmom": -0.019}, "label": "Al", "xyz": [5.485701795192499, 3.928309023655933, 8.770659537247132]}]}, "task_ids": null, "uncorrected_energy_per_atom": null, "energy_per_atom": -17.17902045, "formation_energy_per_atom": -0.435863635624999, "energy_above_hull": 0.022739610249995, "is_stable": false, "equilibrium_reaction_energy_per_atom": null, "decomposes_to": null, "xas": null, "grain_boundaries": null, "band_gap": 0.0, "cbm": null, "vbm": null, "efermi": 4.83426078, "is_gap_direct": null, "is_metal": null, "es_source_calc_id": null, "bandstructure": null, "dos": null, "dos_energy_up": null, "dos_energy_down": null, "is_magnetic": null, "ordering": null, "total_magnetization": 4.9371143, "total_magnetization_normalized_vol": null, "total_magnetization_normalized_formula_units": null, "num_magnetic_sites": null, "num_unique_magnetic_sites": null, "types_of_magnetic_species": null, "bulk_modulus": null, "shear_modulus": null, "universal_anisotropy": null, "homogeneous_poisson": null, "e_total": null, "e_ionic": null, "e_electronic": null, "n": null, "e_ij_max": null, "weighted_surface_energy_EV_PER_ANG2": null, "weighted_surface_energy": null, "weighted_work_function": null, "surface_anisotropy": null, "shape_factor": null, "has_reconstructed": null, "possible_species": null, "has_props": null, "theoretical": null, "database_IDs": null, "fields_not_requested": ["builder_meta", "nsites", "elements", "nelements", "composition", "composition_reduced", "chemsys", "symmetry", "property_name", "deprecated", "deprecation_reasons", "last_updated", "origins", "warnings", "task_ids", "uncorrected_energy_per_atom", "equilibrium_reaction_energy_per_atom", "decomposes_to", "xas", "grain_boundaries", "cbm", "vbm", "is_gap_direct", "is_metal", "es_source_calc_id", "bandstructure", "dos", "dos_energy_up", "dos_energy_down", "is_magnetic", "ordering", "total_magnetization_normalized_vol", "total_magnetization_normalized_formula_units", "num_magnetic_sites", "num_unique_magnetic_sites", "types_of_magnetic_species", "bulk_modulus", "shear_modulus", "universal_anisotropy", "homogeneous_poisson", "e_total", "e_ionic", "e_electronic", "n", "e_ij_max", "weighted_surface_energy_EV_PER_ANG2", "weighted_surface_energy", "weighted_work_function", "surface_anisotropy", "shape_factor", "has_reconstructed", "possible_species", "has_props", "theoretical", "database_IDs"]}