{"builder_meta": null, "nsites": null, "elements": null, "nelements": null, "composition": null, "composition_reduced": null, "formula_pretty": "Zr5Bi3", "formula_anonymous": "A3B5", "chemsys": null, "volume": 389.377069893223, "density": 9.237654567650122, "density_atomic": 24.336066868326437, "symmetry": null, "property_name": null, "material_id": "mp-1207392", "deprecated": null, "deprecation_reasons": null, "last_updated": null, "origins": null, "warnings": null, "structure": {"@module": "pymatgen.core.structure", "@class": "Structure", "charge": 0, "lattice": {"matrix": [[0.0, 0.0, -5.896375], [-4.366137, -7.56237, 0.0], [-4.366137, 7.56237, 0.0]], "pbc": [true, true, true], "a": 5.896375, "b": 8.732273032817343, "c": 8.732273032817343, "alpha": 119.99999267220683, "beta": 90.0, "gamma": 90.0, "volume": 389.377069893223}, "properties": {}, "sites": [{"species": [{"element": "Zr", "occu": 1}], "abc": [0.0, 0.666667, 0.333333], "properties": {"magmom": 0.023}, "label": "Zr", "xyz": [-4.366137, -2.52079504158, 0.0]}, {"species": [{"element": "Zr", "occu": 1}], "abc": [0.0, 0.333333, 0.666667], "properties": {"magmom": 0.023}, "label": "Zr", "xyz": [-4.366137, 2.52079504158, 0.0]}, {"species": [{"element": "Zr", "occu": 1}], "abc": [0.5, 0.333333, 0.666667], "properties": {"magmom": 0.023}, "label": "Zr", "xyz": [-4.366137, 2.52079504158, -2.9481875]}, {"species": [{"element": "Zr", "occu": 1}], "abc": [0.5, 0.666667, 0.333333], "properties": {"magmom": 0.023}, "label": "Zr", "xyz": [-4.366137, -2.52079504158, -2.9481875]}, {"species": [{"element": "Zr", "occu": 1}], "abc": [0.75, 0.745332, 0.745332], "properties": {"magmom": 0.116}, "label": "Zr", "xyz": [-6.508443244968, 0.0, -4.42228125]}, {"species": [{"element": "Zr", "occu": 1}], "abc": [0.25, 0.254668, 0.254668], "properties": {"magmom": 0.116}, "label": "Zr", "xyz": [-2.223830755032, 0.0, -1.47409375]}, {"species": [{"element": "Zr", "occu": 1}], "abc": [0.75, 0.0, 0.254668], "properties": {"magmom": 0.101}, "label": "Zr", "xyz": [-1.111915377516, 1.92589364316, -4.42228125]}, {"species": [{"element": "Zr", "occu": 1}], "abc": [0.25, 0.0, 0.745332], "properties": {"magmom": 0.101}, "label": "Zr", "xyz": [-3.254221622484, 5.636476356839999, -1.47409375]}, {"species": [{"element": "Zr", "occu": 1}], "abc": [0.75, 0.254668, 0.0], "properties": {"magmom": 0.107}, "label": "Zr", "xyz": [-1.111915377516, -1.92589364316, -4.42228125]}, {"species": [{"element": "Zr", "occu": 1}], "abc": [0.25, 0.745332, 0.0], "properties": {"magmom": 0.107}, "label": "Zr", "xyz": [-3.254221622484, -5.636476356839999, -1.47409375]}, {"species": [{"element": "Bi", "occu": 1}], "abc": [0.75, 0.385606, 0.385606], "properties": {"magmom": -0.003}, "label": "Bi", "xyz": [-3.367217248044, 0.0, -4.42228125]}, {"species": [{"element": "Bi", "occu": 1}], "abc": [0.25, 0.614394, 0.614394], "properties": {"magmom": -0.003}, "label": "Bi", "xyz": [-5.365056751956, 0.0, -1.47409375]}, {"species": [{"element": "Bi", "occu": 1}], "abc": [0.75, 0.0, 0.614394], "properties": {"magmom": -0.003}, "label": "Bi", "xyz": [-2.682528375978, 4.646274753779999, -4.42228125]}, {"species": [{"element": "Bi", "occu": 1}], "abc": [0.25, 0.0, 0.385606], "properties": {"magmom": -0.003}, "label": "Bi", "xyz": [-1.683608624022, 2.91609524622, -1.47409375]}, {"species": [{"element": "Bi", "occu": 1}], "abc": [0.75, 0.614394, 0.0], "properties": {"magmom": -0.003}, "label": "Bi", "xyz": [-2.682528375978, -4.646274753779999, -4.42228125]}, {"species": [{"element": "Bi", "occu": 1}], "abc": [0.25, 0.385606, 0.0], "properties": {"magmom": -0.003}, "label": "Bi", "xyz": [-1.683608624022, -2.91609524622, -1.47409375]}]}, "task_ids": null, "uncorrected_energy_per_atom": null, "energy_per_atom": -7.101708744375, "formation_energy_per_atom": -0.300632984375001, "energy_above_hull": 0.008827140729168001, "is_stable": false, "equilibrium_reaction_energy_per_atom": null, "decomposes_to": null, "xas": null, "grain_boundaries": null, "band_gap": 0.0, "cbm": null, "vbm": null, "efermi": 6.40503673, "is_gap_direct": null, "is_metal": null, "es_source_calc_id": null, "bandstructure": null, "dos": null, "dos_energy_up": null, "dos_energy_down": null, "is_magnetic": null, "ordering": null, "total_magnetization": 1.1519497, "total_magnetization_normalized_vol": null, "total_magnetization_normalized_formula_units": null, "num_magnetic_sites": null, "num_unique_magnetic_sites": null, "types_of_magnetic_species": null, "bulk_modulus": null, "shear_modulus": null, "universal_anisotropy": null, "homogeneous_poisson": null, "e_total": null, "e_ionic": null, "e_electronic": null, "n": null, "e_ij_max": null, "weighted_surface_energy_EV_PER_ANG2": null, "weighted_surface_energy": null, "weighted_work_function": null, "surface_anisotropy": null, "shape_factor": null, "has_reconstructed": null, "possible_species": null, "has_props": null, "theoretical": null, "database_IDs": null, "fields_not_requested": ["builder_meta", "nsites", "elements", "nelements", "composition", "composition_reduced", "chemsys", "symmetry", "property_name", "deprecated", "deprecation_reasons", "last_updated", "origins", "warnings", "task_ids", "uncorrected_energy_per_atom", "equilibrium_reaction_energy_per_atom", "decomposes_to", "xas", "grain_boundaries", "cbm", "vbm", "is_gap_direct", "is_metal", "es_source_calc_id", "bandstructure", "dos", "dos_energy_up", "dos_energy_down", "is_magnetic", "ordering", "total_magnetization_normalized_vol", "total_magnetization_normalized_formula_units", "num_magnetic_sites", "num_unique_magnetic_sites", "types_of_magnetic_species", "bulk_modulus", "shear_modulus", "universal_anisotropy", "homogeneous_poisson", "e_total", "e_ionic", "e_electronic", "n", "e_ij_max", "weighted_surface_energy_EV_PER_ANG2", "weighted_surface_energy", "weighted_work_function", "surface_anisotropy", "shape_factor", "has_reconstructed", "possible_species", "has_props", "theoretical", "database_IDs"]}