{
  "builder_meta": null,
  "nsites": null,
  "elements": null,
  "nelements": null,
  "composition": null,
  "composition_reduced": null,
  "formula_pretty": "Zr5Ga3",
  "formula_anonymous": "A3B5",
  "chemsys": null,
  "volume": 327.0187592650689,
  "density": 6.7564220325586195,
  "density_atomic": 20.438672454066808,
  "symmetry": null,
  "property_name": null,
  "material_id": "mp-1106169",
  "deprecated": null,
  "deprecation_reasons": null,
  "last_updated": null,
  "origins": null,
  "warnings": null,
  "structure": {
    "@module": "pymatgen.core.structure",
    "@class": "Structure",
    "charge": 0,
    "lattice": {
      "matrix": [
        [4.04499934, -7.00614284, 1.07e-6],
        [4.04499832, 7.00614183, -1.07e-6],
        [0.0, -1.04e-6, 5.76959481]
      ],
      "pbc": [true, true, true],
      "a": 8.08999735198256,
      "b": 8.089995967296877,
      "c": 5.769594810000094,
      "alpha": 90.0000165222565,
      "beta": 89.99998347774502,
      "gamma": 119.9999918191186,
      "volume": 327.0187592650689
    },
    "properties": {},
    "sites": [
      {
        "species": [{ "element": "Zr", "occu": 1 }],
        "abc": [0.666667, 0.333333, 0.0],
        "properties": { "magmom": 0.244 },
        "label": "Zr",
        "xyz": [4.04499900000034, -2.33538595409489, 3.5666737999999995e-7]
      },
      {
        "species": [{ "element": "Zr", "occu": 1 }],
        "abc": [0.333333, 0.666667, 0.0],
        "properties": { "magmom": 0.244 },
        "label": "Zr",
        "xyz": [4.04499865999966, 2.33538494409489, -3.5666737999999995e-7]
      },
      {
        "species": [{ "element": "Zr", "occu": 1 }],
        "abc": [0.333333, 0.666667, 0.5],
        "properties": { "magmom": 0.244 },
        "label": "Zr",
        "xyz": [4.04499865999966, 2.33538442409489, 2.88479704833262]
      },
      {
        "species": [{ "element": "Zr", "occu": 1 }],
        "abc": [0.666667, 0.333333, 0.5],
        "properties": { "magmom": 0.244 },
        "label": "Zr",
        "xyz": [4.04499900000034, -2.3353864740948898, 2.88479776166738]
      },
      {
        "species": [{ "element": "Zr", "occu": 1 }],
        "abc": [0.757332799999999, 0.757332799999999, 0.75],
        "properties": { "magmom": 0.112 },
        "label": "Zr",
        "xyz": [6.12682057984124, -1.5449061277703594e-6, 4.3271961075]
      },
      {
        "species": [{ "element": "Zr", "occu": 1 }],
        "abc": [0.2426672, 0.0, 0.75],
        "properties": { "magmom": 0.112 },
        "label": "Zr",
        "xyz": [0.981588663839648, -1.7001618457828478, 4.3271963671539035]
      },
      {
        "species": [{ "element": "Zr", "occu": 1 }],
        "abc": [0.0, 0.2426672, 0.75],
        "properties": { "magmom": 0.112 },
        "label": "Zr",
        "xyz": [0.9815884163191041, 1.700160040688976, 4.327195847846096]
      },
      {
        "species": [{ "element": "Zr", "occu": 1 }],
        "abc": [0.2426672, 0.2426672, 0.25],
        "properties": { "magmom": 0.112 },
        "label": "Zr",
        "xyz": [1.963177080158752, -5.050938718645546e-7, 1.4423987025]
      },
      {
        "species": [{ "element": "Zr", "occu": 1 }],
        "abc": [0.757332799999999, -0.0, 0.25],
        "properties": { "magmom": 0.112 },
        "label": "Zr",
        "xyz": [3.0634106761603483, -5.305982034217145, 1.442399512846096]
      },
      {
        "species": [{ "element": "Zr", "occu": 1 }],
        "abc": [-0.0, 0.757332799999999, 0.25],
        "properties": { "magmom": 0.112 },
        "label": "Zr",
        "xyz": [3.0634099036808924, 5.305980749311017, 1.442397892153904]
      },
      {
        "species": [{ "element": "Ga", "occu": 1 }],
        "abc": [0.39247542, 0.39247542, 0.75],
        "properties": { "magmom": -0.018000000000000002 },
        "label": "Ga",
        "xyz": [3.1751252294075174, -1.176400174462741e-6, 4.3271961075]
      },
      {
        "species": [{ "element": "Ga", "occu": 1 }],
        "abc": [0.60752458, 0.0, 0.75],
        "properties": { "magmom": -0.018000000000000002 },
        "label": "Ga",
        "xyz": [2.4574365251337773, -4.2564047662910065, 4.327196757551301]
      },
      {
        "species": [{ "element": "Ga", "occu": 1 }],
        "abc": [0.0, 0.60752458, 0.75],
        "properties": { "magmom": -0.018000000000000002 },
        "label": "Ga",
        "xyz": [2.4574359054587056, 4.256402592691181, 4.327195457448699]
      },
      {
        "species": [{ "element": "Ga", "occu": 1 }],
        "abc": [0.60752458, 0.60752458, 0.25],
        "properties": { "magmom": -0.018000000000000002 },
        "label": "Ga",
        "xyz": [4.914872430592483, -8.735998260603515e-7, 1.4423987025]
      },
      {
        "species": [{ "element": "Ga", "occu": 1 }],
        "abc": [0.39247542, -0.0, 0.25],
        "properties": { "magmom": -0.018000000000000002 },
        "label": "Ga",
        "xyz": [1.587562814866223, -2.7497391137089933, 1.4423991224486994]
      },
      {
        "species": [{ "element": "Ga", "occu": 1 }],
        "abc": [-0.0, 0.39247542, 0.25],
        "properties": { "magmom": -0.018000000000000002 },
        "label": "Ga",
        "xyz": [1.5875624145412945, 2.7497381973088184, 1.4423982825513006]
      }
    ]
  },
  "task_ids": null,
  "uncorrected_energy_per_atom": null,
  "energy_per_atom": -19.09926924,
  "formation_energy_per_atom": -0.589608318125002,
  "energy_above_hull": 0.0,
  "is_stable": true,
  "equilibrium_reaction_energy_per_atom": null,
  "decomposes_to": null,
  "xas": null,
  "grain_boundaries": null,
  "band_gap": 0.0,
  "cbm": null,
  "vbm": null,
  "efermi": 3.79832403,
  "is_gap_direct": null,
  "is_metal": null,
  "es_source_calc_id": null,
  "bandstructure": null,
  "dos": null,
  "dos_energy_up": null,
  "dos_energy_down": null,
  "is_magnetic": null,
  "ordering": null,
  "total_magnetization": 2.4718673,
  "total_magnetization_normalized_vol": null,
  "total_magnetization_normalized_formula_units": null,
  "num_magnetic_sites": null,
  "num_unique_magnetic_sites": null,
  "types_of_magnetic_species": null,
  "bulk_modulus": null,
  "shear_modulus": null,
  "universal_anisotropy": null,
  "homogeneous_poisson": null,
  "e_total": null,
  "e_ionic": null,
  "e_electronic": null,
  "n": null,
  "e_ij_max": null,
  "weighted_surface_energy_EV_PER_ANG2": null,
  "weighted_surface_energy": null,
  "weighted_work_function": null,
  "surface_anisotropy": null,
  "shape_factor": null,
  "has_reconstructed": null,
  "possible_species": null,
  "has_props": null,
  "theoretical": null,
  "database_IDs": null,
  "fields_not_requested": [
    "builder_meta",
    "nsites",
    "elements",
    "nelements",
    "composition",
    "composition_reduced",
    "chemsys",
    "symmetry",
    "property_name",
    "deprecated",
    "deprecation_reasons",
    "last_updated",
    "origins",
    "warnings",
    "task_ids",
    "uncorrected_energy_per_atom",
    "equilibrium_reaction_energy_per_atom",
    "decomposes_to",
    "xas",
    "grain_boundaries",
    "cbm",
    "vbm",
    "is_gap_direct",
    "is_metal",
    "es_source_calc_id",
    "bandstructure",
    "dos",
    "dos_energy_up",
    "dos_energy_down",
    "is_magnetic",
    "ordering",
    "total_magnetization_normalized_vol",
    "total_magnetization_normalized_formula_units",
    "num_magnetic_sites",
    "num_unique_magnetic_sites",
    "types_of_magnetic_species",
    "bulk_modulus",
    "shear_modulus",
    "universal_anisotropy",
    "homogeneous_poisson",
    "e_total",
    "e_ionic",
    "e_electronic",
    "n",
    "e_ij_max",
    "weighted_surface_energy_EV_PER_ANG2",
    "weighted_surface_energy",
    "weighted_work_function",
    "surface_anisotropy",
    "shape_factor",
    "has_reconstructed",
    "possible_species",
    "has_props",
    "theoretical",
    "database_IDs"
  ]
}
