{"builder_meta": null, "nsites": null, "elements": null, "nelements": null, "composition": null, "composition_reduced": null, "formula_pretty": "Zr5Ge3", "formula_anonymous": "A3B5", "chemsys": null, "volume": 317.53133541665886, "density": 7.049822348917964, "density_atomic": 19.84570846354118, "symmetry": null, "property_name": null, "material_id": "mp-17706", "deprecated": null, "deprecation_reasons": null, "last_updated": null, "origins": null, "warnings": null, "structure": {"@module": "pymatgen.core.structure", "@class": "Structure", "charge": 0, "lattice": {"matrix": [[8.07722771, -0.0, 0.0], [-4.03861386, 6.9950855999999995, -0.0], [0.0, 0.0, 5.61993419]], "pbc": [true, true, true], "a": 8.07722771, "b": 8.077228761246735, "c": 5.61993419, "alpha": 90.0, "beta": 90.0, "gamma": 119.99999573564585, "volume": 317.5313354166588}, "properties": {}, "sites": [{"species": [{"element": "Zr", "occu": 1}], "abc": [0.0, 0.74588944, 0.75], "properties": {"magmom": 0.0}, "label": "Zr", "xyz": [-3.0123594304116383, 5.217560480936064, 4.2149506425]}, {"species": [{"element": "Zr", "occu": 1}], "abc": [-0.0, 0.25411056, 0.25], "properties": {"magmom": 0.0}, "label": "Zr", "xyz": [-1.0262544295883615, 1.7775251190639358, 1.4049835475]}, {"species": [{"element": "Zr", "occu": 1}], "abc": [0.74588944, 0.74588944, 0.25], "properties": {"magmom": 0.0}, "label": "Zr", "xyz": [3.0123594229527444, 5.217560480936064, 1.4049835475]}, {"species": [{"element": "Zr", "occu": 1}], "abc": [0.74588944, 0.0, 0.75], "properties": {"magmom": 0.0}, "label": "Zr", "xyz": [6.024718853364383, 0.0, 4.2149506425]}, {"species": [{"element": "Zr", "occu": 1}], "abc": [0.25411056, 0.25411056, 0.75], "properties": {"magmom": 0.0}, "label": "Zr", "xyz": [1.026254427047256, 1.7775251190639358, 4.2149506425]}, {"species": [{"element": "Zr", "occu": 1}], "abc": [0.25411056, 0.0, 0.25], "properties": {"magmom": 0.0}, "label": "Zr", "xyz": [2.0525088566356176, 0.0, 1.4049835475]}, {"species": [{"element": "Zr", "occu": 1}], "abc": [0.333333, 0.666667, 0.5], "properties": {"magmom": 0.0}, "label": "Zr", "xyz": [-4.041947189836748e-06, 4.6633927316951995, 2.809967095]}, {"species": [{"element": "Zr", "occu": 1}], "abc": [0.666667, 0.333333, 0.0], "properties": {"magmom": 0.0}, "label": "Zr", "xyz": [4.03861789194719, 2.3316928683048, 0.0]}, {"species": [{"element": "Zr", "occu": 1}], "abc": [0.666667, 0.333333, 0.5], "properties": {"magmom": 0.0}, "label": "Zr", "xyz": [4.03861789194719, 2.3316928683048, 2.809967095]}, {"species": [{"element": "Zr", "occu": 1}], "abc": [0.333333, 0.666667, 0.0], "properties": {"magmom": 0.0}, "label": "Zr", "xyz": [-4.041947189836748e-06, 4.6633927316951995, 0.0]}, {"species": [{"element": "Ge", "occu": 1}], "abc": [0.38805351, 0.0, 0.75], "properties": {"magmom": -0.0}, "label": "Ge", "xyz": [3.134396563934762, 0.0, 4.2149506425]}, {"species": [{"element": "Ge", "occu": 1}], "abc": [0.38805351, 0.38805351, 0.25], "properties": {"magmom": -0.0}, "label": "Ge", "xyz": [1.5671982800271136, 2.7144675198304555, 1.4049835475]}, {"species": [{"element": "Ge", "occu": 1}], "abc": [0.0, 0.61194649, 0.25], "properties": {"magmom": -0.0}, "label": "Ge", "xyz": [-2.4714155760923515, 4.2806180801695435, 1.4049835475]}, {"species": [{"element": "Ge", "occu": 1}], "abc": [-0.0, 0.38805351, 0.75], "properties": {"magmom": -0.0}, "label": "Ge", "xyz": [-1.5671982839076486, 2.7144675198304555, 4.2149506425]}, {"species": [{"element": "Ge", "occu": 1}], "abc": [0.61194649, 0.61194649, 0.75], "properties": {"magmom": -0.0}, "label": "Ge", "xyz": [2.4714155699728866, 4.2806180801695435, 4.2149506425]}, {"species": [{"element": "Ge", "occu": 1}], "abc": [0.61194649, 0.0, 0.25], "properties": {"magmom": -0.0}, "label": "Ge", "xyz": [4.942831146065238, 0.0, 1.4049835475]}]}, "task_ids": null, "uncorrected_energy_per_atom": null, "energy_per_atom": -20.299078021875, "formation_energy_per_atom": -0.8784664887500031, "energy_above_hull": 0.0, "is_stable": true, "equilibrium_reaction_energy_per_atom": null, "decomposes_to": null, "xas": null, "grain_boundaries": null, "band_gap": 0.0, "cbm": null, "vbm": null, "efermi": 5.54822283, "is_gap_direct": null, "is_metal": null, "es_source_calc_id": null, "bandstructure": null, "dos": null, "dos_energy_up": null, "dos_energy_down": null, "is_magnetic": null, "ordering": null, "total_magnetization": 0.001260399999999, "total_magnetization_normalized_vol": null, "total_magnetization_normalized_formula_units": null, "num_magnetic_sites": null, "num_unique_magnetic_sites": null, "types_of_magnetic_species": null, "bulk_modulus": null, "shear_modulus": null, "universal_anisotropy": null, "homogeneous_poisson": null, "e_total": null, "e_ionic": null, "e_electronic": null, "n": null, "e_ij_max": null, "weighted_surface_energy_EV_PER_ANG2": null, "weighted_surface_energy": null, "weighted_work_function": null, "surface_anisotropy": null, "shape_factor": null, "has_reconstructed": null, "possible_species": null, "has_props": null, "theoretical": null, "database_IDs": null, "fields_not_requested": ["builder_meta", "nsites", "elements", "nelements", "composition", "composition_reduced", "chemsys", "symmetry", "property_name", "deprecated", "deprecation_reasons", "last_updated", "origins", "warnings", "task_ids", "uncorrected_energy_per_atom", "equilibrium_reaction_energy_per_atom", "decomposes_to", "xas", "grain_boundaries", "cbm", "vbm", "is_gap_direct", "is_metal", "es_source_calc_id", "bandstructure", "dos", "dos_energy_up", "dos_energy_down", "is_magnetic", "ordering", "total_magnetization_normalized_vol", "total_magnetization_normalized_formula_units", "num_magnetic_sites", "num_unique_magnetic_sites", "types_of_magnetic_species", "bulk_modulus", "shear_modulus", "universal_anisotropy", "homogeneous_poisson", "e_total", "e_ionic", "e_electronic", "n", "e_ij_max", "weighted_surface_energy_EV_PER_ANG2", "weighted_surface_energy", "weighted_work_function", "surface_anisotropy", "shape_factor", "has_reconstructed", "possible_species", "has_props", "theoretical", "database_IDs"]}