{
  "builder_meta": null,
  "nsites": null,
  "elements": null,
  "nelements": null,
  "composition": null,
  "composition_reduced": null,
  "formula_pretty": "Zr5Ga4",
  "formula_anonymous": "A4B5",
  "chemsys": null,
  "volume": 349.66414040658486,
  "density": 6.98107697861496,
  "density_atomic": 19.425785578143604,
  "symmetry": null,
  "property_name": null,
  "material_id": "mp-1188336",
  "deprecated": null,
  "deprecation_reasons": null,
  "last_updated": null,
  "origins": null,
  "warnings": null,
  "structure": {
    "@module": "pymatgen.core.structure",
    "@class": "Structure",
    "charge": 0,
    "lattice": {
      "matrix": [
        [4.18793524, -7.25371561, -0.0],
        [4.18793524, 7.25371561, -0.0],
        [0.0, 0.0, 5.75520262]
      ],
      "pbc": [true, true, true],
      "a": 8.37586961008775,
      "b": 8.37586961008775,
      "c": 5.75520262,
      "alpha": 90.0,
      "beta": 90.0,
      "gamma": 119.9999931287216,
      "volume": 349.66414040658486
    },
    "properties": {},
    "sites": [
      {
        "species": [{ "element": "Zr", "occu": 1 }],
        "abc": [0.666667, 0.333333, 0.0],
        "properties": { "magmom": 0.145 },
        "label": "Zr",
        "xyz": [4.18793524, -2.4179100391437403, 0.0]
      },
      {
        "species": [{ "element": "Zr", "occu": 1 }],
        "abc": [0.333333, 0.666667, 0.0],
        "properties": { "magmom": 0.145 },
        "label": "Zr",
        "xyz": [4.18793524, 2.4179100391437403, 0.0]
      },
      {
        "species": [{ "element": "Zr", "occu": 1 }],
        "abc": [0.333333, 0.666667, 0.5],
        "properties": { "magmom": 0.145 },
        "label": "Zr",
        "xyz": [4.18793524, 2.4179100391437403, 2.87760131]
      },
      {
        "species": [{ "element": "Zr", "occu": 1 }],
        "abc": [0.666667, 0.333333, 0.5],
        "properties": { "magmom": 0.145 },
        "label": "Zr",
        "xyz": [4.18793524, -2.4179100391437403, 2.87760131]
      },
      {
        "species": [{ "element": "Zr", "occu": 1 }],
        "abc": [0.72446174, 0.72446174, 0.75],
        "properties": { "magmom": 0.064 },
        "label": "Zr",
        "xyz": [6.067997701955434, 0.0, 4.316401965000001]
      },
      {
        "species": [{ "element": "Zr", "occu": 1 }],
        "abc": [0.27553826, -0.0, 0.75],
        "properties": { "magmom": 0.064 },
        "label": "Zr",
        "xyz": [1.1539363890222822, -1.9986761777142386, 4.316401965000001]
      },
      {
        "species": [{ "element": "Zr", "occu": 1 }],
        "abc": [-0.0, 0.27553826, 0.75],
        "properties": { "magmom": 0.064 },
        "label": "Zr",
        "xyz": [1.1539363890222822, 1.9986761777142386, 4.316401965000001]
      },
      {
        "species": [{ "element": "Zr", "occu": 1 }],
        "abc": [0.27553826, 0.27553826, 0.25],
        "properties": { "magmom": 0.064 },
        "label": "Zr",
        "xyz": [2.3078727780445645, 0.0, 1.438800655]
      },
      {
        "species": [{ "element": "Zr", "occu": 1 }],
        "abc": [0.72446174, 0.0, 0.25],
        "properties": { "magmom": 0.064 },
        "label": "Zr",
        "xyz": [3.033998850977717, -5.255039432285762, 1.438800655]
      },
      {
        "species": [{ "element": "Zr", "occu": 1 }],
        "abc": [0.0, 0.72446174, 0.25],
        "properties": { "magmom": 0.064 },
        "label": "Zr",
        "xyz": [3.033998850977717, 5.255039432285762, 1.438800655]
      },
      {
        "species": [{ "element": "Ga", "occu": 1 }],
        "abc": [-0.0, -0.0, 0.0],
        "properties": { "magmom": 0.024 },
        "label": "Ga",
        "xyz": [0.0, 0.0, 0.0]
      },
      {
        "species": [{ "element": "Ga", "occu": 1 }],
        "abc": [-0.0, -0.0, 0.5],
        "properties": { "magmom": 0.024 },
        "label": "Ga",
        "xyz": [0.0, 0.0, 2.87760131]
      },
      {
        "species": [{ "element": "Ga", "occu": 1 }],
        "abc": [0.37956666, 0.37956666, 0.75],
        "properties": { "magmom": 0.006 },
        "label": "Ga",
        "xyz": [3.179201182686197, 0.0, 4.316401965000001]
      },
      {
        "species": [{ "element": "Ga", "occu": 1 }],
        "abc": [0.62043334, -0.0, 0.75],
        "properties": { "magmom": 0.006 },
        "label": "Ga",
        "xyz": [2.598334648656902, -4.500447003322438, 4.316401965000001]
      },
      {
        "species": [{ "element": "Ga", "occu": 1 }],
        "abc": [-0.0, 0.62043334, 0.75],
        "properties": { "magmom": 0.006 },
        "label": "Ga",
        "xyz": [2.598334648656902, 4.500447003322438, 4.316401965000001]
      },
      {
        "species": [{ "element": "Ga", "occu": 1 }],
        "abc": [0.62043334, 0.62043334, 0.25],
        "properties": { "magmom": 0.006 },
        "label": "Ga",
        "xyz": [5.196669297313804, 0.0, 1.438800655]
      },
      {
        "species": [{ "element": "Ga", "occu": 1 }],
        "abc": [0.37956666, 0.0, 0.25],
        "properties": { "magmom": 0.006 },
        "label": "Ga",
        "xyz": [1.5896005913430984, -2.7532686066775627, 1.438800655]
      },
      {
        "species": [{ "element": "Ga", "occu": 1 }],
        "abc": [0.0, 0.37956666, 0.25],
        "properties": { "magmom": 0.006 },
        "label": "Ga",
        "xyz": [1.5896005913430984, 2.7532686066775627, 1.438800655]
      }
    ]
  },
  "task_ids": null,
  "uncorrected_energy_per_atom": null,
  "energy_per_atom": -18.345818158333334,
  "formation_energy_per_atom": -0.6213666777777791,
  "energy_above_hull": 0.04662204388888801,
  "is_stable": false,
  "equilibrium_reaction_energy_per_atom": null,
  "decomposes_to": null,
  "xas": null,
  "grain_boundaries": null,
  "band_gap": 0.0,
  "cbm": null,
  "vbm": null,
  "efermi": 4.19153008,
  "is_gap_direct": null,
  "is_metal": null,
  "es_source_calc_id": null,
  "bandstructure": null,
  "dos": null,
  "dos_energy_up": null,
  "dos_energy_down": null,
  "is_magnetic": null,
  "ordering": null,
  "total_magnetization": 1.6878771000000001,
  "total_magnetization_normalized_vol": null,
  "total_magnetization_normalized_formula_units": null,
  "num_magnetic_sites": null,
  "num_unique_magnetic_sites": null,
  "types_of_magnetic_species": null,
  "bulk_modulus": null,
  "shear_modulus": null,
  "universal_anisotropy": null,
  "homogeneous_poisson": null,
  "e_total": null,
  "e_ionic": null,
  "e_electronic": null,
  "n": null,
  "e_ij_max": null,
  "weighted_surface_energy_EV_PER_ANG2": null,
  "weighted_surface_energy": null,
  "weighted_work_function": null,
  "surface_anisotropy": null,
  "shape_factor": null,
  "has_reconstructed": null,
  "possible_species": null,
  "has_props": null,
  "theoretical": null,
  "database_IDs": null,
  "fields_not_requested": [
    "builder_meta",
    "nsites",
    "elements",
    "nelements",
    "composition",
    "composition_reduced",
    "chemsys",
    "symmetry",
    "property_name",
    "deprecated",
    "deprecation_reasons",
    "last_updated",
    "origins",
    "warnings",
    "task_ids",
    "uncorrected_energy_per_atom",
    "equilibrium_reaction_energy_per_atom",
    "decomposes_to",
    "xas",
    "grain_boundaries",
    "cbm",
    "vbm",
    "is_gap_direct",
    "is_metal",
    "es_source_calc_id",
    "bandstructure",
    "dos",
    "dos_energy_up",
    "dos_energy_down",
    "is_magnetic",
    "ordering",
    "total_magnetization_normalized_vol",
    "total_magnetization_normalized_formula_units",
    "num_magnetic_sites",
    "num_unique_magnetic_sites",
    "types_of_magnetic_species",
    "bulk_modulus",
    "shear_modulus",
    "universal_anisotropy",
    "homogeneous_poisson",
    "e_total",
    "e_ionic",
    "e_electronic",
    "n",
    "e_ij_max",
    "weighted_surface_energy_EV_PER_ANG2",
    "weighted_surface_energy",
    "weighted_work_function",
    "surface_anisotropy",
    "shape_factor",
    "has_reconstructed",
    "possible_species",
    "has_props",
    "theoretical",
    "database_IDs"
  ]
}
