{
  "builder_meta": null,
  "nsites": null,
  "elements": null,
  "nelements": null,
  "composition": null,
  "composition_reduced": null,
  "formula_pretty": "Zr5Ge4",
  "formula_anonymous": "A4B5",
  "chemsys": null,
  "volume": 695.1785956552546,
  "density": 7.134231795961458,
  "density_atomic": 19.310516545979297,
  "symmetry": null,
  "property_name": null,
  "material_id": "mp-1200749",
  "deprecated": null,
  "deprecation_reasons": null,
  "last_updated": null,
  "origins": null,
  "warnings": null,
  "structure": {
    "@module": "pymatgen.core.structure",
    "@class": "Structure",
    "charge": 0,
    "lattice": {
      "matrix": [
        [7.2537608, 0.0, -0.0],
        [0.0, 7.2537608, 0.0],
        [0.0, -0.0, 13.21204157]
      ],
      "pbc": [true, true, true],
      "a": 7.2537608,
      "b": 7.2537608,
      "c": 13.21204157,
      "alpha": 90.0,
      "beta": 90.0,
      "gamma": 90.0,
      "volume": 695.1785956552546
    },
    "properties": {},
    "sites": [
      {
        "species": [{ "element": "Zr", "occu": 1 }],
        "abc": [0.82870581, 0.17129319, 0.75],
        "properties": { "magmom": -0.0 },
        "label": "Zr",
        "xyz": [6.0112337193102485, 1.2425198269289521, 9.909031177500001]
      },
      {
        "species": [{ "element": "Zr", "occu": 1 }],
        "abc": [0.17129319, 0.82870581, 0.25],
        "properties": { "magmom": -0.0 },
        "label": "Zr",
        "xyz": [1.2425198269289521, 6.0112337193102485, 3.3030103925]
      },
      {
        "species": [{ "element": "Zr", "occu": 1 }],
        "abc": [0.67129419, 0.67129419, 0.5],
        "properties": { "magmom": -0.0 },
        "label": "Zr",
        "xyz": [4.869407480689752, 4.869407480689752, 6.606020785]
      },
      {
        "species": [{ "element": "Zr", "occu": 1 }],
        "abc": [0.32870681, 0.32870681, 0.0],
        "properties": { "magmom": -0.0 },
        "label": "Zr",
        "xyz": [2.384360573071048, 2.384360573071048, 0.0]
      },
      {
        "species": [{ "element": "Zr", "occu": 1 }],
        "abc": [0.99957432, 0.3445241, 0.5310640600000001],
        "properties": { "magmom": -0.0 },
        "label": "Zr",
        "xyz": [7.250673019102656, 2.49909541123528, 7.016440437052975]
      },
      {
        "species": [{ "element": "Zr", "occu": 1 }],
        "abc": [0.00042568, 0.6554759, 0.03106406],
        "properties": { "magmom": -0.0 },
        "label": "Zr",
        "xyz": [0.003087780897344, 4.75466538876472, 0.4104196520529742]
      },
      {
        "species": [{ "element": "Zr", "occu": 1 }],
        "abc": [0.8445241, 0.50042568, 0.28106406],
        "properties": { "magmom": -0.0 },
        "label": "Zr",
        "xyz": [6.12597581123528, 3.629968180897344, 3.7134300445529744]
      },
      {
        "species": [{ "element": "Zr", "occu": 1 }],
        "abc": [0.1554759, 0.49957432, 0.7810640600000001],
        "properties": { "magmom": -0.0 },
        "label": "Zr",
        "xyz": [1.12778498876472, 3.623792619102656, 10.319450829552975]
      },
      {
        "species": [{ "element": "Zr", "occu": 1 }],
        "abc": [0.6554759, 0.00042568, 0.96893594],
        "properties": { "magmom": -0.0 },
        "label": "Zr",
        "xyz": [4.75466538876472, 0.003087780897344, 12.801621917947026]
      },
      {
        "species": [{ "element": "Zr", "occu": 1 }],
        "abc": [0.3445241, 0.99957432, 0.46893594],
        "properties": { "magmom": -0.0 },
        "label": "Zr",
        "xyz": [2.49909541123528, 7.250673019102656, 6.195601132947026]
      },
      {
        "species": [{ "element": "Zr", "occu": 1 }],
        "abc": [0.50042568, 0.8445241, 0.71893594],
        "properties": { "magmom": -0.0 },
        "label": "Zr",
        "xyz": [3.629968180897344, 6.12597581123528, 9.498611525447027]
      },
      {
        "species": [{ "element": "Zr", "occu": 1 }],
        "abc": [0.49957432, 0.1554759, 0.21893594],
        "properties": { "magmom": -0.0 },
        "label": "Zr",
        "xyz": [3.623792619102656, 1.12778498876472, 2.8925907404470257]
      },
      {
        "species": [{ "element": "Zr", "occu": 1 }],
        "abc": [0.50175109, 0.34656056, 0.62342545],
        "properties": { "magmom": -0.0 },
        "label": "Zr",
        "xyz": [3.6395823879992717, 2.5138674049540484, 8.236722961195957]
      },
      {
        "species": [{ "element": "Zr", "occu": 1 }],
        "abc": [0.49824891, 0.65343944, 0.12342545],
        "properties": { "magmom": -0.0 },
        "label": "Zr",
        "xyz": [3.614178412000728, 4.739893395045952, 1.6307021761959566]
      },
      {
        "species": [{ "element": "Zr", "occu": 1 }],
        "abc": [0.84656056, 0.99824891, 0.37342545],
        "properties": { "magmom": -0.0 },
        "label": "Zr",
        "xyz": [6.1407478049540485, 7.241058812000729, 4.933712568695957]
      },
      {
        "species": [{ "element": "Zr", "occu": 1 }],
        "abc": [0.15343944, 0.00175109, 0.87342545],
        "properties": { "magmom": -0.0 },
        "label": "Zr",
        "xyz": [1.1130129950459522, 0.012701987999272002, 11.539733353695958]
      },
      {
        "species": [{ "element": "Zr", "occu": 1 }],
        "abc": [0.65343944, 0.49824891, 0.8765745500000001],
        "properties": { "magmom": -0.0 },
        "label": "Zr",
        "xyz": [4.739893395045952, 3.614178412000728, 11.581339393804045]
      },
      {
        "species": [{ "element": "Zr", "occu": 1 }],
        "abc": [0.34656056, 0.50175109, 0.37657455],
        "properties": { "magmom": -0.0 },
        "label": "Zr",
        "xyz": [2.5138674049540484, 3.6395823879992717, 4.975318608804043]
      },
      {
        "species": [{ "element": "Zr", "occu": 1 }],
        "abc": [0.99824891, 0.84656056, 0.6265745500000001],
        "properties": { "magmom": -0.0 },
        "label": "Zr",
        "xyz": [7.241058812000729, 6.1407478049540485, 8.278329001304044]
      },
      {
        "species": [{ "element": "Zr", "occu": 1 }],
        "abc": [0.00175109, 0.15343944, 0.12657455],
        "properties": { "magmom": -0.0 },
        "label": "Zr",
        "xyz": [0.012701987999272002, 1.1130129950459522, 1.6723082163040437]
      },
      {
        "species": [{ "element": "Ge", "occu": 1 }],
        "abc": [0.64098258, 0.29897665, 0.42237949],
        "properties": { "magmom": 0.0 },
        "label": "Ge",
        "xyz": [4.649534312286864, 2.16870510388532, 5.5804953801954]
      },
      {
        "species": [{ "element": "Ge", "occu": 1 }],
        "abc": [0.35901742000000003, 0.70102335, 0.92237949],
        "properties": { "magmom": 0.0 },
        "label": "Ge",
        "xyz": [2.6042264877131363, 5.08505569611468, 12.1865161651954]
      },
      {
        "species": [{ "element": "Ge", "occu": 1 }],
        "abc": [0.7989766500000001, 0.85901742, 0.17237949],
        "properties": { "magmom": 0.0 },
        "label": "Ge",
        "xyz": [5.795585503885321, 6.231106887713136, 2.277484987695399]
      },
      {
        "species": [{ "element": "Ge", "occu": 1 }],
        "abc": [0.20102335000000002, 0.14098258, 0.67237949],
        "properties": { "magmom": 0.0 },
        "label": "Ge",
        "xyz": [1.45817529611468, 1.022653912286864, 8.883505772695399]
      },
      {
        "species": [{ "element": "Ge", "occu": 1 }],
        "abc": [0.70102335, 0.35901742000000003, 0.07762051],
        "properties": { "magmom": 0.0 },
        "label": "Ge",
        "xyz": [5.08505569611468, 2.6042264877131363, 1.0255254048046007]
      },
      {
        "species": [{ "element": "Ge", "occu": 1 }],
        "abc": [0.29897665, 0.64098258, 0.57762051],
        "properties": { "magmom": 0.0 },
        "label": "Ge",
        "xyz": [2.16870510388532, 4.649534312286864, 7.6315461898046015]
      },
      {
        "species": [{ "element": "Ge", "occu": 1 }],
        "abc": [0.85901742, 0.7989766500000001, 0.82762051],
        "properties": { "magmom": 0.0 },
        "label": "Ge",
        "xyz": [6.231106887713136, 5.795585503885321, 10.934556582304602]
      },
      {
        "species": [{ "element": "Ge", "occu": 1 }],
        "abc": [0.14098258, 0.20102335000000002, 0.32762051000000003],
        "properties": { "magmom": 0.0 },
        "label": "Ge",
        "xyz": [1.022653912286864, 1.45817529611468, 4.3285357973046015]
      },
      {
        "species": [{ "element": "Ge", "occu": 1 }],
        "abc": [0.69718138, 0.03909506, 0.56621981],
        "properties": { "magmom": 0.0 },
        "label": "Ge",
        "xyz": [5.057186964733904, 0.283586213701648, 7.480919667477502]
      },
      {
        "species": [{ "element": "Ge", "occu": 1 }],
        "abc": [0.30281862, 0.96090494, 0.06621981],
        "properties": { "magmom": 0.0 },
        "label": "Ge",
        "xyz": [2.1965738352660957, 6.970174586298352, 0.8748988824775018]
      },
      {
        "species": [{ "element": "Ge", "occu": 1 }],
        "abc": [0.53909506, 0.80281862, 0.31621981],
        "properties": { "magmom": 0.0 },
        "label": "Ge",
        "xyz": [3.9104666137016477, 5.823454235266096, 4.177909274977502]
      },
      {
        "species": [{ "element": "Ge", "occu": 1 }],
        "abc": [0.46090494, 0.19718138000000002, 0.81621981],
        "properties": { "magmom": 0.0 },
        "label": "Ge",
        "xyz": [3.343294186298352, 1.4303065647339042, 10.783930059977502]
      },
      {
        "species": [{ "element": "Ge", "occu": 1 }],
        "abc": [0.96090494, 0.30281862, 0.93378019],
        "properties": { "magmom": 0.0 },
        "label": "Ge",
        "xyz": [6.970174586298352, 2.1965738352660957, 12.3371426875225]
      },
      {
        "species": [{ "element": "Ge", "occu": 1 }],
        "abc": [0.03909506, 0.69718138, 0.43378019],
        "properties": { "magmom": 0.0 },
        "label": "Ge",
        "xyz": [0.283586213701648, 5.057186964733904, 5.731121902522498]
      },
      {
        "species": [{ "element": "Ge", "occu": 1 }],
        "abc": [0.80281862, 0.53909506, 0.68378019],
        "properties": { "magmom": 0.0 },
        "label": "Ge",
        "xyz": [5.823454235266096, 3.9104666137016477, 9.034132295022498]
      },
      {
        "species": [{ "element": "Ge", "occu": 1 }],
        "abc": [0.19718138000000002, 0.46090494, 0.18378019],
        "properties": { "magmom": 0.0 },
        "label": "Ge",
        "xyz": [1.4303065647339042, 3.343294186298352, 2.4281115100224984]
      }
    ]
  },
  "task_ids": null,
  "uncorrected_energy_per_atom": null,
  "energy_per_atom": -19.732202519444442,
  "formation_energy_per_atom": -0.9281058699999991,
  "energy_above_hull": 0.0,
  "is_stable": true,
  "equilibrium_reaction_energy_per_atom": null,
  "decomposes_to": null,
  "xas": null,
  "grain_boundaries": null,
  "band_gap": 0.0,
  "cbm": null,
  "vbm": null,
  "efermi": 4.65338366,
  "is_gap_direct": null,
  "is_metal": null,
  "es_source_calc_id": null,
  "bandstructure": null,
  "dos": null,
  "dos_energy_up": null,
  "dos_energy_down": null,
  "is_magnetic": null,
  "ordering": null,
  "total_magnetization": 7.5999999999999975e-6,
  "total_magnetization_normalized_vol": null,
  "total_magnetization_normalized_formula_units": null,
  "num_magnetic_sites": null,
  "num_unique_magnetic_sites": null,
  "types_of_magnetic_species": null,
  "bulk_modulus": null,
  "shear_modulus": null,
  "universal_anisotropy": null,
  "homogeneous_poisson": null,
  "e_total": null,
  "e_ionic": null,
  "e_electronic": null,
  "n": null,
  "e_ij_max": null,
  "weighted_surface_energy_EV_PER_ANG2": null,
  "weighted_surface_energy": null,
  "weighted_work_function": null,
  "surface_anisotropy": null,
  "shape_factor": null,
  "has_reconstructed": null,
  "possible_species": null,
  "has_props": null,
  "theoretical": null,
  "database_IDs": null,
  "fields_not_requested": [
    "builder_meta",
    "nsites",
    "elements",
    "nelements",
    "composition",
    "composition_reduced",
    "chemsys",
    "symmetry",
    "property_name",
    "deprecated",
    "deprecation_reasons",
    "last_updated",
    "origins",
    "warnings",
    "task_ids",
    "uncorrected_energy_per_atom",
    "equilibrium_reaction_energy_per_atom",
    "decomposes_to",
    "xas",
    "grain_boundaries",
    "cbm",
    "vbm",
    "is_gap_direct",
    "is_metal",
    "es_source_calc_id",
    "bandstructure",
    "dos",
    "dos_energy_up",
    "dos_energy_down",
    "is_magnetic",
    "ordering",
    "total_magnetization_normalized_vol",
    "total_magnetization_normalized_formula_units",
    "num_magnetic_sites",
    "num_unique_magnetic_sites",
    "types_of_magnetic_species",
    "bulk_modulus",
    "shear_modulus",
    "universal_anisotropy",
    "homogeneous_poisson",
    "e_total",
    "e_ionic",
    "e_electronic",
    "n",
    "e_ij_max",
    "weighted_surface_energy_EV_PER_ANG2",
    "weighted_surface_energy",
    "weighted_work_function",
    "surface_anisotropy",
    "shape_factor",
    "has_reconstructed",
    "possible_species",
    "has_props",
    "theoretical",
    "database_IDs"
  ]
}
