{
  "builder_meta": null,
  "nsites": null,
  "elements": null,
  "nelements": null,
  "composition": null,
  "composition_reduced": null,
  "formula_pretty": "Zr5Ir3",
  "formula_anonymous": "A3B5",
  "chemsys": null,
  "volume": 938.5054442339583,
  "density": 10.963963626772717,
  "density_atomic": 19.55219675487413,
  "symmetry": null,
  "property_name": null,
  "material_id": "mp-30749",
  "deprecated": null,
  "deprecation_reasons": null,
  "last_updated": null,
  "origins": null,
  "warnings": null,
  "structure": {
    "@module": "pymatgen.core.structure",
    "@class": "Structure",
    "charge": 0,
    "lattice": {
      "matrix": [
        [7.94545163, 0.0, -0.0],
        [-3.97272531, 6.88096224, 0.0],
        [0.0, 0.0, 17.16599705]
      ],
      "pbc": [true, true, true],
      "a": 7.94545163,
      "b": 7.945450757321475,
      "c": 17.16599705,
      "alpha": 90.0,
      "beta": 90.0,
      "gamma": 119.99999942828192,
      "volume": 938.5054442339583
    },
    "properties": {},
    "sites": [
      {
        "species": [{ "element": "Zr", "occu": 1 }],
        "abc": [0.23832588000000002, 0.23010675, 0.82583385],
        "properties": { "magmom": 0.0 },
        "label": "Zr",
        "xyz": [0.9794558419903422, 1.5833558579191198, 14.176261432890144]
      },
      {
        "species": [{ "element": "Zr", "occu": 1 }],
        "abc": [0.76989325, 0.00821913, 0.15916785],
        "properties": { "magmom": 0.0 },
        "label": "Zr",
        "xyz": [6.084497232361318, 0.0565555231756512, 2.7322748435548427]
      },
      {
        "species": [{ "element": "Zr", "occu": 1 }],
        "abc": [0.99178087, 0.76167412, 0.49250085],
        "properties": { "magmom": 0.0 },
        "label": "Zr",
        "xyz": [4.854224875648342, 5.241050858905228, 8.454268138222494]
      },
      {
        "species": [{ "element": "Zr", "occu": 1 }],
        "abc": [0.00821913, 0.23832588000000002, 0.99250085],
        "properties": { "magmom": 0.0 },
        "label": "Zr",
        "xyz": [-0.881498555648341, 1.6399113810947712, 17.037266663222493]
      },
      {
        "species": [{ "element": "Zr", "occu": 1 }],
        "abc": [0.76167412, 0.99178087, 0.84083215],
        "properties": { "magmom": 0.0 },
        "label": "Zr",
        "xyz": [2.1117719140599958, 6.824406716824349, 14.43372220644516]
      },
      {
        "species": [{ "element": "Zr", "occu": 1 }],
        "abc": [0.76167412, 0.76989325, 0.32583385],
        "properties": { "magmom": 0.0 },
        "label": "Zr",
        "xyz": [2.993270478009658, 5.29760638208088, 5.593262907890143]
      },
      {
        "species": [{ "element": "Zr", "occu": 1 }],
        "abc": [0.23010675, 0.99178087, 0.65916785],
        "properties": { "magmom": 0.0 },
        "label": "Zr",
        "xyz": [-2.111770912361317, 6.824406716824349, 11.315273368554843]
      },
      {
        "species": [{ "element": "Zr", "occu": 1 }],
        "abc": [0.76989325, 0.76167412, 0.00749915],
        "properties": { "magmom": 0.0 },
        "label": "Zr",
        "xyz": [3.0912275236425204, 5.241050858905228, 0.1287303867775075]
      },
      {
        "species": [{ "element": "Zr", "occu": 1 }],
        "abc": [0.99178087, 0.23010675, 0.67416615],
        "properties": { "magmom": 0.0 },
        "label": "Zr",
        "xyz": [6.965996020417476, 1.5833558579191198, 11.572734142109859]
      },
      {
        "species": [{ "element": "Zr", "occu": 1 }],
        "abc": [0.00821913, 0.76989325, 0.17416615],
        "properties": { "magmom": 0.0 },
        "label": "Zr",
        "xyz": [-2.9932697004174753, 5.29760638208088, 2.9897356171098575]
      },
      {
        "species": [{ "element": "Zr", "occu": 1 }],
        "abc": [0.23010675, 0.23832588000000002, 0.50749915],
        "properties": { "magmom": 0.0 },
        "label": "Zr",
        "xyz": [0.8814987963574796, 1.6399113810947712, 8.711728911777508]
      },
      {
        "species": [{ "element": "Zr", "occu": 1 }],
        "abc": [0.23832588000000002, 0.00821913, 0.34083215],
        "properties": { "magmom": 0.0 },
        "label": "Zr",
        "xyz": [1.8609544059400043, 0.0565555231756512, 5.850723681445158]
      },
      {
        "species": [{ "element": "Zr", "occu": 1 }],
        "abc": [0.34519249, 0.69038297, 0.75],
        "properties": { "magmom": 0.0 },
        "label": "Zr",
        "xyz": [8.333822287820425e-6, 4.750499147709053, 12.874497787500001]
      },
      {
        "species": [{ "element": "Zr", "occu": 1 }],
        "abc": [0.65480751, 0.34519249, 0.916667],
        "properties": { "magmom": 0.0 },
        "label": "Zr",
        "xyz": [3.8313864558208195, 2.3752564892215777, 15.735503017832352]
      },
      {
        "species": [{ "element": "Zr", "occu": 1 }],
        "abc": [0.69038297, 0.34519249, 0.583333],
        "properties": { "magmom": 0.0 },
        "label": "Zr",
        "xyz": [4.114049552465819, 2.3752564892215777, 10.01349255716765]
      },
      {
        "species": [{ "element": "Zr", "occu": 1 }],
        "abc": [0.30961703, 0.65480751, 0.083332999999999],
        "properties": { "magmom": 0.0 },
        "label": "Zr",
        "xyz": [-0.14132323246581935, 4.505705750778422, 1.430494032167633]
      },
      {
        "species": [{ "element": "Zr", "occu": 1 }],
        "abc": [0.34519249, 0.65480751, 0.416666999999999],
        "properties": { "magmom": 0.0 },
        "label": "Zr",
        "xyz": [0.14133986417918054, 4.505705750778422, 7.152504492832334]
      },
      {
        "species": [{ "element": "Zr", "occu": 1 }],
        "abc": [0.65480751, 0.30961703, 0.25],
        "properties": { "magmom": 0.0 },
        "label": "Zr",
        "xyz": [3.972717986177712, 2.130463092290947, 4.2914992625]
      },
      {
        "species": [{ "element": "Zr", "occu": 1 }],
        "abc": [0.25120851, -0.0, -0.0],
        "properties": { "magmom": 0.0 },
        "label": "Zr",
        "xyz": [1.9959650652493712, 0.0, 0.0]
      },
      {
        "species": [{ "element": "Zr", "occu": 1 }],
        "abc": [0.25120851, 0.25120851, 0.166666999999999],
        "properties": { "magmom": 0.0 },
        "label": "Zr",
        "xyz": [0.9979826594849831, 1.7285562716766623, 2.8610052303323332]
      },
      {
        "species": [{ "element": "Zr", "occu": 1 }],
        "abc": [-0.0, 0.74879149, 0.833333],
        "properties": { "magmom": 0.0 },
        "label": "Zr",
        "xyz": [-2.9747429042356117, 5.152405968323337, 14.30499181966765]
      },
      {
        "species": [{ "element": "Zr", "occu": 1 }],
        "abc": [0.0, 0.25120851, 0.333333],
        "properties": { "magmom": 0.0 },
        "label": "Zr",
        "xyz": [-0.9979824057643881, 1.7285562716766623, 5.721993294667651]
      },
      {
        "species": [{ "element": "Zr", "occu": 1 }],
        "abc": [0.74879149, 0.74879149, 0.666667],
        "properties": { "magmom": 0.0 },
        "label": "Zr",
        "xyz": [2.974743660515017, 5.152405968323337, 11.444003755332352]
      },
      {
        "species": [{ "element": "Zr", "occu": 1 }],
        "abc": [0.74879149, 0.0, 0.5],
        "properties": { "magmom": 0.0 },
        "label": "Zr",
        "xyz": [5.949486564750629, 0.0, 8.582998525]
      },
      {
        "species": [{ "element": "Zr", "occu": 1 }],
        "abc": [0.37596974, 0.75193848, 0.25],
        "properties": { "magmom": -0.0 },
        "label": "Zr",
        "xyz": [4.352454747724721e-6, 5.174060287682995, 4.2914992625]
      },
      {
        "species": [{ "element": "Zr", "occu": 1 }],
        "abc": [0.6240302600000001, 0.37596974, 0.416666999999999],
        "properties": { "magmom": -0.0 },
        "label": "Zr",
        "xyz": [3.464577744594205, 2.5870335843226173, 7.152504492832334]
      },
      {
        "species": [{ "element": "Zr", "occu": 1 }],
        "abc": [0.75193848, 0.37596974, 0.083332999999999],
        "properties": { "magmom": -0.0 },
        "label": "Zr",
        "xyz": [4.480866319683603, 2.5870335843226173, 1.430494032167633]
      },
      {
        "species": [{ "element": "Zr", "occu": 1 }],
        "abc": [0.24806152, 0.6240302600000001, 0.583333],
        "properties": { "magmom": -0.0 },
        "label": "Zr",
        "xyz": [-0.5081399996836033, 4.293928655677383, 10.01349255716765]
      },
      {
        "species": [{ "element": "Zr", "occu": 1 }],
        "abc": [0.37596974, 0.6240302600000001, 0.916667],
        "properties": { "magmom": -0.0 },
        "label": "Zr",
        "xyz": [0.5081485754057953, 4.293928655677383, 15.735503017832352]
      },
      {
        "species": [{ "element": "Zr", "occu": 1 }],
        "abc": [0.6240302600000001, 0.24806152, 0.75],
        "properties": { "magmom": -0.0 },
        "label": "Zr",
        "xyz": [3.9727219675452536, 1.7069019523170048, 12.874497787500001]
      },
      {
        "species": [{ "element": "Ir", "occu": 1 }],
        "abc": [0.41556639, 0.39393446, 0.02370812],
        "properties": { "magmom": -0.0 },
        "label": "Ir",
        "xyz": [1.736869251075533, 2.7106481442947903, 0.40697351798104603]
      },
      {
        "species": [{ "element": "Ir", "occu": 1 }],
        "abc": [0.60606554, 0.02163193, 0.35704112],
        "properties": { "magmom": -0.0 },
        "label": "Ir",
        "xyz": [4.729526716864682, 0.1488484935083232, 6.128966812648696]
      },
      {
        "species": [{ "element": "Ir", "occu": 1 }],
        "abc": [0.97836807, 0.58443361, 0.69037412],
        "properties": { "magmom": -0.0 },
        "label": "Ir",
        "xyz": [5.451781982059785, 4.021465602196886, 11.850960107316347]
      },
      {
        "species": [{ "element": "Ir", "occu": 1 }],
        "abc": [0.02163193, 0.41556639, 0.19037412],
        "properties": { "magmom": -0.0 },
        "label": "Ir",
        "xyz": [-1.479055662059785, 2.8594966378031135, 3.2679615823163464]
      },
      {
        "species": [{ "element": "Ir", "occu": 1 }],
        "abc": [0.58443361, 0.97836807, 0.64295888],
        "properties": { "magmom": -0.0 },
        "label": "Ir",
        "xyz": [0.7568013850164328, 6.7321137464916765, 11.037030237351305]
      },
      {
        "species": [{ "element": "Ir", "occu": 1 }],
        "abc": [0.58443361, 0.60606554, 0.52370812],
        "properties": { "magmom": -0.0 },
        "label": "Ir",
        "xyz": [2.2358570689244672, 4.170314095705209, 8.989972042981046]
      },
      {
        "species": [{ "element": "Ir", "occu": 1 }],
        "abc": [0.39393446, 0.97836807, 0.85704112],
        "properties": { "magmom": -0.0 },
        "label": "Ir",
        "xyz": [-0.7568003968646821, 6.7321137464916765, 14.711965337648698]
      },
      {
        "species": [{ "element": "Ir", "occu": 1 }],
        "abc": [0.60606554, 0.58443361, 0.80962588],
        "properties": { "magmom": -0.0 },
        "label": "Ir",
        "xyz": [2.493670238218161, 4.021465602196886, 13.898035467683655]
      },
      {
        "species": [{ "element": "Ir", "occu": 1 }],
        "abc": [0.97836807, 0.39393446, 0.47629188],
        "properties": { "magmom": -0.0 },
        "label": "Ir",
        "xyz": [6.208582776798272, 2.7106481442947903, 8.176025007018955]
      },
      {
        "species": [{ "element": "Ir", "occu": 1 }],
        "abc": [0.02163193, 0.60606554, 0.97629188],
        "properties": { "magmom": -0.0 },
        "label": "Ir",
        "xyz": [-2.2358564567982717, 4.170314095705209, 16.759023532018954]
      },
      {
        "species": [{ "element": "Ir", "occu": 1 }],
        "abc": [0.39393446, 0.41556639, 0.30962588],
        "properties": { "magmom": -0.0 },
        "label": "Ir",
        "xyz": [1.479056081781839, 2.8594966378031135, 5.315036942683655]
      },
      {
        "species": [{ "element": "Ir", "occu": 1 }],
        "abc": [0.41556639, 0.02163193, 0.14295888],
        "properties": { "magmom": -0.0 },
        "label": "Ir",
        "xyz": [3.2159249349835672, 0.1488484935083232, 2.4540317123513042]
      },
      {
        "species": [{ "element": "Ir", "occu": 1 }],
        "abc": [0.38217673, -0.0, 0.5],
        "properties": { "magmom": -0.0 },
        "label": "Ir",
        "xyz": [3.03656672232657, 0.0, 8.582998525]
      },
      {
        "species": [{ "element": "Ir", "occu": 1 }],
        "abc": [0.38217673, 0.38217673, 0.666667],
        "properties": { "magmom": -0.0 },
        "label": "Ir",
        "xyz": [1.518283554162534, 2.6297436481366754, 11.444003755332352]
      },
      {
        "species": [{ "element": "Ir", "occu": 1 }],
        "abc": [-0.0, 0.61782327, 0.333333],
        "properties": { "magmom": -0.0 },
        "label": "Ir",
        "xyz": [-2.4544421418359637, 4.251218591863325, 5.721993294667651]
      },
      {
        "species": [{ "element": "Ir", "occu": 1 }],
        "abc": [0.0, 0.38217673, 0.833333],
        "properties": { "magmom": -0.0 },
        "label": "Ir",
        "xyz": [-1.5182831681640363, 2.6297436481366754, 14.30499181966765]
      },
      {
        "species": [{ "element": "Ir", "occu": 1 }],
        "abc": [0.61782327, 0.61782327, 0.166666999999999],
        "properties": { "magmom": -0.0 },
        "label": "Ir",
        "xyz": [2.4544427658374666, 4.251218591863325, 2.8610052303323332]
      },
      {
        "species": [{ "element": "Ir", "occu": 1 }],
        "abc": [0.61782327, 0.0, -0.0],
        "properties": { "magmom": -0.0 },
        "label": "Ir",
        "xyz": [4.90888490767343, 0.0, 0.0]
      }
    ]
  },
  "task_ids": null,
  "uncorrected_energy_per_atom": null,
  "energy_per_atom": -34.712019598333335,
  "formation_energy_per_atom": -0.8586421139583341,
  "energy_above_hull": 0.0,
  "is_stable": true,
  "equilibrium_reaction_energy_per_atom": null,
  "decomposes_to": null,
  "xas": null,
  "grain_boundaries": null,
  "band_gap": 0.0,
  "cbm": null,
  "vbm": null,
  "efermi": 5.78162856,
  "is_gap_direct": null,
  "is_metal": null,
  "es_source_calc_id": null,
  "bandstructure": null,
  "dos": null,
  "dos_energy_up": null,
  "dos_energy_down": null,
  "is_magnetic": null,
  "ordering": null,
  "total_magnetization": 1.5e-6,
  "total_magnetization_normalized_vol": null,
  "total_magnetization_normalized_formula_units": null,
  "num_magnetic_sites": null,
  "num_unique_magnetic_sites": null,
  "types_of_magnetic_species": null,
  "bulk_modulus": null,
  "shear_modulus": null,
  "universal_anisotropy": null,
  "homogeneous_poisson": null,
  "e_total": null,
  "e_ionic": null,
  "e_electronic": null,
  "n": null,
  "e_ij_max": null,
  "weighted_surface_energy_EV_PER_ANG2": null,
  "weighted_surface_energy": null,
  "weighted_work_function": null,
  "surface_anisotropy": null,
  "shape_factor": null,
  "has_reconstructed": null,
  "possible_species": null,
  "has_props": null,
  "theoretical": null,
  "database_IDs": null,
  "fields_not_requested": [
    "builder_meta",
    "nsites",
    "elements",
    "nelements",
    "composition",
    "composition_reduced",
    "chemsys",
    "symmetry",
    "property_name",
    "deprecated",
    "deprecation_reasons",
    "last_updated",
    "origins",
    "warnings",
    "task_ids",
    "uncorrected_energy_per_atom",
    "equilibrium_reaction_energy_per_atom",
    "decomposes_to",
    "xas",
    "grain_boundaries",
    "cbm",
    "vbm",
    "is_gap_direct",
    "is_metal",
    "es_source_calc_id",
    "bandstructure",
    "dos",
    "dos_energy_up",
    "dos_energy_down",
    "is_magnetic",
    "ordering",
    "total_magnetization_normalized_vol",
    "total_magnetization_normalized_formula_units",
    "num_magnetic_sites",
    "num_unique_magnetic_sites",
    "types_of_magnetic_species",
    "bulk_modulus",
    "shear_modulus",
    "universal_anisotropy",
    "homogeneous_poisson",
    "e_total",
    "e_ionic",
    "e_electronic",
    "n",
    "e_ij_max",
    "weighted_surface_energy_EV_PER_ANG2",
    "weighted_surface_energy",
    "weighted_work_function",
    "surface_anisotropy",
    "shape_factor",
    "has_reconstructed",
    "possible_species",
    "has_props",
    "theoretical",
    "database_IDs"
  ]
}
