{"builder_meta": null, "nsites": null, "elements": null, "nelements": null, "composition": null, "composition_reduced": null, "formula_pretty": "Zr5Pt3", "formula_anonymous": "A3B5", "chemsys": null, "volume": 323.20240969498775, "density": 10.700655917109595, "density_atomic": 20.200150605936734, "symmetry": null, "property_name": null, "material_id": "mp-1188953", "deprecated": null, "deprecation_reasons": null, "last_updated": null, "origins": null, "warnings": null, "structure": {"@module": "pymatgen.core.structure", "@class": "Structure", "charge": 0, "lattice": {"matrix": [[0.0, 0.0, -5.43719], [-4.146586, -7.182097, 0.0], [-4.134112, 7.174895, 0.0]], "pbc": [true, true, true], "a": 5.43719, "b": 8.29317145444401, "c": 8.28070047094864, "alpha": 120.04982631392252, "beta": 90.0, "gamma": 90.0, "volume": 323.20240969498775}, "properties": {}, "sites": [{"species": [{"element": "Zr", "occu": 1}], "abc": [0.5, 0.333345, 0.666739], "properties": {"magmom": 0.001}, "label": "Zr", "xyz": [-4.138617410938, 2.3896661929399996, -2.718595]}, {"species": [{"element": "Zr", "occu": 1}], "abc": [0.5, 0.666605999999999, 0.333261], "properties": {"magmom": 0.001}, "label": "Zr", "xyz": [-4.141877406347996, -2.396516270186993, -2.718595]}, {"species": [{"element": "Zr", "occu": 1}], "abc": [0.0, 0.666655, 0.333261], "properties": {"magmom": 0.001}, "label": "Zr", "xyz": [-4.142080589062, -2.3968681929400004, 0.0]}, {"species": [{"element": "Zr", "occu": 1}], "abc": [0.0, 0.333393999999999, 0.666739], "properties": {"magmom": 0.001}, "label": "Zr", "xyz": [-4.138820593651996, 2.3893142701870067, 0.0]}, {"species": [{"element": "Zr", "occu": 1}], "abc": [0.750008, 0.245161, 0.0], "properties": {"magmom": 0.0}, "label": "Zr", "xyz": [-1.016581170346, -1.7607700826169999, -4.07793599752]}, {"species": [{"element": "Zr", "occu": 1}], "abc": [0.749996, 0.7546700000000001, 0.754807999999999], "properties": {"magmom": 0.0}, "label": "Zr", "xyz": [-6.249764867115997, -0.004444997830006514, -4.07787075124]}, {"species": [{"element": "Zr", "occu": 1}], "abc": [0.749996, 0.999861, 0.245192], "properties": {"magmom": 0.0}, "label": "Zr", "xyz": [-5.1596608140499995, -5.421871833676999, -4.07787075124]}, {"species": [{"element": "Zr", "occu": 1}], "abc": [0.250008, 0.754838999999999, 0.0], "properties": {"magmom": 0.0}, "label": "Zr", "xyz": [-3.130004829653996, -5.421326917382993, -1.3593409975200001]}, {"species": [{"element": "Zr", "occu": 1}], "abc": [0.249996, 0.24533000000000002, 0.245192], "properties": {"magmom": 0.0}, "label": "Zr", "xyz": [-2.030933132884, -0.002757002170000078, -1.35927575124]}, {"species": [{"element": "Zr", "occu": 1}], "abc": [0.249996, 0.000139, 0.754807999999999], "properties": {"magmom": 0.0}, "label": "Zr", "xyz": [-3.121037185949996, 5.414669833676993, -1.35927575124]}, {"species": [{"element": "Pt", "occu": 1}], "abc": [0.749989, 0.607193, 0.0], "properties": {"magmom": 0.0}, "label": "Pt", "xyz": [-2.517777993098, -4.360919023720999, -4.07783269091]}, {"species": [{"element": "Pt", "occu": 1}], "abc": [0.750004999999999, 0.393196999999999, 0.392966], "properties": {"magmom": 0.0}, "label": "Pt", "xyz": [-3.254990631633996, -0.004489205538992902, -4.077919685949995]}, {"species": [{"element": "Pt", "occu": 1}], "abc": [0.750004999999999, 0.00023099999999900002, 0.607034], "properties": {"magmom": 0.0}, "label": "Pt", "xyz": [-2.5105044051739958, 4.353746147023007, -4.077919685949995]}, {"species": [{"element": "Pt", "occu": 1}], "abc": [0.249989, 0.392806999999999, 0.0], "properties": {"magmom": 0.0}, "label": "Pt", "xyz": [-1.628808006901996, -2.821177976278993, -1.35923769091]}, {"species": [{"element": "Pt", "occu": 1}], "abc": [0.250005, 0.606803, 0.607034], "properties": {"magmom": 0.0}, "label": "Pt", "xyz": [-5.025707368366, -0.0027127944609999233, -1.35932468595]}, {"species": [{"element": "Pt", "occu": 1}], "abc": [0.250005, 0.9997689999999991, 0.392966], "properties": {"magmom": 0.0}, "label": "Pt", "xyz": [-5.770193594825996, -4.360948147022993, -1.35932468595]}]}, "task_ids": null, "uncorrected_energy_per_atom": null, "energy_per_atom": -34.450121708750004, "formation_energy_per_atom": -0.9236079306250031, "energy_above_hull": 4.6259374997248435e-05, "is_stable": false, "equilibrium_reaction_energy_per_atom": null, "decomposes_to": null, "xas": null, "grain_boundaries": null, "band_gap": 0.0, "cbm": null, "vbm": null, "efermi": 5.43690968, "is_gap_direct": null, "is_metal": null, "es_source_calc_id": null, "bandstructure": null, "dos": null, "dos_energy_up": null, "dos_energy_down": null, "is_magnetic": null, "ordering": null, "total_magnetization": 0.018092499999999002, "total_magnetization_normalized_vol": null, "total_magnetization_normalized_formula_units": null, "num_magnetic_sites": null, "num_unique_magnetic_sites": null, "types_of_magnetic_species": null, "bulk_modulus": null, "shear_modulus": null, "universal_anisotropy": null, "homogeneous_poisson": null, "e_total": null, "e_ionic": null, "e_electronic": null, "n": null, "e_ij_max": null, "weighted_surface_energy_EV_PER_ANG2": null, "weighted_surface_energy": null, "weighted_work_function": null, "surface_anisotropy": null, "shape_factor": null, "has_reconstructed": null, "possible_species": null, "has_props": null, "theoretical": null, "database_IDs": null, "fields_not_requested": ["builder_meta", "nsites", "elements", "nelements", "composition", "composition_reduced", "chemsys", "symmetry", "property_name", "deprecated", "deprecation_reasons", "last_updated", "origins", "warnings", "task_ids", "uncorrected_energy_per_atom", "equilibrium_reaction_energy_per_atom", "decomposes_to", "xas", "grain_boundaries", "cbm", "vbm", "is_gap_direct", "is_metal", "es_source_calc_id", "bandstructure", "dos", "dos_energy_up", "dos_energy_down", "is_magnetic", "ordering", "total_magnetization_normalized_vol", "total_magnetization_normalized_formula_units", "num_magnetic_sites", "num_unique_magnetic_sites", "types_of_magnetic_species", "bulk_modulus", "shear_modulus", "universal_anisotropy", "homogeneous_poisson", "e_total", "e_ionic", "e_electronic", "n", "e_ij_max", "weighted_surface_energy_EV_PER_ANG2", "weighted_surface_energy", "weighted_work_function", "surface_anisotropy", "shape_factor", "has_reconstructed", "possible_species", "has_props", "theoretical", "database_IDs"]}