{
  "builder_meta": null,
  "nsites": null,
  "elements": null,
  "nelements": null,
  "composition": null,
  "composition_reduced": null,
  "formula_pretty": "Zr5Pb3",
  "formula_anonymous": "A3B5",
  "chemsys": null,
  "volume": 378.2404805619809,
  "density": 9.462742645616414,
  "density_atomic": 23.640030035123807,
  "symmetry": null,
  "property_name": null,
  "material_id": "mp-681992",
  "deprecated": null,
  "deprecation_reasons": null,
  "last_updated": null,
  "origins": null,
  "warnings": null,
  "structure": {
    "@module": "pymatgen.core.structure",
    "@class": "Structure",
    "charge": 0,
    "lattice": {
      "matrix": [
        [8.62223888, -2.4900000000000006e-5, -3.0520000000000006e-5],
        [-4.31114108, 7.46697617, -2.7e-7],
        [-1.04e-5, -8.085000000000001e-5, 5.87494648]
      ],
      "pbc": [true, true, true],
      "a": 8.622238880089968,
      "b": 8.622161592954026,
      "c": 5.874946480565527,
      "alpha": 90.00063393336687,
      "beta": 90.0003042333145,
      "gamma": 120.00062803106684,
      "volume": 378.2404805619809
    },
    "properties": {},
    "sites": [
      {
        "species": [{ "element": "Zr", "occu": 1 }],
        "abc": [0.75130096, 0.75130339, 0.2500228],
        "properties": { "magmom": 0.0 },
        "label": "Zr",
        "xyz": [3.238918839483943, 5.609925587832932, 1.4688474362225297]
      },
      {
        "species": [{ "element": "Zr", "occu": 1 }],
        "abc": [7.99e-6, 0.24870346000000002, 0.24997377],
        "properties": { "magmom": 0.0 },
        "label": "Zr",
        "xyz": [-1.0721294111826936, 1.8570425986382926, 1.4685824527600406]
      },
      {
        "species": [{ "element": "Zr", "occu": 1 }],
        "abc": [0.7514269100000001, 0.9999922800000001, 0.75000792],
        "properties": { "magmom": -0.0 },
        "label": "Zr",
        "xyz": [2.1678667208070306, 7.466839176273577, 4.4062331860289135]
      },
      {
        "species": [{ "element": "Zr", "occu": 1 }],
        "abc": [0.33333717, 0.66666631, 0.49998864],
        "properties": { "magmom": 0.0 },
        "label": "Zr",
        "xyz": [1.4991748298986485e-5, 4.977932725934755, 2.937396147157655]
      },
      {
        "species": [{ "element": "Zr", "occu": 1 }],
        "abc": [0.24871082, 0.99999943, 0.25000094],
        "properties": { "magmom": -0.0 },
        "label": "Zr",
        "xyz": [-2.1666971205786787, 7.466945508348166, 1.4687342817956188]
      },
      {
        "species": [{ "element": "Zr", "occu": 1 }],
        "abc": [0.66666218, 0.33333568, 0.49998787],
        "properties": { "magmom": 0.0 },
        "label": "Zr",
        "xyz": [4.311058224869975, 2.488952555263174, 2.937381540368831]
      },
      {
        "species": [{ "element": "Zr", "occu": 1 }],
        "abc": [2.84e-6, 0.7514419, 0.7500093600000001],
        "properties": { "magmom": -0.0 },
        "label": "Zr",
        "xyz": [-3.2395553572621765, 5.61093812211205, 4.406264646523064]
      },
      {
        "species": [{ "element": "Zr", "occu": 1 }],
        "abc": [0.33332862, 0.66666644, 1.15e-5],
        "properties": { "magmom": -0.0 },
        "label": "Zr",
        "xyz": [-5.408908020909996e-5, 4.977974120006321, 5.720869509880001e-5]
      },
      {
        "species": [{ "element": "Zr", "occu": 1 }],
        "abc": [0.24855307000000001, 0.24856199, 0.7499847900000001],
        "properties": { "magmom": -0.0 },
        "label": "Zr",
        "xyz": [1.0714903380399963, 1.8559396308560636, 4.406112849112606]
      },
      {
        "species": [{ "element": "Zr", "occu": 1 }],
        "abc": [0.66667088, 0.33333299, 1.234e-5],
        "properties": { "magmom": -0.0 },
        "label": "Zr",
        "xyz": [4.311150035063249, 2.488972891902247, 5.20600443983e-5]
      },
      {
        "species": [{ "element": "Pb", "occu": 1 }],
        "abc": [0.60982686, 0.6097867100000001, 0.7500160300000001],
        "properties": { "magmom": -0.0 },
        "label": "Pb",
        "xyz": [2.629188526674557, 4.553187008867861, 4.406285258833896]
      },
      {
        "species": [{ "element": "Pb", "occu": 1 }],
        "abc": [0.39020863, 4.145e-5, 0.750002899999999],
        "properties": { "magmom": -0.0 },
        "label": "Pb",
        "xyz": [3.364285524069608, 0.00023915223289450003, 4.406214988166207]
      },
      {
        "species": [{ "element": "Pb", "occu": 1 }],
        "abc": [0.60991365, 4.9480000000000014e-5, 0.25000481],
        "properties": { "magmom": -0.0 },
        "label": "Pb",
        "xyz": [5.258605271162049, 0.0003340662421181001, 1.4687462639146112]
      },
      {
        "species": [{ "element": "Pb", "occu": 1 }],
        "abc": [-4.4130000000000006e-5, 0.39016895, 0.749980299999999],
        "properties": { "magmom": -0.0 },
        "label": "Pb",
        "xyz": [-1.6824616876823604, 2.913321617115504, 4.40609401955557]
      },
      {
        "species": [{ "element": "Pb", "occu": 1 }],
        "abc": [0.39014033000000004, 0.39009116, 0.24999032000000002],
        "properties": { "magmom": 0.0 },
        "label": "Pb",
        "xyz": [1.68214249726185, 2.9127714696360676, 1.468667738110589]
      },
      {
        "species": [{ "element": "Pb", "occu": 1 }],
        "abc": [-4.7780000000000034e-5, 0.60986138, 0.25000571],
        "properties": { "magmom": 0.0 },
        "label": "Pb",
        "xyz": [-2.6296130190565603, 4.5538001796913825, 1.4687700027400739]
      }
    ]
  },
  "task_ids": null,
  "uncorrected_energy_per_atom": null,
  "energy_per_atom": -35.700803486875,
  "formation_energy_per_atom": -0.37525825500000504,
  "energy_above_hull": 0.0,
  "is_stable": true,
  "equilibrium_reaction_energy_per_atom": null,
  "decomposes_to": null,
  "xas": null,
  "grain_boundaries": null,
  "band_gap": 0.0,
  "cbm": null,
  "vbm": null,
  "efermi": 5.3343174300000005,
  "is_gap_direct": null,
  "is_metal": null,
  "es_source_calc_id": null,
  "bandstructure": null,
  "dos": null,
  "dos_energy_up": null,
  "dos_energy_down": null,
  "is_magnetic": null,
  "ordering": null,
  "total_magnetization": 2.6e-6,
  "total_magnetization_normalized_vol": null,
  "total_magnetization_normalized_formula_units": null,
  "num_magnetic_sites": null,
  "num_unique_magnetic_sites": null,
  "types_of_magnetic_species": null,
  "bulk_modulus": null,
  "shear_modulus": null,
  "universal_anisotropy": null,
  "homogeneous_poisson": null,
  "e_total": null,
  "e_ionic": null,
  "e_electronic": null,
  "n": null,
  "e_ij_max": null,
  "weighted_surface_energy_EV_PER_ANG2": null,
  "weighted_surface_energy": null,
  "weighted_work_function": null,
  "surface_anisotropy": null,
  "shape_factor": null,
  "has_reconstructed": null,
  "possible_species": null,
  "has_props": null,
  "theoretical": null,
  "database_IDs": null,
  "fields_not_requested": [
    "builder_meta",
    "nsites",
    "elements",
    "nelements",
    "composition",
    "composition_reduced",
    "chemsys",
    "symmetry",
    "property_name",
    "deprecated",
    "deprecation_reasons",
    "last_updated",
    "origins",
    "warnings",
    "task_ids",
    "uncorrected_energy_per_atom",
    "equilibrium_reaction_energy_per_atom",
    "decomposes_to",
    "xas",
    "grain_boundaries",
    "cbm",
    "vbm",
    "is_gap_direct",
    "is_metal",
    "es_source_calc_id",
    "bandstructure",
    "dos",
    "dos_energy_up",
    "dos_energy_down",
    "is_magnetic",
    "ordering",
    "total_magnetization_normalized_vol",
    "total_magnetization_normalized_formula_units",
    "num_magnetic_sites",
    "num_unique_magnetic_sites",
    "types_of_magnetic_species",
    "bulk_modulus",
    "shear_modulus",
    "universal_anisotropy",
    "homogeneous_poisson",
    "e_total",
    "e_ionic",
    "e_electronic",
    "n",
    "e_ij_max",
    "weighted_surface_energy_EV_PER_ANG2",
    "weighted_surface_energy",
    "weighted_work_function",
    "surface_anisotropy",
    "shape_factor",
    "has_reconstructed",
    "possible_species",
    "has_props",
    "theoretical",
    "database_IDs"
  ]
}
