{
  "builder_meta": null,
  "nsites": null,
  "elements": null,
  "nelements": null,
  "composition": null,
  "composition_reduced": null,
  "formula_pretty": "Zr5Sn",
  "formula_anonymous": "AB5",
  "chemsys": null,
  "volume": 138.1191284676115,
  "density": 6.9109013519261495,
  "density_atomic": 23.019854744601915,
  "symmetry": null,
  "property_name": null,
  "material_id": "mp-1094254",
  "deprecated": null,
  "deprecation_reasons": null,
  "last_updated": null,
  "origins": null,
  "warnings": null,
  "structure": {
    "@module": "pymatgen.core.structure",
    "@class": "Structure",
    "charge": 0,
    "lattice": {
      "matrix": [
        [2.783251, -4.820732, 0.0],
        [2.783251, 4.820732, 0.0],
        [0.0, 0.0, 5.147051]
      ],
      "pbc": [true, true, true],
      "a": 5.566501876836564,
      "b": 5.566501876836564,
      "c": 5.147051,
      "alpha": 90.0,
      "beta": 90.0,
      "gamma": 119.99999853616733,
      "volume": 138.1191284676115
    },
    "properties": {},
    "sites": [
      {
        "species": [{ "element": "Zr", "occu": 1 }],
        "abc": [0.666667, 0.333333, 0.0],
        "properties": { "magmom": 0.0 },
        "label": "Zr",
        "xyz": [2.783251, -1.606913880488, 0.0]
      },
      {
        "species": [{ "element": "Zr", "occu": 1 }],
        "abc": [0.333333, 0.666667, 0.0],
        "properties": { "magmom": 0.0 },
        "label": "Zr",
        "xyz": [2.783251, 1.606913880488, 0.0]
      },
      {
        "species": [{ "element": "Zr", "occu": 1 }],
        "abc": [0.0, 0.323061, 0.5],
        "properties": { "magmom": -0.0 },
        "label": "Zr",
        "xyz": [0.899159851311, 1.557390500652, 2.5735255]
      },
      {
        "species": [{ "element": "Zr", "occu": 1 }],
        "abc": [0.676939, 0.676939, 0.5],
        "properties": { "magmom": -0.0 },
        "label": "Zr",
        "xyz": [3.7681822973779995, 0.0, 2.5735255]
      },
      {
        "species": [{ "element": "Zr", "occu": 1 }],
        "abc": [0.323061, 0.0, 0.5],
        "properties": { "magmom": -0.0 },
        "label": "Zr",
        "xyz": [0.899159851311, -1.557390500652, 2.5735255]
      },
      {
        "species": [{ "element": "Sn", "occu": 1 }],
        "abc": [0.0, 0.0, 0.0],
        "properties": { "magmom": 0.0 },
        "label": "Sn",
        "xyz": [0.0, 0.0, 0.0]
      }
    ]
  },
  "task_ids": null,
  "uncorrected_energy_per_atom": null,
  "energy_per_atom": -23.300734100833335,
  "formation_energy_per_atom": -0.218210216666667,
  "energy_above_hull": 0.06641295916666501,
  "is_stable": false,
  "equilibrium_reaction_energy_per_atom": null,
  "decomposes_to": null,
  "xas": null,
  "grain_boundaries": null,
  "band_gap": 0.0,
  "cbm": null,
  "vbm": null,
  "efermi": 5.31954337,
  "is_gap_direct": null,
  "is_metal": null,
  "es_source_calc_id": null,
  "bandstructure": null,
  "dos": null,
  "dos_energy_up": null,
  "dos_energy_down": null,
  "is_magnetic": null,
  "ordering": null,
  "total_magnetization": 7.04e-5,
  "total_magnetization_normalized_vol": null,
  "total_magnetization_normalized_formula_units": null,
  "num_magnetic_sites": null,
  "num_unique_magnetic_sites": null,
  "types_of_magnetic_species": null,
  "bulk_modulus": null,
  "shear_modulus": null,
  "universal_anisotropy": null,
  "homogeneous_poisson": null,
  "e_total": null,
  "e_ionic": null,
  "e_electronic": null,
  "n": null,
  "e_ij_max": null,
  "weighted_surface_energy_EV_PER_ANG2": null,
  "weighted_surface_energy": null,
  "weighted_work_function": null,
  "surface_anisotropy": null,
  "shape_factor": null,
  "has_reconstructed": null,
  "possible_species": null,
  "has_props": null,
  "theoretical": null,
  "database_IDs": null,
  "fields_not_requested": [
    "builder_meta",
    "nsites",
    "elements",
    "nelements",
    "composition",
    "composition_reduced",
    "chemsys",
    "symmetry",
    "property_name",
    "deprecated",
    "deprecation_reasons",
    "last_updated",
    "origins",
    "warnings",
    "task_ids",
    "uncorrected_energy_per_atom",
    "equilibrium_reaction_energy_per_atom",
    "decomposes_to",
    "xas",
    "grain_boundaries",
    "cbm",
    "vbm",
    "is_gap_direct",
    "is_metal",
    "es_source_calc_id",
    "bandstructure",
    "dos",
    "dos_energy_up",
    "dos_energy_down",
    "is_magnetic",
    "ordering",
    "total_magnetization_normalized_vol",
    "total_magnetization_normalized_formula_units",
    "num_magnetic_sites",
    "num_unique_magnetic_sites",
    "types_of_magnetic_species",
    "bulk_modulus",
    "shear_modulus",
    "universal_anisotropy",
    "homogeneous_poisson",
    "e_total",
    "e_ionic",
    "e_electronic",
    "n",
    "e_ij_max",
    "weighted_surface_energy_EV_PER_ANG2",
    "weighted_surface_energy",
    "weighted_work_function",
    "surface_anisotropy",
    "shape_factor",
    "has_reconstructed",
    "possible_species",
    "has_props",
    "theoretical",
    "database_IDs"
  ]
}
