{"builder_meta": null, "nsites": null, "elements": null, "nelements": null, "composition": null, "composition_reduced": null, "formula_pretty": "Zr5Sn4", "formula_anonymous": "A4B5", "chemsys": null, "volume": 401.90211138043975, "density": 7.692895387546717, "density_atomic": 22.327895076691096, "symmetry": null, "property_name": null, "material_id": "mp-543001", "deprecated": null, "deprecation_reasons": null, "last_updated": null, "origins": null, "warnings": null, "structure": {"@module": "pymatgen.core.structure", "@class": "Structure", "charge": 0, "lattice": {"matrix": [[8.82772051, -2e-08, -0.0], [-4.41386178, 7.64503101, -0.0], [-0.0, 0.0, 5.9551466699999995]], "pbc": [true, true, true], "a": 8.82772051, "b": 8.827721957379854, "c": 5.9551466699999995, "alpha": 90.0, "beta": 90.0, "gamma": 120.00000613523686, "volume": 401.9021113804397}, "properties": {}, "sites": [{"species": [{"element": "Zr", "occu": 1}], "abc": [0.333333, 0.666667, -0.0], "properties": {"magmom": -0.0}, "label": "Zr", "xyz": [-5.430527430405618e-06, 5.09668988167701, 0.0]}, {"species": [{"element": "Zr", "occu": 1}], "abc": [0.666667, 0.333333, 0.5], "properties": {"magmom": -0.0}, "label": "Zr", "xyz": [4.41386416052743, 2.54834110832299, 2.9775733349999998]}, {"species": [{"element": "Zr", "occu": 1}], "abc": [0.666667, 0.333333, 0.0], "properties": {"magmom": -0.0}, "label": "Zr", "xyz": [4.41386416052743, 2.54834110832299, 0.0]}, {"species": [{"element": "Zr", "occu": 1}], "abc": [0.333333, 0.666667, 0.5], "properties": {"magmom": -0.0}, "label": "Zr", "xyz": [-5.430527430405618e-06, 5.09668988167701, 2.9775733349999998]}, {"species": [{"element": "Zr", "occu": 1}], "abc": [0.27983358, 0.0, 0.25], "properties": {"magmom": -0.0}, "label": "Zr", "xyz": [2.4702926335527264, -5.596671600000001e-09, 1.4887866674999999]}, {"species": [{"element": "Zr", "occu": 1}], "abc": [0.27983358, 0.27983358, 0.75], "properties": {"magmom": -0.0}, "label": "Zr", "xyz": [1.2351458900301537, 2.1393363911426446, 4.4663600025]}, {"species": [{"element": "Zr", "occu": 1}], "abc": [1.0, 0.72016642, 0.75], "properties": {"magmom": -0.0}, "label": "Zr", "xyz": [5.649005473522573, 5.505694593260684, 4.4663600025]}, {"species": [{"element": "Zr", "occu": 1}], "abc": [0.0, 0.27983358, 0.25], "properties": {"magmom": -0.0}, "label": "Zr", "xyz": [-1.2351467435225727, 2.139336396739316, 1.4887866674999999]}, {"species": [{"element": "Zr", "occu": 1}], "abc": [0.72016642, 0.72016642, 0.25], "properties": {"magmom": -0.0}, "label": "Zr", "xyz": [3.1787128399698465, 5.505694598857356, 1.4887866674999999]}, {"species": [{"element": "Zr", "occu": 1}], "abc": [0.72016642, 1.0, 0.75], "properties": {"magmom": -0.0}, "label": "Zr", "xyz": [1.9435660964472738, 7.645030995596672, 4.4663600025]}, {"species": [{"element": "Sn", "occu": 1}], "abc": [0.0, -0.0, -0.0], "properties": {"magmom": -0.0}, "label": "Sn", "xyz": [0.0, 0.0, 0.0]}, {"species": [{"element": "Sn", "occu": 1}], "abc": [0.0, -0.0, 0.5], "properties": {"magmom": -0.0}, "label": "Sn", "xyz": [0.0, 0.0, 2.9775733349999998]}, {"species": [{"element": "Sn", "occu": 1}], "abc": [0.61290093, 1.0, 0.25], "properties": {"magmom": -0.0}, "label": "Sn", "xyz": [0.9966563303590741, 7.645030997741982, 1.4887866674999999]}, {"species": [{"element": "Sn", "occu": 1}], "abc": [0.61290093, 0.61290093, 0.75], "properties": {"magmom": -0.0}, "label": "Sn", "xyz": [2.705258120505619, 4.685646603649821, 4.4663600025]}, {"species": [{"element": "Sn", "occu": 1}], "abc": [0.0, 0.38709807, 0.75], "properties": {"magmom": -0.0}, "label": "Sn", "xyz": [-1.7085973762847648, 2.959376749061151, 4.4663600025]}, {"species": [{"element": "Sn", "occu": 1}], "abc": [1.0, 0.61290093, 0.25], "properties": {"magmom": -0.0}, "label": "Sn", "xyz": [6.122460520146545, 4.68564659590784, 1.4887866674999999]}, {"species": [{"element": "Sn", "occu": 1}], "abc": [0.38709807, 0.38709807, 0.25], "properties": {"magmom": -0.0}, "label": "Sn", "xyz": [1.7085961956356512, 2.95937674131919, 1.4887866674999999]}, {"species": [{"element": "Sn", "occu": 1}], "abc": [0.38709807, 0.0, 0.75], "properties": {"magmom": -0.0}, "label": "Sn", "xyz": [3.417193571920416, -7.7419614e-09, 4.4663600025]}]}, "task_ids": null, "uncorrected_energy_per_atom": null, "energy_per_atom": -24.294081501666668, "formation_energy_per_atom": -0.6570043188888891, "energy_above_hull": 0.0, "is_stable": true, "equilibrium_reaction_energy_per_atom": null, "decomposes_to": null, "xas": null, "grain_boundaries": null, "band_gap": 0.0, "cbm": null, "vbm": null, "efermi": 6.86746087, "is_gap_direct": null, "is_metal": null, "es_source_calc_id": null, "bandstructure": null, "dos": null, "dos_energy_up": null, "dos_energy_down": null, "is_magnetic": null, "ordering": null, "total_magnetization": 4e-07, "total_magnetization_normalized_vol": null, "total_magnetization_normalized_formula_units": null, "num_magnetic_sites": null, "num_unique_magnetic_sites": null, "types_of_magnetic_species": null, "bulk_modulus": null, "shear_modulus": null, "universal_anisotropy": null, "homogeneous_poisson": null, "e_total": null, "e_ionic": null, "e_electronic": null, "n": null, "e_ij_max": null, "weighted_surface_energy_EV_PER_ANG2": null, "weighted_surface_energy": null, "weighted_work_function": null, "surface_anisotropy": null, "shape_factor": null, "has_reconstructed": null, "possible_species": null, "has_props": null, "theoretical": null, "database_IDs": null, "fields_not_requested": ["builder_meta", "nsites", "elements", "nelements", "composition", "composition_reduced", "chemsys", "symmetry", "property_name", "deprecated", "deprecation_reasons", "last_updated", "origins", "warnings", "task_ids", "uncorrected_energy_per_atom", "equilibrium_reaction_energy_per_atom", "decomposes_to", "xas", "grain_boundaries", "cbm", "vbm", "is_gap_direct", "is_metal", "es_source_calc_id", "bandstructure", "dos", "dos_energy_up", "dos_energy_down", "is_magnetic", "ordering", "total_magnetization_normalized_vol", "total_magnetization_normalized_formula_units", "num_magnetic_sites", "num_unique_magnetic_sites", "types_of_magnetic_species", "bulk_modulus", "shear_modulus", "universal_anisotropy", "homogeneous_poisson", "e_total", "e_ionic", "e_electronic", "n", "e_ij_max", "weighted_surface_energy_EV_PER_ANG2", "weighted_surface_energy", "weighted_work_function", "surface_anisotropy", "shape_factor", "has_reconstructed", "possible_species", "has_props", "theoretical", "database_IDs"]}