{"builder_meta": null, "nsites": null, "elements": null, "nelements": null, "composition": null, "composition_reduced": null, "formula_pretty": "Zr5Se8", "formula_anonymous": "A5B8", "chemsys": null, "volume": 328.34842580961276, "density": 5.501273204503962, "density_atomic": 25.25757121612406, "symmetry": null, "property_name": null, "material_id": "mp-1215359", "deprecated": null, "deprecation_reasons": null, "last_updated": null, "origins": null, "warnings": null, "structure": {"@module": "pymatgen.core.structure", "@class": "Structure", "charge": 0, "lattice": {"matrix": [[-1.9175900000000001, -3.321363, 0.0], [1.9175900000000001, -3.321363, 0.0], [1.9175900000000001, 1.107121, 25.777028]], "pbc": [true, true, true], "a": 3.8351797331896975, "b": 3.8351797331896975, "c": 25.87195471605354, "alpha": 89.99999960608298, "beta": 94.25057394622962, "gamma": 60.00000460265985, "volume": 328.3484258096128}, "properties": {}, "sites": [{"species": [{"element": "Zr", "occu": 1}], "abc": [0.750019, 0.124990999999999, 0.625027999999999], "properties": {"magmom": 0.002}, "label": "Zr", "xyz": [-3.774758283725532e-15, -2.214244214241998, 16.111364256783975]}, {"species": [{"element": "Zr", "occu": 1}], "abc": [0.249037999999999, 0.375481, 0.873556999999999], "properties": {"magmom": 0.039}, "label": "Zr", "xyz": [1.9175900000000001, -1.1071209999999978, 22.517703248595975]}, {"species": [{"element": "Zr", "occu": 1}], "abc": [0.750962, 0.624518999999999, 0.126443], "properties": {"magmom": 0.039}, "label": "Zr", "xyz": [-1.942890293094024e-15, -4.4284839999999965, 3.2593247514040002]}, {"species": [{"element": "Zr", "occu": 1}], "abc": [0.249980999999999, 0.875008999999999, 0.37497199999999903], "properties": {"magmom": 0.002}, "label": "Zr", "xyz": [1.9175899999999984, -3.3213607857579945, 9.665663743215976]}, {"species": [{"element": "Zr", "occu": 1}], "abc": [0.0, 0.0, 0.0], "properties": {"magmom": -0.014}, "label": "Zr", "xyz": [0.0, 0.0, 0.0]}, {"species": [{"element": "Se", "occu": 1}], "abc": [0.375818, 0.812091, 0.563727], "properties": {"magmom": -0.007}, "label": "Se", "xyz": [1.9175900000000001, -3.321363, 14.531206663356]}, {"species": [{"element": "Se", "occu": 1}], "abc": [0.875377, 0.062312, 0.813064999999999], "properties": {"magmom": 0.001}, "label": "Se", "xyz": [-1.7763568394002505e-15, -2.214244214242001, 20.958399270819978]}, {"species": [{"element": "Se", "occu": 1}], "abc": [0.374973, 0.312513999999999, 0.062459], "properties": {"magmom": -0.0}, "label": "Se", "xyz": [-1.9012569296705806e-15, -2.2142442142419965, 1.6100073918520001]}, {"species": [{"element": "Se", "occu": 1}], "abc": [0.875683, 0.562159, 0.313523999999999], "properties": {"magmom": -0.007}, "label": "Se", "xyz": [-1.9984014443252818e-15, -4.428486214242001, 8.081716926671975]}, {"species": [{"element": "Se", "occu": 1}], "abc": [0.124317, 0.437841, 0.686476], "properties": {"magmom": -0.007}, "label": "Se", "xyz": [1.91759, -1.1071187857579998, 17.695311073328]}, {"species": [{"element": "Se", "occu": 1}], "abc": [0.625027, 0.687485999999999, 0.937541], "properties": {"magmom": -0.0}, "label": "Se", "xyz": [1.9175899999999981, -3.3213607857579963, 24.167020608148]}, {"species": [{"element": "Se", "occu": 1}], "abc": [0.124623, 0.937688, 0.186935], "properties": {"magmom": 0.001}, "label": "Se", "xyz": [1.9175900000000001, -3.3213607857579994, 4.81862872918]}, {"species": [{"element": "Se", "occu": 1}], "abc": [0.624182, 0.187909, 0.436272999999999], "properties": {"magmom": -0.007}, "label": "Se", "xyz": [-1.887379141862766e-15, -2.2142420000000005, 11.245821336643976]}]}, "task_ids": null, "uncorrected_energy_per_atom": null, "energy_per_atom": -19.018679550769228, "formation_energy_per_atom": -1.46164559903846, "energy_above_hull": 0.120515627692306, "is_stable": false, "equilibrium_reaction_energy_per_atom": null, "decomposes_to": null, "xas": null, "grain_boundaries": null, "band_gap": 0.0, "cbm": null, "vbm": null, "efermi": 3.64637054, "is_gap_direct": null, "is_metal": null, "es_source_calc_id": null, "bandstructure": null, "dos": null, "dos_energy_up": null, "dos_energy_down": null, "is_magnetic": null, "ordering": null, "total_magnetization": 0.07213699999999901, "total_magnetization_normalized_vol": null, "total_magnetization_normalized_formula_units": null, "num_magnetic_sites": null, "num_unique_magnetic_sites": null, "types_of_magnetic_species": null, "bulk_modulus": null, "shear_modulus": null, "universal_anisotropy": null, "homogeneous_poisson": null, "e_total": null, "e_ionic": null, "e_electronic": null, "n": null, "e_ij_max": null, "weighted_surface_energy_EV_PER_ANG2": null, "weighted_surface_energy": null, "weighted_work_function": null, "surface_anisotropy": null, "shape_factor": null, "has_reconstructed": null, "possible_species": null, "has_props": null, "theoretical": null, "database_IDs": null, "fields_not_requested": ["builder_meta", "nsites", "elements", "nelements", "composition", "composition_reduced", "chemsys", "symmetry", "property_name", "deprecated", "deprecation_reasons", "last_updated", "origins", "warnings", "task_ids", "uncorrected_energy_per_atom", "equilibrium_reaction_energy_per_atom", "decomposes_to", "xas", "grain_boundaries", "cbm", "vbm", "is_gap_direct", "is_metal", "es_source_calc_id", "bandstructure", "dos", "dos_energy_up", "dos_energy_down", "is_magnetic", "ordering", "total_magnetization_normalized_vol", "total_magnetization_normalized_formula_units", "num_magnetic_sites", "num_unique_magnetic_sites", "types_of_magnetic_species", "bulk_modulus", "shear_modulus", "universal_anisotropy", "homogeneous_poisson", "e_total", "e_ionic", "e_electronic", "n", "e_ij_max", "weighted_surface_energy_EV_PER_ANG2", "weighted_surface_energy", "weighted_work_function", "surface_anisotropy", "shape_factor", "has_reconstructed", "possible_species", "has_props", "theoretical", "database_IDs"]}