{"builder_meta": null, "nsites": null, "elements": null, "nelements": null, "composition": null, "composition_reduced": null, "formula_pretty": "Zr5Sn3", "formula_anonymous": "A3B5", "chemsys": null, "volume": 364.78043142492254, "density": 7.394984712185407, "density_atomic": 22.79877696405766, "symmetry": null, "property_name": null, "material_id": "mp-510522", "deprecated": null, "deprecation_reasons": null, "last_updated": null, "origins": null, "warnings": null, "structure": {"@module": "pymatgen.core.structure", "@class": "Structure", "charge": 0, "lattice": {"matrix": [[8.52362102, 1e-08, -0.0], [-4.26181, 7.38167138, 0.0], [-0.0, 0.0, 5.79765934]], "pbc": [true, true, true], "a": 8.52362102, "b": 8.523619937468535, "c": 5.79765934, "alpha": 90.0, "beta": 90.0, "gamma": 120.00000017546142, "volume": 364.78043142492254}, "properties": {}, "sites": [{"species": [{"element": "Zr", "occu": 1}], "abc": [0.333333, 0.666667, -0.0], "properties": {"magmom": -0.0}, "label": "Zr", "xyz": [-3.9218103395910475e-06, 4.92111671722379, 0.0]}, {"species": [{"element": "Zr", "occu": 1}], "abc": [0.666667, 0.333333, 0.5], "properties": {"magmom": -0.0}, "label": "Zr", "xyz": [4.261814941810341, 2.46055467277621, 2.89882967]}, {"species": [{"element": "Zr", "occu": 1}], "abc": [0.666667, 0.333333, -0.0], "properties": {"magmom": -0.0}, "label": "Zr", "xyz": [4.261814941810341, 2.46055467277621, 0.0]}, {"species": [{"element": "Zr", "occu": 1}], "abc": [0.333333, 0.666667, 0.5], "properties": {"magmom": -0.0}, "label": "Zr", "xyz": [-3.9218103395910475e-06, 4.92111671722379, 2.89882967]}, {"species": [{"element": "Zr", "occu": 1}], "abc": [0.24931587, -0.0, 0.25], "properties": {"magmom": 0.0}, "label": "Zr", "xyz": [2.1250739901515874, 2.4931587e-09, 1.449414835]}, {"species": [{"element": "Zr", "occu": 1}], "abc": [0.24931587, 0.24931587, 0.75], "properties": {"magmom": 0.0}, "label": "Zr", "xyz": [1.0625371222268876, 1.8403678246519595, 4.348244505]}, {"species": [{"element": "Zr", "occu": 1}], "abc": [-0.0, 0.75068413, 0.75], "properties": {"magmom": 0.0}, "label": "Zr", "xyz": [-3.1992731320753, 5.5413035578412, 4.348244505]}, {"species": [{"element": "Zr", "occu": 1}], "abc": [0.0, 0.24931587, 0.25], "properties": {"magmom": 0.0}, "label": "Zr", "xyz": [-1.0625368679246998, 1.8403678221588007, 1.449414835]}, {"species": [{"element": "Zr", "occu": 1}], "abc": [0.75068413, 0.75068413, 0.25], "properties": {"magmom": 0.0}, "label": "Zr", "xyz": [3.1992738977731126, 5.541303565348041, 1.449414835]}, {"species": [{"element": "Zr", "occu": 1}], "abc": [0.75068413, 0.0, 0.75], "properties": {"magmom": 0.0}, "label": "Zr", "xyz": [6.398547029848412, 7.5068413e-09, 4.348244505]}, {"species": [{"element": "Sn", "occu": 1}], "abc": [0.60915497, -0.0, 0.25], "properties": {"magmom": 0.0}, "label": "Sn", "xyz": [5.192206106729469, 6.0915497e-09, 1.449414835]}, {"species": [{"element": "Sn", "occu": 1}], "abc": [0.60915497, 0.60915497, 0.75], "properties": {"magmom": 0.0}, "label": "Sn", "xyz": [2.5961033640337696, 4.4965818141253076, 4.348244505]}, {"species": [{"element": "Sn", "occu": 1}], "abc": [-0.0, 0.39084503, 0.75], "properties": {"magmom": 0.0}, "label": "Sn", "xyz": [-1.6657072573042997, 2.8850895719662413, 4.348244505]}, {"species": [{"element": "Sn", "occu": 1}], "abc": [0.0, 0.60915497, 0.25], "properties": {"magmom": 0.0}, "label": "Sn", "xyz": [-2.5961027426956997, 4.496581808033758, 1.449414835]}, {"species": [{"element": "Sn", "occu": 1}], "abc": [0.39084503, 0.39084503, 0.25], "properties": {"magmom": 0.0}, "label": "Sn", "xyz": [1.6657076559662307, 2.8850895758746917, 1.449414835]}, {"species": [{"element": "Sn", "occu": 1}], "abc": [0.39084503, 0.0, 0.75], "properties": {"magmom": 0.0}, "label": "Sn", "xyz": [3.3314149132705304, 3.9084503e-09, 4.348244505]}]}, "task_ids": null, "uncorrected_energy_per_atom": null, "energy_per_atom": -24.13884100375, "formation_energy_per_atom": -0.640402145625, "energy_above_hull": 0.0, "is_stable": true, "equilibrium_reaction_energy_per_atom": null, "decomposes_to": null, "xas": null, "grain_boundaries": null, "band_gap": 0.0, "cbm": null, "vbm": null, "efermi": 6.47054671, "is_gap_direct": null, "is_metal": null, "es_source_calc_id": null, "bandstructure": null, "dos": null, "dos_energy_up": null, "dos_energy_down": null, "is_magnetic": null, "ordering": null, "total_magnetization": 1.5000000000000002e-05, "total_magnetization_normalized_vol": null, "total_magnetization_normalized_formula_units": null, "num_magnetic_sites": null, "num_unique_magnetic_sites": null, "types_of_magnetic_species": null, "bulk_modulus": null, "shear_modulus": null, "universal_anisotropy": null, "homogeneous_poisson": null, "e_total": null, "e_ionic": null, "e_electronic": null, "n": null, "e_ij_max": null, "weighted_surface_energy_EV_PER_ANG2": null, "weighted_surface_energy": null, "weighted_work_function": null, "surface_anisotropy": null, "shape_factor": null, "has_reconstructed": null, "possible_species": null, "has_props": null, "theoretical": null, "database_IDs": null, "fields_not_requested": ["builder_meta", "nsites", "elements", "nelements", "composition", "composition_reduced", "chemsys", "symmetry", "property_name", "deprecated", "deprecation_reasons", "last_updated", "origins", "warnings", "task_ids", "uncorrected_energy_per_atom", "equilibrium_reaction_energy_per_atom", "decomposes_to", "xas", "grain_boundaries", "cbm", "vbm", "is_gap_direct", "is_metal", "es_source_calc_id", "bandstructure", "dos", "dos_energy_up", "dos_energy_down", "is_magnetic", "ordering", "total_magnetization_normalized_vol", "total_magnetization_normalized_formula_units", "num_magnetic_sites", "num_unique_magnetic_sites", "types_of_magnetic_species", "bulk_modulus", "shear_modulus", "universal_anisotropy", "homogeneous_poisson", "e_total", "e_ionic", "e_electronic", "n", "e_ij_max", "weighted_surface_energy_EV_PER_ANG2", "weighted_surface_energy", "weighted_work_function", "surface_anisotropy", "shape_factor", "has_reconstructed", "possible_species", "has_props", "theoretical", "database_IDs"]}