{
  "builder_meta": null,
  "nsites": null,
  "elements": null,
  "nelements": null,
  "composition": null,
  "composition_reduced": null,
  "formula_pretty": "Zr5Si3",
  "formula_anonymous": "A3B5",
  "chemsys": null,
  "volume": 308.26145824681737,
  "density": 5.821787089608301,
  "density_atomic": 19.266341140426086,
  "symmetry": null,
  "property_name": null,
  "material_id": "mp-568115",
  "deprecated": null,
  "deprecation_reasons": null,
  "last_updated": null,
  "origins": null,
  "warnings": null,
  "structure": {
    "@module": "pymatgen.core.structure",
    "@class": "Structure",
    "charge": 0,
    "lattice": {
      "matrix": [
        [7.99291966, 1e-8, -0.0],
        [-3.99645881, 6.92207135, -0.0],
        [-0.0, 0.0, 5.57157151]
      ],
      "pbc": [true, true, true],
      "a": 7.99291966,
      "b": 7.992919040908487,
      "c": 5.57157151,
      "alpha": 90.0,
      "beta": 90.0,
      "gamma": 119.99999404770266,
      "volume": 308.26145824681737
    },
    "properties": {},
    "sites": [
      {
        "species": [{ "element": "Zr", "occu": 1 }],
        "abc": [0.74524632, 0.74524632, 0.25],
        "properties": { "magmom": 0.0 },
        "label": "Zr",
        "xyz": [2.978347741486572, 5.158648207817396, 1.3928928775]
      },
      {
        "species": [{ "element": "Zr", "occu": 1 }],
        "abc": [-0.0, 0.25475368, 0.25],
        "properties": { "magmom": 0.0 },
        "label": "Zr",
        "xyz": [-1.0181125888159208, 1.763423149635068, 1.3928928775]
      },
      {
        "species": [{ "element": "Zr", "occu": 1 }],
        "abc": [0.74524632, 0.0, 0.75],
        "properties": { "magmom": 0.0 },
        "label": "Zr",
        "xyz": [5.956693962670651, 7.4524632e-9, 4.1786786325000005]
      },
      {
        "species": [{ "element": "Zr", "occu": 1 }],
        "abc": [0.333333, 0.666667, 0.5],
        "properties": { "magmom": 0.0 },
        "label": "Zr",
        "xyz": [-3.316459490143586e-6, 4.61471654402378, 2.785785755]
      },
      {
        "species": [{ "element": "Zr", "occu": 1 }],
        "abc": [0.25475368, -0.0, 0.25],
        "properties": { "magmom": 0.0 },
        "label": "Zr",
        "xyz": [2.036225697329349, 2.5475368e-9, 1.3928928775]
      },
      {
        "species": [{ "element": "Zr", "occu": 1 }],
        "abc": [0.666667, 0.333333, 0.5],
        "properties": { "magmom": 0.0 },
        "label": "Zr",
        "xyz": [3.99646416645949, 2.30735481597622, 2.785785755]
      },
      {
        "species": [{ "element": "Zr", "occu": 1 }],
        "abc": [0.0, 0.74524632, 0.75],
        "properties": { "magmom": 0.0 },
        "label": "Zr",
        "xyz": [-2.978346221184079, 5.158648200364932, 4.1786786325000005]
      },
      {
        "species": [{ "element": "Zr", "occu": 1 }],
        "abc": [0.333333, 0.666667, -0.0],
        "properties": { "magmom": 0.0 },
        "label": "Zr",
        "xyz": [-3.316459490143586e-6, 4.61471654402378, 0.0]
      },
      {
        "species": [{ "element": "Zr", "occu": 1 }],
        "abc": [0.25475368, 0.25475368, 0.75],
        "properties": { "magmom": 0.0 },
        "label": "Zr",
        "xyz": [1.018113108513428, 1.763423152182605, 4.1786786325000005]
      },
      {
        "species": [{ "element": "Zr", "occu": 1 }],
        "abc": [0.666667, 0.333333, -0.0],
        "properties": { "magmom": 0.0 },
        "label": "Zr",
        "xyz": [3.99646416645949, 2.30735481597622, 0.0]
      },
      {
        "species": [{ "element": "Si", "occu": 1 }],
        "abc": [0.61119636, 0.61119636, 0.75],
        "properties": { "magmom": -0.0 },
        "label": "Si",
        "xyz": [2.4426223244025063, 4.23074481889225, 4.1786786325000005]
      },
      {
        "species": [{ "element": "Si", "occu": 1 }],
        "abc": [0.38880364, -0.0, 0.75],
        "properties": { "magmom": -0.0 },
        "label": "Si",
        "xyz": [3.1076762580355624, 3.8880364e-9, 4.1786786325000005]
      },
      {
        "species": [{ "element": "Si", "occu": 1 }],
        "abc": [0.61119636, 0.0, 0.25],
        "properties": { "magmom": -0.0 },
        "label": "Si",
        "xyz": [4.885243401964438, 6.1119636e-9, 1.3928928775]
      },
      {
        "species": [{ "element": "Si", "occu": 1 }],
        "abc": [-0.0, 0.38880364, 0.75],
        "properties": { "magmom": -0.0 },
        "label": "Si",
        "xyz": [-1.5538377324380683, 2.691326537219714, 4.1786786325000005]
      },
      {
        "species": [{ "element": "Si", "occu": 1 }],
        "abc": [0.38880364, 0.38880364, 0.25],
        "properties": { "magmom": -0.0 },
        "label": "Si",
        "xyz": [1.553838525597494, 2.6913265411077507, 1.3928928775]
      },
      {
        "species": [{ "element": "Si", "occu": 1 }],
        "abc": [0.0, 0.61119636, 0.25],
        "properties": { "magmom": -0.0 },
        "label": "Si",
        "xyz": [-2.4426210775619315, 4.230744812780286, 1.3928928775]
      }
    ]
  },
  "task_ids": null,
  "uncorrected_energy_per_atom": null,
  "energy_per_atom": -18.38070682875,
  "formation_energy_per_atom": -0.8719251650000001,
  "energy_above_hull": 0.023207649999996003,
  "is_stable": false,
  "equilibrium_reaction_energy_per_atom": null,
  "decomposes_to": null,
  "xas": null,
  "grain_boundaries": null,
  "band_gap": 0.0,
  "cbm": null,
  "vbm": null,
  "efermi": 5.79901161,
  "is_gap_direct": null,
  "is_metal": null,
  "es_source_calc_id": null,
  "bandstructure": null,
  "dos": null,
  "dos_energy_up": null,
  "dos_energy_down": null,
  "is_magnetic": null,
  "ordering": null,
  "total_magnetization": 1.2e-6,
  "total_magnetization_normalized_vol": null,
  "total_magnetization_normalized_formula_units": null,
  "num_magnetic_sites": null,
  "num_unique_magnetic_sites": null,
  "types_of_magnetic_species": null,
  "bulk_modulus": null,
  "shear_modulus": null,
  "universal_anisotropy": null,
  "homogeneous_poisson": null,
  "e_total": null,
  "e_ionic": null,
  "e_electronic": null,
  "n": null,
  "e_ij_max": null,
  "weighted_surface_energy_EV_PER_ANG2": null,
  "weighted_surface_energy": null,
  "weighted_work_function": null,
  "surface_anisotropy": null,
  "shape_factor": null,
  "has_reconstructed": null,
  "possible_species": null,
  "has_props": null,
  "theoretical": null,
  "database_IDs": null,
  "fields_not_requested": [
    "builder_meta",
    "nsites",
    "elements",
    "nelements",
    "composition",
    "composition_reduced",
    "chemsys",
    "symmetry",
    "property_name",
    "deprecated",
    "deprecation_reasons",
    "last_updated",
    "origins",
    "warnings",
    "task_ids",
    "uncorrected_energy_per_atom",
    "equilibrium_reaction_energy_per_atom",
    "decomposes_to",
    "xas",
    "grain_boundaries",
    "cbm",
    "vbm",
    "is_gap_direct",
    "is_metal",
    "es_source_calc_id",
    "bandstructure",
    "dos",
    "dos_energy_up",
    "dos_energy_down",
    "is_magnetic",
    "ordering",
    "total_magnetization_normalized_vol",
    "total_magnetization_normalized_formula_units",
    "num_magnetic_sites",
    "num_unique_magnetic_sites",
    "types_of_magnetic_species",
    "bulk_modulus",
    "shear_modulus",
    "universal_anisotropy",
    "homogeneous_poisson",
    "e_total",
    "e_ionic",
    "e_electronic",
    "n",
    "e_ij_max",
    "weighted_surface_energy_EV_PER_ANG2",
    "weighted_surface_energy",
    "weighted_work_function",
    "surface_anisotropy",
    "shape_factor",
    "has_reconstructed",
    "possible_species",
    "has_props",
    "theoretical",
    "database_IDs"
  ]
}
