{"builder_meta": null, "nsites": null, "elements": null, "nelements": null, "composition": null, "composition_reduced": null, "formula_pretty": "Zr5Si4", "formula_anonymous": "A4B5", "chemsys": null, "volume": 665.8327401249627, "density": 5.670813716372127, "density_atomic": 18.495353892360075, "symmetry": null, "property_name": null, "material_id": "mp-1304", "deprecated": null, "deprecation_reasons": null, "last_updated": null, "origins": null, "warnings": null, "structure": {"@module": "pymatgen.core.structure", "@class": "Structure", "charge": 0, "lattice": {"matrix": [[7.14298076, 0.0, 0.0], [-0.0, 7.14298076, 0.0], [0.0, 0.0, 13.04987001]], "pbc": [true, true, true], "a": 7.14298076, "b": 7.14298076, "c": 13.04987001, "alpha": 90.0, "beta": 90.0, "gamma": 90.0, "volume": 665.8327401249627}, "properties": {}, "sites": [{"species": [{"element": "Zr", "occu": 1}], "abc": [0.35464197000000003, 0.50135746, 0.37661745], "properties": {"magmom": 0.0}, "label": "Zr", "xyz": [2.5332007683984976, 3.58118669066247, 4.914808765997675]}, {"species": [{"element": "Zr", "occu": 1}], "abc": [0.85464197, 0.99864254, 0.37338255000000004], "properties": {"magmom": 0.0}, "label": "Zr", "xyz": [6.104691148398497, 7.1332844493375305, 4.8725937415023255]}, {"species": [{"element": "Zr", "occu": 1}], "abc": [0.00135746, 0.14535803, 0.12661745], "properties": {"magmom": 0.0}, "label": "Zr", "xyz": [0.009696310662469601, 1.0382896116015028, 1.6523412634976744]}, {"species": [{"element": "Zr", "occu": 1}], "abc": [0.99864254, 0.85464197, 0.62661745], "properties": {"magmom": 0.0}, "label": "Zr", "xyz": [7.1332844493375305, 6.104691148398497, 8.177276268497675]}, {"species": [{"element": "Zr", "occu": 1}], "abc": [0.64535803, 0.49864254, 0.87661745], "properties": {"magmom": 0.0}, "label": "Zr", "xyz": [4.609779991601504, 3.5617940693375307, 11.439743770997675]}, {"species": [{"element": "Zr", "occu": 1}], "abc": [0.50135746, 0.35464197000000003, 0.62338255], "properties": {"magmom": 0.0}, "label": "Zr", "xyz": [3.58118669066247, 2.5332007683984976, 8.135061244002324]}, {"species": [{"element": "Zr", "occu": 1}], "abc": [0.49864254, 0.64535803, 0.12338255000000001], "properties": {"magmom": 0.0}, "label": "Zr", "xyz": [3.5617940693375307, 4.609779991601504, 1.6101262390023254]}, {"species": [{"element": "Zr", "occu": 1}], "abc": [0.14535803, 0.00135746, 0.87338255], "properties": {"magmom": 0.0}, "label": "Zr", "xyz": [1.0382896116015028, 0.009696310662469601, 11.397528746502324]}, {"species": [{"element": "Zr", "occu": 1}], "abc": [0.99888298, 0.64904114, 0.0355835], "properties": {"magmom": 0.0}, "label": "Zr", "xyz": [7.135001907631465, 4.636088375468467, 0.4643600495008349]}, {"species": [{"element": "Zr", "occu": 1}], "abc": [0.00111702, 0.35095886, 0.5355835], "properties": {"magmom": 0.0}, "label": "Zr", "xyz": [0.0079788523685352, 2.5068923845315334, 6.989295054500834]}, {"species": [{"element": "Zr", "occu": 1}], "abc": [0.64904114, 0.99888298, 0.9644165], "properties": {"magmom": 0.0}, "label": "Zr", "xyz": [4.636088375468467, 7.135001907631465, 12.585509960499165]}, {"species": [{"element": "Zr", "occu": 1}], "abc": [0.14904114000000002, 0.50111702, 0.7855835], "properties": {"magmom": 0.0}, "label": "Zr", "xyz": [1.0645979954684666, 3.5794692323685355, 10.251762557000834]}, {"species": [{"element": "Zr", "occu": 1}], "abc": [0.85095886, 0.49888298000000003, 0.2855835], "properties": {"magmom": 0.0}, "label": "Zr", "xyz": [6.078382764531534, 3.5635115276314653, 3.7268275520008345]}, {"species": [{"element": "Zr", "occu": 1}], "abc": [0.50111702, 0.14904114000000002, 0.214416499999999], "properties": {"magmom": 0.0}, "label": "Zr", "xyz": [3.5794692323685355, 1.0645979954684666, 2.798107452999152]}, {"species": [{"element": "Zr", "occu": 1}], "abc": [0.49888298000000003, 0.85095886, 0.7144165], "properties": {"magmom": 0.0}, "label": "Zr", "xyz": [3.5635115276314653, 6.078382764531534, 9.323042457999165]}, {"species": [{"element": "Zr", "occu": 1}], "abc": [0.35095886, 0.00111702, 0.464416499999999], "properties": {"magmom": 0.0}, "label": "Zr", "xyz": [2.5068923845315334, 0.0079788523685352, 6.060574955499152]}, {"species": [{"element": "Zr", "occu": 1}], "abc": [0.6755490200000001, 0.6755490200000001, 0.5], "properties": {"magmom": 0.0}, "label": "Zr", "xyz": [4.825433652296856, 4.825433652296856, 6.524935005]}, {"species": [{"element": "Zr", "occu": 1}], "abc": [0.82445098, 0.17554902, 0.75], "properties": {"magmom": 0.0}, "label": "Zr", "xyz": [5.8890374877031455, 1.2539432722968553, 9.7874025075]}, {"species": [{"element": "Zr", "occu": 1}], "abc": [0.17554902, 0.82445098, 0.25], "properties": {"magmom": 0.0}, "label": "Zr", "xyz": [1.2539432722968553, 5.8890374877031455, 3.2624675025]}, {"species": [{"element": "Zr", "occu": 1}], "abc": [0.32445098, 0.32445098, 0.0], "properties": {"magmom": 0.0}, "label": "Zr", "xyz": [2.317547107703145, 2.317547107703145, 0.0]}, {"species": [{"element": "Si", "occu": 1}], "abc": [0.051529160000000004, 0.69951719, 0.4381884], "properties": {"magmom": 0.0}, "label": "Si", "xyz": [0.36807179845896165, 4.996637829459265, 5.7183016598898835]}, {"species": [{"element": "Si", "occu": 1}], "abc": [0.94847084, 0.30048281, 0.938188399999999], "properties": {"magmom": 0.0}, "label": "Si", "xyz": [6.774908961541039, 2.1463429305407358, 12.24323666488987]}, {"species": [{"element": "Si", "occu": 1}], "abc": [0.69951719, 0.051529160000000004, 0.5618116], "properties": {"magmom": 0.0}, "label": "Si", "xyz": [4.996637829459265, 0.36807179845896165, 7.331568350110115]}, {"species": [{"element": "Si", "occu": 1}], "abc": [0.19951719, 0.44847084, 0.188188399999999], "properties": {"magmom": 0.0}, "label": "Si", "xyz": [1.4251474494592646, 3.2034185815410385, 2.4558341573898708]}, {"species": [{"element": "Si", "occu": 1}], "abc": [0.80048281, 0.55152916, 0.688188399999999], "properties": {"magmom": 0.0}, "label": "Si", "xyz": [5.717833310540736, 3.9395621784589614, 8.98076916238987]}, {"species": [{"element": "Si", "occu": 1}], "abc": [0.44847084, 0.19951719, 0.8118116], "properties": {"magmom": 0.0}, "label": "Si", "xyz": [3.2034185815410385, 1.4251474494592646, 10.594035852610116]}, {"species": [{"element": "Si", "occu": 1}], "abc": [0.55152916, 0.80048281, 0.311811599999999], "properties": {"magmom": 0.0}, "label": "Si", "xyz": [3.9395621784589614, 5.717833310540736, 4.069100847610103]}, {"species": [{"element": "Si", "occu": 1}], "abc": [0.30048281, 0.94847084, 0.061811599999999], "properties": {"magmom": 0.0}, "label": "Si", "xyz": [2.1463429305407358, 6.774908961541039, 0.806633345110103]}, {"species": [{"element": "Si", "occu": 1}], "abc": [0.85282317, 0.79445734, 0.82231958], "properties": {"magmom": -0.0}, "label": "Si", "xyz": [6.091699494992209, 5.674793494260779, 10.731163625677796]}, {"species": [{"element": "Si", "occu": 1}], "abc": [0.14717683, 0.20554266000000002, 0.32231958], "properties": {"magmom": -0.0}, "label": "Si", "xyz": [1.051281265007791, 1.4681872657392219, 4.206228620677796]}, {"species": [{"element": "Si", "occu": 1}], "abc": [0.79445734, 0.85282317, 0.17768042], "properties": {"magmom": -0.0}, "label": "Si", "xyz": [5.674793494260779, 6.091699494992209, 2.318706384322204]}, {"species": [{"element": "Si", "occu": 1}], "abc": [0.29445734, 0.64717683, 0.57231958], "properties": {"magmom": -0.0}, "label": "Si", "xyz": [2.1033031142607785, 4.622771645007791, 7.468696123177796]}, {"species": [{"element": "Si", "occu": 1}], "abc": [0.70554266, 0.35282317, 0.07231958000000001], "properties": {"magmom": -0.0}, "label": "Si", "xyz": [5.039677645739221, 2.5202091149922095, 0.9437611181777958]}, {"species": [{"element": "Si", "occu": 1}], "abc": [0.64717683, 0.29445734, 0.42768042], "properties": {"magmom": -0.0}, "label": "Si", "xyz": [4.622771645007791, 2.1033031142607785, 5.581173886822204]}, {"species": [{"element": "Si", "occu": 1}], "abc": [0.35282317, 0.70554266, 0.9276804200000001], "properties": {"magmom": -0.0}, "label": "Si", "xyz": [2.5202091149922095, 5.039677645739221, 12.106108891822204]}, {"species": [{"element": "Si", "occu": 1}], "abc": [0.20554266000000002, 0.14717683, 0.6776804200000001], "properties": {"magmom": -0.0}, "label": "Si", "xyz": [1.4681872657392219, 1.051281265007791, 8.843641389322205]}]}, "task_ids": null, "uncorrected_energy_per_atom": null, "energy_per_atom": -17.493453861666666, "formation_energy_per_atom": -0.95522965, "energy_above_hull": 7.687833333491767e-05, "is_stable": false, "equilibrium_reaction_energy_per_atom": null, "decomposes_to": null, "xas": null, "grain_boundaries": null, "band_gap": 0.0, "cbm": null, "vbm": null, "efermi": 6.06798445, "is_gap_direct": null, "is_metal": null, "es_source_calc_id": null, "bandstructure": null, "dos": null, "dos_energy_up": null, "dos_energy_down": null, "is_magnetic": null, "ordering": null, "total_magnetization": 1.7e-06, "total_magnetization_normalized_vol": null, "total_magnetization_normalized_formula_units": null, "num_magnetic_sites": null, "num_unique_magnetic_sites": null, "types_of_magnetic_species": null, "bulk_modulus": null, "shear_modulus": null, "universal_anisotropy": null, "homogeneous_poisson": null, "e_total": null, "e_ionic": null, "e_electronic": null, "n": null, "e_ij_max": null, "weighted_surface_energy_EV_PER_ANG2": null, "weighted_surface_energy": null, "weighted_work_function": null, "surface_anisotropy": null, "shape_factor": null, "has_reconstructed": null, "possible_species": null, "has_props": null, "theoretical": null, "database_IDs": null, "fields_not_requested": ["builder_meta", "nsites", "elements", "nelements", "composition", "composition_reduced", "chemsys", "symmetry", "property_name", "deprecated", "deprecation_reasons", "last_updated", "origins", "warnings", "task_ids", "uncorrected_energy_per_atom", "equilibrium_reaction_energy_per_atom", "decomposes_to", "xas", "grain_boundaries", "cbm", "vbm", "is_gap_direct", "is_metal", "es_source_calc_id", "bandstructure", "dos", "dos_energy_up", "dos_energy_down", "is_magnetic", "ordering", "total_magnetization_normalized_vol", "total_magnetization_normalized_formula_units", "num_magnetic_sites", "num_unique_magnetic_sites", "types_of_magnetic_species", "bulk_modulus", "shear_modulus", "universal_anisotropy", "homogeneous_poisson", "e_total", "e_ionic", "e_electronic", "n", "e_ij_max", "weighted_surface_energy_EV_PER_ANG2", "weighted_surface_energy", "weighted_work_function", "surface_anisotropy", "shape_factor", "has_reconstructed", "possible_species", "has_props", "theoretical", "database_IDs"]}