{
  "builder_meta": null,
  "nsites": null,
  "elements": null,
  "nelements": null,
  "composition": null,
  "composition_reduced": null,
  "formula_pretty": "Zr5S8",
  "formula_anonymous": "A5B8",
  "chemsys": null,
  "volume": 297.0774878243512,
  "density": 3.983359927701746,
  "density_atomic": 22.852114448027013,
  "symmetry": null,
  "property_name": null,
  "material_id": "mp-1215375",
  "deprecated": null,
  "deprecation_reasons": null,
  "last_updated": null,
  "origins": null,
  "warnings": null,
  "structure": {
    "@module": "pymatgen.core.structure",
    "@class": "Structure",
    "charge": 0,
    "lattice": {
      "matrix": [
        [0.0, 5.295983, 5.295983],
        [5.295983, 0.0, 5.295983],
        [5.295983, 5.295983, 0.0]
      ],
      "pbc": [true, true, true],
      "a": 7.4896509846973505,
      "b": 7.4896509846973505,
      "c": 7.4896509846973505,
      "alpha": 59.99999999999999,
      "beta": 59.99999999999999,
      "gamma": 59.99999999999999,
      "volume": 297.0774878243512
    },
    "properties": {},
    "sites": [
      {
        "species": [{ "element": "Zr", "occu": 1 }],
        "abc": [0.077615999999999, 0.640795, 0.640795],
        "properties": { "magmom": -0.031 },
        "label": "Zr",
        "xyz": [6.787278852969999, 3.8046924430129945, 3.8046924430129945]
      },
      {
        "species": [{ "element": "Zr", "occu": 1 }],
        "abc": [0.640795, 0.077615999999999, 0.640795],
        "properties": { "magmom": -0.038 },
        "label": "Zr",
        "xyz": [3.8046924430129945, 6.787278852969999, 3.8046924430129945]
      },
      {
        "species": [{ "element": "Zr", "occu": 1 }],
        "abc": [0.640795, 0.640795, 0.077615999999999],
        "properties": { "magmom": -0.039 },
        "label": "Zr",
        "xyz": [3.8046924430129945, 3.8046924430129945, 6.787278852969999]
      },
      {
        "species": [{ "element": "Zr", "occu": 1 }],
        "abc": [0.640795, 0.640795, 0.640795],
        "properties": { "magmom": -0.039 },
        "label": "Zr",
        "xyz": [6.787278852969999, 6.787278852969999, 6.787278852969999]
      },
      {
        "species": [{ "element": "Zr", "occu": 1 }],
        "abc": [0.25, 0.25, 0.25],
        "properties": { "magmom": -0.006 },
        "label": "Zr",
        "xyz": [2.6479915, 2.6479915, 2.6479915]
      },
      {
        "species": [{ "element": "S", "occu": 1 }],
        "abc": [0.847479, 0.384173999999999, 0.384173999999999],
        "properties": { "magmom": -0.0 },
        "label": "S",
        "xyz": [4.0691579460839895, 6.522813349898994, 6.522813349898994]
      },
      {
        "species": [{ "element": "S", "occu": 1 }],
        "abc": [0.384173999999999, 0.847479, 0.384173999999999],
        "properties": { "magmom": -0.001 },
        "label": "S",
        "xyz": [6.522813349898994, 4.0691579460839895, 6.522813349898994]
      },
      {
        "species": [{ "element": "S", "occu": 1 }],
        "abc": [0.384173999999999, 0.384173999999999, 0.847479],
        "properties": { "magmom": -0.0 },
        "label": "S",
        "xyz": [6.522813349898994, 6.522813349898994, 4.0691579460839895]
      },
      {
        "species": [{ "element": "S", "occu": 1 }],
        "abc": [0.384173999999999, 0.384173999999999, 0.384173999999999],
        "properties": { "magmom": -0.0 },
        "label": "S",
        "xyz": [4.0691579460839895, 4.0691579460839895, 4.0691579460839895]
      },
      {
        "species": [{ "element": "S", "occu": 1 }],
        "abc": [0.362363, 0.879212, 0.879212],
        "properties": { "magmom": -0.0 },
        "label": "S",
        "xyz": [9.312583610792, 6.575360093225, 6.575360093225]
      },
      {
        "species": [{ "element": "S", "occu": 1 }],
        "abc": [0.879212, 0.362363, 0.879212],
        "properties": { "magmom": -0.001 },
        "label": "S",
        "xyz": [6.575360093225, 9.312583610792, 6.575360093225]
      },
      {
        "species": [{ "element": "S", "occu": 1 }],
        "abc": [0.879212, 0.879212, 0.362363],
        "properties": { "magmom": -0.001 },
        "label": "S",
        "xyz": [6.575360093225, 6.575360093225, 9.312583610792]
      },
      {
        "species": [{ "element": "S", "occu": 1 }],
        "abc": [0.879212, 0.879212, 0.879212],
        "properties": { "magmom": -0.001 },
        "label": "S",
        "xyz": [9.312583610792, 9.312583610792, 9.312583610792]
      }
    ]
  },
  "task_ids": null,
  "uncorrected_energy_per_atom": null,
  "energy_per_atom": -7.595981285384616,
  "formation_energy_per_atom": -1.7617213092307682,
  "energy_above_hull": 0.092711104134615,
  "is_stable": false,
  "equilibrium_reaction_energy_per_atom": null,
  "decomposes_to": null,
  "xas": null,
  "grain_boundaries": null,
  "band_gap": 0.0,
  "cbm": null,
  "vbm": null,
  "efermi": 4.45304238,
  "is_gap_direct": null,
  "is_metal": null,
  "es_source_calc_id": null,
  "bandstructure": null,
  "dos": null,
  "dos_energy_up": null,
  "dos_energy_down": null,
  "is_magnetic": null,
  "ordering": null,
  "total_magnetization": 0.227895,
  "total_magnetization_normalized_vol": null,
  "total_magnetization_normalized_formula_units": null,
  "num_magnetic_sites": null,
  "num_unique_magnetic_sites": null,
  "types_of_magnetic_species": null,
  "bulk_modulus": null,
  "shear_modulus": null,
  "universal_anisotropy": null,
  "homogeneous_poisson": null,
  "e_total": null,
  "e_ionic": null,
  "e_electronic": null,
  "n": null,
  "e_ij_max": null,
  "weighted_surface_energy_EV_PER_ANG2": null,
  "weighted_surface_energy": null,
  "weighted_work_function": null,
  "surface_anisotropy": null,
  "shape_factor": null,
  "has_reconstructed": null,
  "possible_species": null,
  "has_props": null,
  "theoretical": null,
  "database_IDs": null,
  "fields_not_requested": [
    "builder_meta",
    "nsites",
    "elements",
    "nelements",
    "composition",
    "composition_reduced",
    "chemsys",
    "symmetry",
    "property_name",
    "deprecated",
    "deprecation_reasons",
    "last_updated",
    "origins",
    "warnings",
    "task_ids",
    "uncorrected_energy_per_atom",
    "equilibrium_reaction_energy_per_atom",
    "decomposes_to",
    "xas",
    "grain_boundaries",
    "cbm",
    "vbm",
    "is_gap_direct",
    "is_metal",
    "es_source_calc_id",
    "bandstructure",
    "dos",
    "dos_energy_up",
    "dos_energy_down",
    "is_magnetic",
    "ordering",
    "total_magnetization_normalized_vol",
    "total_magnetization_normalized_formula_units",
    "num_magnetic_sites",
    "num_unique_magnetic_sites",
    "types_of_magnetic_species",
    "bulk_modulus",
    "shear_modulus",
    "universal_anisotropy",
    "homogeneous_poisson",
    "e_total",
    "e_ionic",
    "e_electronic",
    "n",
    "e_ij_max",
    "weighted_surface_energy_EV_PER_ANG2",
    "weighted_surface_energy",
    "weighted_work_function",
    "surface_anisotropy",
    "shape_factor",
    "has_reconstructed",
    "possible_species",
    "has_props",
    "theoretical",
    "database_IDs"
  ]
}
