{
  "builder_meta": null,
  "nsites": null,
  "elements": null,
  "nelements": null,
  "composition": null,
  "composition_reduced": null,
  "formula_pretty": "Zr5Sb4",
  "formula_anonymous": "A4B5",
  "chemsys": null,
  "volume": 400.70180972102924,
  "density": 7.817054917445075,
  "density_atomic": 22.261211651168292,
  "symmetry": null,
  "property_name": null,
  "material_id": "mp-570196",
  "deprecated": null,
  "deprecation_reasons": null,
  "last_updated": null,
  "origins": null,
  "warnings": null,
  "structure": {
    "@module": "pymatgen.core.structure",
    "@class": "Structure",
    "charge": 0,
    "lattice": {
      "matrix": [
        [8.81457275, 1e-8, -0.0],
        [-4.40728586, 7.6336429599999995, 0.0],
        [-0.0, 0.0, 5.95508814]
      ],
      "pbc": [true, true, true],
      "a": 8.81457275,
      "b": 8.814571656780238,
      "c": 5.95508814,
      "alpha": 90.0,
      "beta": 90.0,
      "gamma": 120.00000017225287,
      "volume": 400.7018097210291
    },
    "properties": {},
    "sites": [
      {
        "species": [{ "element": "Zr", "occu": 1 }],
        "abc": [0.28043905, 0.28043905, 0.75],
        "properties": { "magmom": -0.0 },
        "label": "Zr",
        "xyz": [1.2359753485090548, 2.1407715825459785, 4.466316105]
      },
      {
        "species": [{ "element": "Zr", "occu": 1 }],
        "abc": [0.71956095, 0.71956095, 0.25],
        "properties": { "magmom": -0.0 },
        "label": "Zr",
        "xyz": [3.1713115414909456, 5.492871387454021, 1.488772035]
      },
      {
        "species": [{ "element": "Zr", "occu": 1 }],
        "abc": [0.71956095, -0.0, 0.75],
        "properties": { "magmom": -0.0 },
        "label": "Zr",
        "xyz": [6.3426223418341126, 7.1956095e-9, 4.466316105]
      },
      {
        "species": [{ "element": "Zr", "occu": 1 }],
        "abc": [-0.0, 0.28043905, 0.25],
        "properties": { "magmom": -0.0 },
        "label": "Zr",
        "xyz": [-1.235975059656833, 2.140771579741588, 1.488772035]
      },
      {
        "species": [{ "element": "Zr", "occu": 1 }],
        "abc": [0.333333, 0.666667, 0.5],
        "properties": { "magmom": -0.0 },
        "label": "Zr",
        "xyz": [-4.063952870225762e-6, 5.08909785454765, 2.97754407]
      },
      {
        "species": [{ "element": "Zr", "occu": 1 }],
        "abc": [0.666667, 0.333333, 0.5],
        "properties": { "magmom": -0.0 },
        "label": "Zr",
        "xyz": [4.40729095395287, 2.5445451154523497, 2.97754407]
      },
      {
        "species": [{ "element": "Zr", "occu": 1 }],
        "abc": [0.0, 0.71956095, 0.75],
        "properties": { "magmom": -0.0 },
        "label": "Zr",
        "xyz": [-3.171310800343167, 5.4928713802584115, 4.466316105]
      },
      {
        "species": [{ "element": "Zr", "occu": 1 }],
        "abc": [0.333333, 0.666667, -0.0],
        "properties": { "magmom": -0.0 },
        "label": "Zr",
        "xyz": [-4.063952870225762e-6, 5.08909785454765, 0.0]
      },
      {
        "species": [{ "element": "Zr", "occu": 1 }],
        "abc": [0.28043905, 0.0, 0.25],
        "properties": { "magmom": -0.0 },
        "label": "Zr",
        "xyz": [2.471950408165888, 2.8043905000000002e-9, 1.488772035]
      },
      {
        "species": [{ "element": "Zr", "occu": 1 }],
        "abc": [0.666667, 0.333333, -0.0],
        "properties": { "magmom": -0.0 },
        "label": "Zr",
        "xyz": [4.40729095395287, 2.5445451154523497, 0.0]
      },
      {
        "species": [{ "element": "Sb", "occu": 1 }],
        "abc": [-0.0, -0.0, 0.5],
        "properties": { "magmom": -0.0 },
        "label": "Sb",
        "xyz": [0.0, 0.0, 2.97754407]
      },
      {
        "species": [{ "element": "Sb", "occu": 1 }],
        "abc": [0.61000787, 0.61000787, 0.75],
        "properties": { "magmom": 0.0 },
        "label": "Sb",
        "xyz": [2.688479688247824, 4.656582288470173, 4.466316105]
      },
      {
        "species": [{ "element": "Sb", "occu": 1 }],
        "abc": [0.38999213, 0.0, 0.75],
        "properties": { "magmom": 0.0 },
        "label": "Sb",
        "xyz": [3.4376140018124572, 3.8999213e-9, 4.466316105]
      },
      {
        "species": [{ "element": "Sb", "occu": 1 }],
        "abc": [-0.0, -0.0, -0.0],
        "properties": { "magmom": -0.0 },
        "label": "Sb",
        "xyz": [0.0, 0.0, 0.0]
      },
      {
        "species": [{ "element": "Sb", "occu": 1 }],
        "abc": [0.61000787, -0.0, 0.25],
        "properties": { "magmom": 0.0 },
        "label": "Sb",
        "xyz": [5.376958748187542, 6.1000787e-9, 1.488772035]
      },
      {
        "species": [{ "element": "Sb", "occu": 1 }],
        "abc": [0.38999213, 0.38999213, 0.25],
        "properties": { "magmom": 0.0 },
        "label": "Sb",
        "xyz": [1.7188072017521754, 2.9770606815298257, 1.488772035]
      },
      {
        "species": [{ "element": "Sb", "occu": 1 }],
        "abc": [-0.0, 0.38999213, 0.75],
        "properties": { "magmom": 0.0 },
        "label": "Sb",
        "xyz": [-1.7188068000602819, 2.9770606776299045, 4.466316105]
      },
      {
        "species": [{ "element": "Sb", "occu": 1 }],
        "abc": [0.0, 0.61000787, 0.25],
        "properties": { "magmom": 0.0 },
        "label": "Sb",
        "xyz": [-2.688479059939718, 4.656582282370095, 1.488772035]
      }
    ]
  },
  "task_ids": null,
  "uncorrected_energy_per_atom": null,
  "energy_per_atom": -24.833555645,
  "formation_energy_per_atom": -0.7697531511111131,
  "energy_above_hull": 0.024566009166665,
  "is_stable": false,
  "equilibrium_reaction_energy_per_atom": null,
  "decomposes_to": null,
  "xas": null,
  "grain_boundaries": null,
  "band_gap": 0.0,
  "cbm": null,
  "vbm": null,
  "efermi": 7.85928764,
  "is_gap_direct": null,
  "is_metal": null,
  "es_source_calc_id": null,
  "bandstructure": null,
  "dos": null,
  "dos_energy_up": null,
  "dos_energy_down": null,
  "is_magnetic": null,
  "ordering": null,
  "total_magnetization": 0.00016319999999900002,
  "total_magnetization_normalized_vol": null,
  "total_magnetization_normalized_formula_units": null,
  "num_magnetic_sites": null,
  "num_unique_magnetic_sites": null,
  "types_of_magnetic_species": null,
  "bulk_modulus": null,
  "shear_modulus": null,
  "universal_anisotropy": null,
  "homogeneous_poisson": null,
  "e_total": null,
  "e_ionic": null,
  "e_electronic": null,
  "n": null,
  "e_ij_max": null,
  "weighted_surface_energy_EV_PER_ANG2": null,
  "weighted_surface_energy": null,
  "weighted_work_function": null,
  "surface_anisotropy": null,
  "shape_factor": null,
  "has_reconstructed": null,
  "possible_species": null,
  "has_props": null,
  "theoretical": null,
  "database_IDs": null,
  "fields_not_requested": [
    "builder_meta",
    "nsites",
    "elements",
    "nelements",
    "composition",
    "composition_reduced",
    "chemsys",
    "symmetry",
    "property_name",
    "deprecated",
    "deprecation_reasons",
    "last_updated",
    "origins",
    "warnings",
    "task_ids",
    "uncorrected_energy_per_atom",
    "equilibrium_reaction_energy_per_atom",
    "decomposes_to",
    "xas",
    "grain_boundaries",
    "cbm",
    "vbm",
    "is_gap_direct",
    "is_metal",
    "es_source_calc_id",
    "bandstructure",
    "dos",
    "dos_energy_up",
    "dos_energy_down",
    "is_magnetic",
    "ordering",
    "total_magnetization_normalized_vol",
    "total_magnetization_normalized_formula_units",
    "num_magnetic_sites",
    "num_unique_magnetic_sites",
    "types_of_magnetic_species",
    "bulk_modulus",
    "shear_modulus",
    "universal_anisotropy",
    "homogeneous_poisson",
    "e_total",
    "e_ionic",
    "e_electronic",
    "n",
    "e_ij_max",
    "weighted_surface_energy_EV_PER_ANG2",
    "weighted_surface_energy",
    "weighted_work_function",
    "surface_anisotropy",
    "shape_factor",
    "has_reconstructed",
    "possible_species",
    "has_props",
    "theoretical",
    "database_IDs"
  ]
}
