{
  "builder_meta": null,
  "nsites": null,
  "elements": null,
  "nelements": null,
  "composition": null,
  "composition_reduced": null,
  "formula_pretty": "Zr5Sb3",
  "formula_anonymous": "A3B5",
  "chemsys": null,
  "volume": 730.3272431795538,
  "density": 7.470441789174245,
  "density_atomic": 22.822726349361055,
  "symmetry": null,
  "property_name": null,
  "material_id": "mp-505759",
  "deprecated": null,
  "deprecation_reasons": null,
  "last_updated": null,
  "origins": null,
  "warnings": null,
  "structure": {
    "@module": "pymatgen.core.structure",
    "@class": "Structure",
    "charge": 0,
    "lattice": {
      "matrix": [
        [7.60922035, -0.0, 0.0],
        [-0.0, 8.84997951, 0.0],
        [0.0, 0.0, 10.84513782]
      ],
      "pbc": [true, true, true],
      "a": 7.60922035,
      "b": 8.84997951,
      "c": 10.84513782,
      "alpha": 90.0,
      "beta": 90.0,
      "gamma": 90.0,
      "volume": 730.3272431795538
    },
    "properties": {},
    "sites": [
      {
        "species": [{ "element": "Zr", "occu": 1 }],
        "abc": [0.47233775, 0.75, 0.49666726],
        "properties": { "magmom": -0.0 },
        "label": "Zr",
        "xyz": [3.5941220193732124, 6.6374846325000005, 5.386424885381773]
      },
      {
        "species": [{ "element": "Zr", "occu": 1 }],
        "abc": [0.97233775, 0.25, 0.0033327400000000003],
        "properties": { "magmom": -0.0 },
        "label": "Zr",
        "xyz": [7.3987321943732125, 2.2124948775, 0.0361440246182268]
      },
      {
        "species": [{ "element": "Zr", "occu": 1 }],
        "abc": [0.52766225, 0.25, 0.5033327400000001],
        "properties": { "magmom": -0.0 },
        "label": "Zr",
        "xyz": [4.015098330626787, 2.2124948775, 5.4587129346182275]
      },
      {
        "species": [{ "element": "Zr", "occu": 1 }],
        "abc": [0.02766225, 0.75, 0.99666726],
        "properties": { "magmom": -0.0 },
        "label": "Zr",
        "xyz": [0.2104881556267875, 6.6374846325000005, 10.808993795381774]
      },
      {
        "species": [{ "element": "Zr", "occu": 1 }],
        "abc": [0.31853713, 0.75, 0.76679102],
        "properties": { "magmom": 0.0 },
        "label": "Zr",
        "xyz": [2.4238192118265958, 6.6374846325000005, 8.315954291038375]
      },
      {
        "species": [{ "element": "Zr", "occu": 1 }],
        "abc": [0.8185371300000001, 0.25, 0.73320898],
        "properties": { "magmom": 0.0 },
        "label": "Zr",
        "xyz": [6.228429386826596, 2.2124948775, 7.951752438961623]
      },
      {
        "species": [{ "element": "Zr", "occu": 1 }],
        "abc": [0.68146287, 0.25, 0.23320898],
        "properties": { "magmom": 0.0 },
        "label": "Zr",
        "xyz": [5.185401138173405, 2.2124948775, 2.5291835289616236]
      },
      {
        "species": [{ "element": "Zr", "occu": 1 }],
        "abc": [0.18146287, 0.75, 0.26679102],
        "properties": { "magmom": 0.0 },
        "label": "Zr",
        "xyz": [1.3807909631734046, 6.6374846325000005, 2.8933853810383763]
      },
      {
        "species": [{ "element": "Zr", "occu": 1 }],
        "abc": [0.17281679, 0.25, 0.28873693],
        "properties": { "magmom": 0.0 },
        "label": "Zr",
        "xyz": [1.3150010352896766, 2.2124948775, 3.1313917995736924]
      },
      {
        "species": [{ "element": "Zr", "occu": 1 }],
        "abc": [0.67281679, 0.75, 0.21126307],
        "properties": { "magmom": 0.0 },
        "label": "Zr",
        "xyz": [5.119611210289677, 6.6374846325000005, 2.2911771104263075]
      },
      {
        "species": [{ "element": "Zr", "occu": 1 }],
        "abc": [0.8271832100000001, 0.75, 0.71126307],
        "properties": { "magmom": 0.0 },
        "label": "Zr",
        "xyz": [6.2942193147103245, 6.6374846325000005, 7.713746020426307]
      },
      {
        "species": [{ "element": "Zr", "occu": 1 }],
        "abc": [0.32718321, 0.25, 0.78873693],
        "properties": { "magmom": 0.0 },
        "label": "Zr",
        "xyz": [2.4896091397103235, 2.2124948775, 8.553960709573692]
      },
      {
        "species": [{ "element": "Zr", "occu": 1 }],
        "abc": [0.19941923, 0.44396369, 0.55316199],
        "properties": { "magmom": -0.0 },
        "label": "Zr",
        "xyz": [1.5174248630973306, 3.9290695596839926, 5.999118018335461]
      },
      {
        "species": [{ "element": "Zr", "occu": 1 }],
        "abc": [0.6994192300000001, 0.55603631, 0.94683801],
        "properties": { "magmom": -0.0 },
        "label": "Zr",
        "xyz": [5.322035038097331, 4.920909950316008, 10.268588711664538]
      },
      {
        "species": [{ "element": "Zr", "occu": 1 }],
        "abc": [0.80058077, 0.94396369, 0.44683801],
        "properties": { "magmom": -0.0 },
        "label": "Zr",
        "xyz": [6.0917954869026705, 8.354059314683992, 4.846019801664538]
      },
      {
        "species": [{ "element": "Zr", "occu": 1 }],
        "abc": [0.30058077, 0.05603631, 0.05316199],
        "properties": { "magmom": -0.0 },
        "label": "Zr",
        "xyz": [2.2871853119026695, 0.4959201953160081, 0.5765491083354618]
      },
      {
        "species": [{ "element": "Zr", "occu": 1 }],
        "abc": [0.80058077, 0.55603631, 0.44683801],
        "properties": { "magmom": -0.0 },
        "label": "Zr",
        "xyz": [6.0917954869026705, 4.920909950316008, 4.846019801664538]
      },
      {
        "species": [{ "element": "Zr", "occu": 1 }],
        "abc": [0.30058077, 0.44396369, 0.05316199],
        "properties": { "magmom": -0.0 },
        "label": "Zr",
        "xyz": [2.2871853119026695, 3.9290695596839926, 0.5765491083354618]
      },
      {
        "species": [{ "element": "Zr", "occu": 1 }],
        "abc": [0.19941923, 0.05603631, 0.55316199],
        "properties": { "magmom": -0.0 },
        "label": "Zr",
        "xyz": [1.5174248630973306, 0.4959201953160081, 5.999118018335461]
      },
      {
        "species": [{ "element": "Zr", "occu": 1 }],
        "abc": [0.6994192300000001, 0.94396369, 0.94683801],
        "properties": { "magmom": -0.0 },
        "label": "Zr",
        "xyz": [5.322035038097331, 8.354059314683992, 10.268588711664538]
      },
      {
        "species": [{ "element": "Sb", "occu": 1 }],
        "abc": [0.08928343, 0.75, 0.52549097],
        "properties": { "magmom": -0.0 },
        "label": "Sb",
        "xyz": [0.6793772924738005, 6.6374846325000005, 5.699021992815485]
      },
      {
        "species": [{ "element": "Sb", "occu": 1 }],
        "abc": [0.58928343, 0.25, 0.97450903],
        "properties": { "magmom": -0.0 },
        "label": "Sb",
        "xyz": [4.483987467473801, 2.2124948775, 10.568684737184514]
      },
      {
        "species": [{ "element": "Sb", "occu": 1 }],
        "abc": [0.9107165700000001, 0.25, 0.47450903],
        "properties": { "magmom": -0.0 },
        "label": "Sb",
        "xyz": [6.9298430575262, 2.2124948775, 5.146115827184515]
      },
      {
        "species": [{ "element": "Sb", "occu": 1 }],
        "abc": [0.41071657, 0.75, 0.02549097],
        "properties": { "magmom": -0.0 },
        "label": "Sb",
        "xyz": [3.1252328825261997, 6.6374846325000005, 0.2764530828154854]
      },
      {
        "species": [{ "element": "Sb", "occu": 1 }],
        "abc": [0.06574909, 0.00778915, 0.82216827],
        "properties": { "magmom": 0.0 },
        "label": "Sb",
        "xyz": [0.5002993136219814, 0.06893381790031651, 8.916528199380972]
      },
      {
        "species": [{ "element": "Sb", "occu": 1 }],
        "abc": [0.5657490900000001, 0.99221085, 0.67783173],
        "properties": { "magmom": 0.0 },
        "label": "Sb",
        "xyz": [4.304909488621982, 8.781045692099685, 7.351178530619028]
      },
      {
        "species": [{ "element": "Sb", "occu": 1 }],
        "abc": [0.93425091, 0.50778915, 0.17783173],
        "properties": { "magmom": 0.0 },
        "label": "Sb",
        "xyz": [7.108921036378019, 4.493923572900317, 1.9286096206190284]
      },
      {
        "species": [{ "element": "Sb", "occu": 1 }],
        "abc": [0.43425091, 0.49221085000000003, 0.32216827000000003],
        "properties": { "magmom": 0.0 },
        "label": "Sb",
        "xyz": [3.3043108613780183, 4.3560559370996845, 3.493959289380972]
      },
      {
        "species": [{ "element": "Sb", "occu": 1 }],
        "abc": [0.93425091, 0.99221085, 0.17783173],
        "properties": { "magmom": 0.0 },
        "label": "Sb",
        "xyz": [7.108921036378019, 8.781045692099685, 1.9286096206190284]
      },
      {
        "species": [{ "element": "Sb", "occu": 1 }],
        "abc": [0.43425091, 0.00778915, 0.32216827000000003],
        "properties": { "magmom": 0.0 },
        "label": "Sb",
        "xyz": [3.3043108613780183, 0.06893381790031651, 3.493959289380972]
      },
      {
        "species": [{ "element": "Sb", "occu": 1 }],
        "abc": [0.06574909, 0.49221085000000003, 0.82216827],
        "properties": { "magmom": 0.0 },
        "label": "Sb",
        "xyz": [0.5002993136219814, 4.3560559370996845, 8.916528199380972]
      },
      {
        "species": [{ "element": "Sb", "occu": 1 }],
        "abc": [0.5657490900000001, 0.50778915, 0.67783173],
        "properties": { "magmom": 0.0 },
        "label": "Sb",
        "xyz": [4.304909488621982, 4.493923572900317, 7.351178530619028]
      }
    ]
  },
  "task_ids": null,
  "uncorrected_energy_per_atom": null,
  "energy_per_atom": -24.6334449875,
  "formation_energy_per_atom": -0.7749566481249981,
  "energy_above_hull": 0.0,
  "is_stable": true,
  "equilibrium_reaction_energy_per_atom": null,
  "decomposes_to": null,
  "xas": null,
  "grain_boundaries": null,
  "band_gap": 0.0,
  "cbm": null,
  "vbm": null,
  "efermi": 6.8828876999999995,
  "is_gap_direct": null,
  "is_metal": null,
  "es_source_calc_id": null,
  "bandstructure": null,
  "dos": null,
  "dos_energy_up": null,
  "dos_energy_down": null,
  "is_magnetic": null,
  "ordering": null,
  "total_magnetization": 6e-7,
  "total_magnetization_normalized_vol": null,
  "total_magnetization_normalized_formula_units": null,
  "num_magnetic_sites": null,
  "num_unique_magnetic_sites": null,
  "types_of_magnetic_species": null,
  "bulk_modulus": null,
  "shear_modulus": null,
  "universal_anisotropy": null,
  "homogeneous_poisson": null,
  "e_total": null,
  "e_ionic": null,
  "e_electronic": null,
  "n": null,
  "e_ij_max": null,
  "weighted_surface_energy_EV_PER_ANG2": null,
  "weighted_surface_energy": null,
  "weighted_work_function": null,
  "surface_anisotropy": null,
  "shape_factor": null,
  "has_reconstructed": null,
  "possible_species": null,
  "has_props": null,
  "theoretical": null,
  "database_IDs": null,
  "fields_not_requested": [
    "builder_meta",
    "nsites",
    "elements",
    "nelements",
    "composition",
    "composition_reduced",
    "chemsys",
    "symmetry",
    "property_name",
    "deprecated",
    "deprecation_reasons",
    "last_updated",
    "origins",
    "warnings",
    "task_ids",
    "uncorrected_energy_per_atom",
    "equilibrium_reaction_energy_per_atom",
    "decomposes_to",
    "xas",
    "grain_boundaries",
    "cbm",
    "vbm",
    "is_gap_direct",
    "is_metal",
    "es_source_calc_id",
    "bandstructure",
    "dos",
    "dos_energy_up",
    "dos_energy_down",
    "is_magnetic",
    "ordering",
    "total_magnetization_normalized_vol",
    "total_magnetization_normalized_formula_units",
    "num_magnetic_sites",
    "num_unique_magnetic_sites",
    "types_of_magnetic_species",
    "bulk_modulus",
    "shear_modulus",
    "universal_anisotropy",
    "homogeneous_poisson",
    "e_total",
    "e_ionic",
    "e_electronic",
    "n",
    "e_ij_max",
    "weighted_surface_energy_EV_PER_ANG2",
    "weighted_surface_energy",
    "weighted_work_function",
    "surface_anisotropy",
    "shape_factor",
    "has_reconstructed",
    "possible_species",
    "has_props",
    "theoretical",
    "database_IDs"
  ]
}
