{
  "builder_meta": null,
  "nsites": null,
  "elements": null,
  "nelements": null,
  "composition": null,
  "composition_reduced": null,
  "formula_pretty": "Zr5Te4",
  "formula_anonymous": "A4B5",
  "chemsys": null,
  "volume": 229.1678743391644,
  "density": 7.003356047518872,
  "density_atomic": 25.463097148796045,
  "symmetry": null,
  "property_name": null,
  "material_id": "mp-350",
  "deprecated": null,
  "deprecation_reasons": null,
  "last_updated": null,
  "origins": null,
  "warnings": null,
  "structure": {
    "@module": "pymatgen.core.structure",
    "@class": "Structure",
    "charge": 0,
    "lattice": {
      "matrix": [
        [3.76745144, 0.0006859300000000001, 0.94782204],
        [1.88429259, 7.68188961, 0.47647025],
        [0.00110256, 0.00308401, 7.91904248]
      ],
      "pbc": [true, true, true],
      "a": 3.884849732327854,
      "b": 7.923951693699926,
      "c": 7.91904315727606,
      "alpha": 86.52913195014486,
      "beta": 75.87051159333919,
      "gamma": 75.79141182547163,
      "volume": 229.1678743391644
    },
    "properties": {},
    "sites": [
      {
        "species": [{ "element": "Zr", "occu": 1 }],
        "abc": [-0.0, 0.0, -0.0],
        "properties": { "magmom": 0.0 },
        "label": "Zr",
        "xyz": [0.0, 0.0, 0.0]
      },
      {
        "species": [{ "element": "Zr", "occu": 1 }],
        "abc": [0.30989731, 0.05980416, 0.32154792],
        "properties": { "magmom": -0.0 },
        "label": "Zr",
        "xyz": [1.2805661282254759, 0.46061318020138514, 2.8685740414565943]
      },
      {
        "species": [{ "element": "Zr", "occu": 1 }],
        "abc": [0.63115414, 0.67846125, 0.06014418],
        "properties": { "magmom": 0.0 },
        "label": "Zr",
        "xyz": [3.6563283921492, 5.212482839974424, 1.3977727222768246]
      },
      {
        "species": [{ "element": "Zr", "occu": 1 }],
        "abc": [0.36884586, 0.32153875, 0.93985582],
        "properties": { "magmom": 0.0 },
        "label": "Zr",
        "xyz": [1.9965181978508002, 2.473176710025575, 7.945562047723175]
      },
      {
        "species": [{ "element": "Zr", "occu": 1 }],
        "abc": [0.69010269, 0.94019584, 0.67845208],
        "properties": { "magmom": -0.0 },
        "label": "Zr",
        "xyz": [4.372280461774524, 7.225046369798615, 6.474760728543406]
      },
      {
        "species": [{ "element": "Te", "occu": 1 }],
        "abc": [0.05258061, 0.22662562, 0.66718621],
        "properties": { "magmom": 0.0 },
        "label": "Te",
        "xyz": [0.6258594841584318, 1.7430066711991277, 5.4412933659126494]
      },
      {
        "species": [{ "element": "Te", "occu": 1 }],
        "abc": [0.72044081, 0.33246717000000003, 0.22636181],
        "properties": { "magmom": -0.0 },
        "label": "Te",
        "xyz": [3.340940769395771, 2.5551683729395656, 2.6338291830798335]
      },
      {
        "species": [{ "element": "Te", "occu": 1 }],
        "abc": [0.27955919, 0.66753283, 0.77363819],
        "properties": { "magmom": -0.0 },
        "label": "Te",
        "xyz": [2.3119058206042293, 5.130491177060435, 6.709505586920166]
      },
      {
        "species": [{ "element": "Te", "occu": 1 }],
        "abc": [0.94741939, 0.77337438, 0.33281379],
        "properties": { "magmom": 0.0 },
        "label": "Te",
        "xyz": [5.026987105841568, 5.942652878800873, 3.90204140408735]
      }
    ]
  },
  "task_ids": null,
  "uncorrected_energy_per_atom": null,
  "energy_per_atom": -24.900644826666664,
  "formation_energy_per_atom": -0.9653274083333341,
  "energy_above_hull": 0.0,
  "is_stable": true,
  "equilibrium_reaction_energy_per_atom": null,
  "decomposes_to": null,
  "xas": null,
  "grain_boundaries": null,
  "band_gap": 0.0,
  "cbm": null,
  "vbm": null,
  "efermi": 6.29423714,
  "is_gap_direct": null,
  "is_metal": null,
  "es_source_calc_id": null,
  "bandstructure": null,
  "dos": null,
  "dos_energy_up": null,
  "dos_energy_down": null,
  "is_magnetic": null,
  "ordering": null,
  "total_magnetization": 3e-7,
  "total_magnetization_normalized_vol": null,
  "total_magnetization_normalized_formula_units": null,
  "num_magnetic_sites": null,
  "num_unique_magnetic_sites": null,
  "types_of_magnetic_species": null,
  "bulk_modulus": null,
  "shear_modulus": null,
  "universal_anisotropy": null,
  "homogeneous_poisson": null,
  "e_total": null,
  "e_ionic": null,
  "e_electronic": null,
  "n": null,
  "e_ij_max": null,
  "weighted_surface_energy_EV_PER_ANG2": null,
  "weighted_surface_energy": null,
  "weighted_work_function": null,
  "surface_anisotropy": null,
  "shape_factor": null,
  "has_reconstructed": null,
  "possible_species": null,
  "has_props": null,
  "theoretical": null,
  "database_IDs": null,
  "fields_not_requested": [
    "builder_meta",
    "nsites",
    "elements",
    "nelements",
    "composition",
    "composition_reduced",
    "chemsys",
    "symmetry",
    "property_name",
    "deprecated",
    "deprecation_reasons",
    "last_updated",
    "origins",
    "warnings",
    "task_ids",
    "uncorrected_energy_per_atom",
    "equilibrium_reaction_energy_per_atom",
    "decomposes_to",
    "xas",
    "grain_boundaries",
    "cbm",
    "vbm",
    "is_gap_direct",
    "is_metal",
    "es_source_calc_id",
    "bandstructure",
    "dos",
    "dos_energy_up",
    "dos_energy_down",
    "is_magnetic",
    "ordering",
    "total_magnetization_normalized_vol",
    "total_magnetization_normalized_formula_units",
    "num_magnetic_sites",
    "num_unique_magnetic_sites",
    "types_of_magnetic_species",
    "bulk_modulus",
    "shear_modulus",
    "universal_anisotropy",
    "homogeneous_poisson",
    "e_total",
    "e_ionic",
    "e_electronic",
    "n",
    "e_ij_max",
    "weighted_surface_energy_EV_PER_ANG2",
    "weighted_surface_energy",
    "weighted_work_function",
    "surface_anisotropy",
    "shape_factor",
    "has_reconstructed",
    "possible_species",
    "has_props",
    "theoretical",
    "database_IDs"
  ]
}
