{
  "builder_meta": null,
  "nsites": null,
  "elements": null,
  "nelements": null,
  "composition": null,
  "composition_reduced": null,
  "formula_pretty": "Zr7As4",
  "formula_anonymous": "A4B7",
  "chemsys": null,
  "volume": 440.254363163733,
  "density": 7.077763293080237,
  "density_atomic": 20.011561961987862,
  "symmetry": null,
  "property_name": null,
  "material_id": "mp-1191610",
  "deprecated": null,
  "deprecation_reasons": null,
  "last_updated": null,
  "origins": null,
  "warnings": null,
  "structure": {
    "@module": "pymatgen.core.structure",
    "@class": "Structure",
    "charge": 0,
    "lattice": {
      "matrix": [
        [0.0, -3.7054537400000003, -0.0],
        [-7.85304026, 1.8527268700000001, 2.07627047],
        [0.02440643, -0.0, -15.13594842]
      ],
      "pbc": [true, true, true],
      "a": 3.7054537400000003,
      "b": 8.331490697623979,
      "c": 15.135968097440145,
      "alpha": 104.52054331336109,
      "beta": 90.0,
      "gamma": 102.84864858116894,
      "volume": 440.25436316373305
    },
    "properties": {},
    "sites": [
      {
        "species": [{ "element": "Zr", "occu": 1 }],
        "abc": [-0.0, -0.0, -0.0],
        "properties": { "magmom": -0.0 },
        "label": "Zr",
        "xyz": [0.0, 0.0, 0.0]
      },
      {
        "species": [{ "element": "Zr", "occu": 1 }],
        "abc": [0.5, -0.0, 0.5],
        "properties": { "magmom": 0.0 },
        "label": "Zr",
        "xyz": [0.012203215, -1.8527268700000001, -7.56797421]
      },
      {
        "species": [{ "element": "Zr", "occu": 1 }],
        "abc": [0.43000445, 0.860006899999999, 0.83432228],
        "properties": { "magmom": -0.0 },
        "label": "Zr",
        "xyz": [-6.733305981253526, -3.7054537418423905e-6, -10.842652065270556]
      },
      {
        "species": [{ "element": "Zr", "occu": 1 }],
        "abc": [0.56999555, 0.139993099999999, 0.16567772],
        "properties": { "magmom": -0.0 },
        "label": "Zr",
        "xyz": [-1.0953278487464586, -1.8527231645462623, -2.2170258847294475]
      },
      {
        "species": [{ "element": "Zr", "occu": 1 }],
        "abc": [0.19504865000000002, 0.3900963, 0.30806979],
        "properties": { "magmom": -0.0 },
        "label": "Zr",
        "xyz": [-3.0559230654122884, -1.8527268700330168e-6, -3.852983023053971]
      },
      {
        "species": [{ "element": "Zr", "occu": 1 }],
        "abc": [0.8049513500000001, 0.609903699999999, 0.69193021],
        "properties": { "magmom": -0.0 },
        "label": "Zr",
        "xyz": [-4.772710764587704, -1.852725017273132, -9.206694926946032]
      },
      {
        "species": [{ "element": "Zr", "occu": 1 }],
        "abc": [0.20558656, 0.41117211000000004, 0.79595875],
        "properties": { "magmom": -0.0 },
        "label": "Zr",
        "xyz": [
          -3.2095246221043863, -1.8712541386411985e-6, -11.193886074367084
        ]
      },
      {
        "species": [{ "element": "Zr", "occu": 1 }],
        "abc": [0.79441344, 0.58882789, 0.20404125],
        "properties": { "magmom": -0.0 },
        "label": "Zr",
        "xyz": [-4.619109207895614, -1.8527249987458614, -1.8657918756329166]
      },
      {
        "species": [{ "element": "Zr", "occu": 1 }],
        "abc": [0.33846981, 0.67693962, 0.03262274],
        "properties": { "magmom": -0.0 },
        "label": "Zr",
        "xyz": [-5.315237884828883, 0.0, 0.9117336330199506]
      },
      {
        "species": [{ "element": "Zr", "occu": 1 }],
        "abc": [0.66153019, 0.32306138, 0.96737726],
        "properties": { "magmom": -0.0 },
        "label": "Zr",
        "xyz": [-2.5134037982113773, -1.85272501727313, -13.971409506749481]
      },
      {
        "species": [{ "element": "Zr", "occu": 1 }],
        "abc": [0.00279217, 0.00558234, 0.66386084],
        "properties": { "magmom": -0.0 },
        "label": "Zr",
        "xyz": [-0.0276358676438072, -3.705453740000114e-6, -10.036572984602373]
      },
      {
        "species": [{ "element": "Zr", "occu": 1 }],
        "abc": [0.99720783, 0.99441766, 0.33613916],
        "properties": { "magmom": -0.0 },
        "label": "Zr",
        "xyz": [-7.800997962356194, -1.85272316454626, -3.023104965397627]
      },
      {
        "species": [{ "element": "Zr", "occu": 1 }],
        "abc": [0.17929857, 0.35859713, 0.54379585],
        "properties": { "magmom": 0.0 },
        "label": "Zr",
        "xyz": [-2.8028055836631385, -1.852726871920396e-8, -7.486321304964306]
      },
      {
        "species": [{ "element": "Zr", "occu": 1 }],
        "abc": [0.8207014300000001, 0.64140287, 0.45620415000000003],
        "properties": { "magmom": 0.0 },
        "label": "Zr",
        "xyz": [-5.025828246336862, -1.852726851472732, -5.573356645035695]
      },
      {
        "species": [{ "element": "As", "occu": 1 }],
        "abc": [0.1782692, 0.35653941, 0.10858959],
        "properties": { "magmom": 0.0 },
        "label": "As",
        "xyz": [-2.797268056779583, 1.8712541387522208e-6, -0.903334184814725]
      },
      {
        "species": [{ "element": "As", "occu": 1 }],
        "abc": [0.8217308, 0.64346059, 0.89141041],
        "properties": { "magmom": 0.0 },
        "label": "As",
        "xyz": [-5.031365773220417, -1.8527287412541389, -12.156343765185275]
      },
      {
        "species": [{ "element": "As", "occu": 1 }],
        "abc": [0.37236285, 0.744725699999999, 0.59954894],
        "properties": { "magmom": 0.0 },
        "label": "As",
        "xyz": [-5.83372805552099, -1.9984014443252818e-15, -7.528489851945597]
      },
      {
        "species": [{ "element": "As", "occu": 1 }],
        "abc": [0.62763715, 0.2552743, 0.40045106],
        "properties": { "magmom": 0.0 },
        "label": "As",
        "xyz": [-1.9949057744790024, -1.8527268700000001, -5.531188098054405]
      },
      {
        "species": [{ "element": "As", "occu": 1 }],
        "abc": [0.36995557, 0.73991114, 0.33992507],
        "properties": { "magmom": 0.0 },
        "label": "As",
        "xyz": [-5.802255613816296, 0.0, -3.6088326757788534]
      },
      {
        "species": [{ "element": "As", "occu": 1 }],
        "abc": [0.63004443, 0.26008886000000003, 0.6600749300000001],
        "properties": { "magmom": 0.0 },
        "label": "As",
        "xyz": [-2.026378216183704, -1.8527268700000001, -9.450845274221148]
      },
      {
        "species": [{ "element": "As", "occu": 1 }],
        "abc": [0.06202518, 0.12405136, 0.85032233],
        "properties": { "magmom": 0.0 },
        "label": "As",
        "xyz": [-0.9534269919631717, 1.8527268700052613e-6, -12.61287075172288]
      },
      {
        "species": [{ "element": "As", "occu": 1 }],
        "abc": [0.93797482, 0.8759486400000001, 0.14967767],
        "properties": { "magmom": 0.0 },
        "label": "As",
        "xyz": [-6.875206838036829, -1.85272872272687, -0.4468071982771207]
      }
    ]
  },
  "task_ids": null,
  "uncorrected_energy_per_atom": null,
  "energy_per_atom": -8.134681645,
  "formation_energy_per_atom": -0.997009414090911,
  "energy_above_hull": 0.0,
  "is_stable": true,
  "equilibrium_reaction_energy_per_atom": null,
  "decomposes_to": null,
  "xas": null,
  "grain_boundaries": null,
  "band_gap": 0.0,
  "cbm": null,
  "vbm": null,
  "efermi": 5.52474548,
  "is_gap_direct": null,
  "is_metal": null,
  "es_source_calc_id": null,
  "bandstructure": null,
  "dos": null,
  "dos_energy_up": null,
  "dos_energy_down": null,
  "is_magnetic": null,
  "ordering": null,
  "total_magnetization": 1.4e-6,
  "total_magnetization_normalized_vol": null,
  "total_magnetization_normalized_formula_units": null,
  "num_magnetic_sites": null,
  "num_unique_magnetic_sites": null,
  "types_of_magnetic_species": null,
  "bulk_modulus": null,
  "shear_modulus": null,
  "universal_anisotropy": null,
  "homogeneous_poisson": null,
  "e_total": null,
  "e_ionic": null,
  "e_electronic": null,
  "n": null,
  "e_ij_max": null,
  "weighted_surface_energy_EV_PER_ANG2": null,
  "weighted_surface_energy": null,
  "weighted_work_function": null,
  "surface_anisotropy": null,
  "shape_factor": null,
  "has_reconstructed": null,
  "possible_species": null,
  "has_props": null,
  "theoretical": null,
  "database_IDs": null,
  "fields_not_requested": [
    "builder_meta",
    "nsites",
    "elements",
    "nelements",
    "composition",
    "composition_reduced",
    "chemsys",
    "symmetry",
    "property_name",
    "deprecated",
    "deprecation_reasons",
    "last_updated",
    "origins",
    "warnings",
    "task_ids",
    "uncorrected_energy_per_atom",
    "equilibrium_reaction_energy_per_atom",
    "decomposes_to",
    "xas",
    "grain_boundaries",
    "cbm",
    "vbm",
    "is_gap_direct",
    "is_metal",
    "es_source_calc_id",
    "bandstructure",
    "dos",
    "dos_energy_up",
    "dos_energy_down",
    "is_magnetic",
    "ordering",
    "total_magnetization_normalized_vol",
    "total_magnetization_normalized_formula_units",
    "num_magnetic_sites",
    "num_unique_magnetic_sites",
    "types_of_magnetic_species",
    "bulk_modulus",
    "shear_modulus",
    "universal_anisotropy",
    "homogeneous_poisson",
    "e_total",
    "e_ionic",
    "e_electronic",
    "n",
    "e_ij_max",
    "weighted_surface_energy_EV_PER_ANG2",
    "weighted_surface_energy",
    "weighted_work_function",
    "surface_anisotropy",
    "shape_factor",
    "has_reconstructed",
    "possible_species",
    "has_props",
    "theoretical",
    "database_IDs"
  ]
}
