{"builder_meta": null, "nsites": null, "elements": null, "nelements": null, "composition": null, "composition_reduced": null, "formula_pretty": "Zr7P4", "formula_anonymous": "A4B7", "chemsys": null, "volume": 411.33947451065575, "density": 6.155984321947747, "density_atomic": 18.697248841393442, "symmetry": null, "property_name": null, "material_id": "mp-583740", "deprecated": null, "deprecation_reasons": null, "last_updated": null, "origins": null, "warnings": null, "structure": {"@module": "pymatgen.core.structure", "@class": "Structure", "charge": 0, "lattice": {"matrix": [[3.626390149999999, -6.136000000000001e-05, 0.00019093000000000002], [-1.81342921, 7.64788963, -2.03879469], [0.0007781800000000001, 0.00085397, 14.83130371]], "pbc": [true, true, true], "a": 3.626390155545364, "b": 8.120063120463717, "c": 14.83130375500039, "alpha": 104.53898112565876, "beta": 89.99397718615957, "gamma": 102.9062320958989, "volume": 411.3394745106556}, "properties": {}, "sites": [{"species": [{"element": "Zr", "occu": 1}], "abc": [0.66014529, 0.32000661, 0.96962928], "properties": {"magmom": -0.0}, "label": "Zr", "xyz": [1.8143895893709252, 2.448162761951702, 13.728564602095949]}, {"species": [{"element": "Zr", "occu": 1}], "abc": [0.0037796600000000002, 0.00829445, 0.66689444], "properties": {"magmom": -0.0}, "label": "Zr", "xyz": [-0.0008159122012163022, 0.06400431406654271, 9.874004023184385]}, {"species": [{"element": "Zr", "occu": 1}], "abc": [0.8229561, 0.646290799999999, 0.45771291000000003], "properties": {"magmom": -0.0}, "label": "Zr", "xyz": [1.8127134630804513, 4.943101083791853, 5.47098205597022]}, {"species": [{"element": "Zr", "occu": 1}], "abc": [0.1770439, 0.3537092, 0.54228709], "properties": {"magmom": -0.0}, "label": "Zr", "xyz": [0.001025656919549053, 2.7055811562081393, 7.321717894029783]}, {"species": [{"element": "Zr", "occu": 1}], "abc": [0.43180237, 0.862993999999999, 0.8342160200000001], "properties": {"magmom": -0.0}, "label": "Zr", "xyz": [0.0015545038823603407, 6.600768763413389, 10.613126011692081]}, {"species": [{"element": "Zr", "occu": 1}], "abc": [-0.0, -0.0, -0.0], "properties": {"magmom": -0.0}, "label": "Zr", "xyz": [0.0, 0.0, 0.0]}, {"species": [{"element": "Zr", "occu": 1}], "abc": [0.56819763, 0.137006, 0.16578398], "properties": {"magmom": -0.0}, "label": "Zr", "xyz": [1.8121846161176403, 1.0479134765866036, 2.1795739383079216]}, {"species": [{"element": "Zr", "occu": 1}], "abc": [0.20465645000000002, 0.40898259000000003, 0.79619262], "properties": {"magmom": 0.0}, "label": "Zr", "xyz": [0.0011227404995449472, 3.128521075803471, 10.974782101142171]}, {"species": [{"element": "Zr", "occu": 1}], "abc": [0.99622034, 0.99170555, 0.33310556], "properties": {"magmom": -0.0}, "label": "Zr", "xyz": [1.814555032201215, 7.584677925933457, 2.918695926815615]}, {"species": [{"element": "Zr", "occu": 1}], "abc": [0.19496171, 0.38978144000000003, 0.31005483], "properties": {"magmom": -0.0}, "label": "Zr", "xyz": [0.0004074544269032017, 2.981258247615117, 3.803870244389156]}, {"species": [{"element": "Zr", "occu": 1}], "abc": [0.79534355, 0.59101741, 0.20380738], "properties": {"magmom": 0.0}, "label": "Zr", "xyz": [1.8126163795004537, 4.520161164196529, 1.817917848857829]}, {"species": [{"element": "Zr", "occu": 1}], "abc": [0.80503829, 0.61021856, 0.68994517], "properties": {"magmom": -0.0}, "label": "Zr", "xyz": [1.8133316655730956, 4.667423992384883, 8.988829705610843]}, {"species": [{"element": "Zr", "occu": 1}], "abc": [0.33985471, 0.67999339, 0.03037072], "properties": {"magmom": -0.0}, "label": "Zr", "xyz": [-0.0006504693709263168, 5.200519478048299, -0.9358646520959477]}, {"species": [{"element": "Zr", "occu": 1}], "abc": [0.5, -0.0, 0.5], "properties": {"magmom": -0.0}, "label": "Zr", "xyz": [1.8135841649999995, 0.000396305, 7.41574732]}, {"species": [{"element": "P", "occu": 1}], "abc": [0.37404575, 0.74804018, 0.60034574], "properties": {"magmom": 0.0}, "label": "P", "xyz": [0.000385087831657378, 5.721418461249701, 7.378881070609098]}, {"species": [{"element": "P", "occu": 1}], "abc": [0.06272586, 0.12561692, 0.8525928700000001], "properties": {"magmom": 0.0}, "label": "P", "xyz": [0.00033451957562234094, 0.9614285796949638, 12.388968662728843]}, {"species": [{"element": "P", "occu": 1}], "abc": [0.62595425, 0.25195982, 0.39965426], "properties": {"magmom": 0.0}, "label": "P", "xyz": [1.8133540321683415, 1.9272637787502986, 5.4138188793909015]}, {"species": [{"element": "P", "occu": 1}], "abc": [0.63101131, 0.26127628, 0.65941729], "properties": {"magmom": 0.0}, "label": "P", "xyz": [1.815000306437189, 1.998736556106136, 9.247449886317611]}, {"species": [{"element": "P", "occu": 1}], "abc": [0.93727414, 0.8743820800000001, 0.14740713], "properties": {"magmom": 0.0}, "label": "P", "xyz": [1.8134064138535866, 6.687246012415406, 0.4037333260658471]}, {"species": [{"element": "P", "occu": 1}], "abc": [0.17771015, 0.35604316, 0.11086941], "properties": {"magmom": 0.0}, "label": "P", "xyz": [-0.001126452492207466, 2.7230625660516847, 0.9184729180386302]}, {"species": [{"element": "P", "occu": 1}], "abc": [0.36898869, 0.73872372, 0.34058271], "properties": {"magmom": 0.0}, "label": "P", "xyz": [-0.0012611864371900577, 5.649945683893864, 3.54525006368239]}, {"species": [{"element": "P", "occu": 1}], "abc": [0.82228985, 0.64395684, 0.88913059], "properties": {"magmom": 0.0}, "label": "P", "xyz": [1.8148655724922063, 4.925619673948314, 11.87422703196137]}]}, "task_ids": null, "uncorrected_energy_per_atom": null, "energy_per_atom": -8.575788369545455, "formation_energy_per_atom": -1.167079413961038, "energy_above_hull": 0.0, "is_stable": true, "equilibrium_reaction_energy_per_atom": null, "decomposes_to": null, "xas": null, "grain_boundaries": null, "band_gap": 0.0, "cbm": null, "vbm": null, "efermi": 6.12264949, "is_gap_direct": null, "is_metal": null, "es_source_calc_id": null, "bandstructure": null, "dos": null, "dos_energy_up": null, "dos_energy_down": null, "is_magnetic": null, "ordering": null, "total_magnetization": 2e-07, "total_magnetization_normalized_vol": null, "total_magnetization_normalized_formula_units": null, "num_magnetic_sites": null, "num_unique_magnetic_sites": null, "types_of_magnetic_species": null, "bulk_modulus": null, "shear_modulus": null, "universal_anisotropy": null, "homogeneous_poisson": null, "e_total": null, "e_ionic": null, "e_electronic": null, "n": null, "e_ij_max": null, "weighted_surface_energy_EV_PER_ANG2": null, "weighted_surface_energy": null, "weighted_work_function": null, "surface_anisotropy": null, "shape_factor": null, "has_reconstructed": null, "possible_species": null, "has_props": null, "theoretical": null, "database_IDs": null, "fields_not_requested": ["builder_meta", "nsites", "elements", "nelements", "composition", "composition_reduced", "chemsys", "symmetry", "property_name", "deprecated", "deprecation_reasons", "last_updated", "origins", "warnings", "task_ids", "uncorrected_energy_per_atom", "equilibrium_reaction_energy_per_atom", "decomposes_to", "xas", "grain_boundaries", "cbm", "vbm", "is_gap_direct", "is_metal", "es_source_calc_id", "bandstructure", "dos", "dos_energy_up", "dos_energy_down", "is_magnetic", "ordering", "total_magnetization_normalized_vol", "total_magnetization_normalized_formula_units", "num_magnetic_sites", "num_unique_magnetic_sites", "types_of_magnetic_species", "bulk_modulus", "shear_modulus", "universal_anisotropy", "homogeneous_poisson", "e_total", "e_ionic", "e_electronic", "n", "e_ij_max", "weighted_surface_energy_EV_PER_ANG2", "weighted_surface_energy", "weighted_work_function", "surface_anisotropy", "shape_factor", "has_reconstructed", "possible_species", "has_props", "theoretical", "database_IDs"]}