{
  "builder_meta": null,
  "nsites": null,
  "elements": null,
  "nelements": null,
  "composition": null,
  "composition_reduced": null,
  "formula_pretty": "Zr7Sb4",
  "formula_anonymous": "A4B7",
  "chemsys": null,
  "volume": 992.9579829092024,
  "density": 7.529487006897481,
  "density_atomic": 22.567226884300055,
  "symmetry": null,
  "property_name": null,
  "material_id": "mp-32967",
  "deprecated": null,
  "deprecation_reasons": null,
  "last_updated": null,
  "origins": null,
  "warnings": null,
  "structure": {
    "@module": "pymatgen.core.structure",
    "@class": "Structure",
    "charge": 0,
    "lattice": {
      "matrix": [
        [8.51493047, -0.49650272, 0.0],
        [-3.53076714, 10.59116575, 0.0],
        [0.0, 0.0, 11.228745140000001]
      ],
      "pbc": [true, true, true],
      "a": 8.529393639638272,
      "b": 11.16418866469377,
      "c": 11.228745140000001,
      "alpha": 90.0,
      "beta": 90.0,
      "gamma": 111.77391080702192,
      "volume": 992.9579829092025
    },
    "properties": {},
    "sites": [
      {
        "species": [{ "element": "Zr", "occu": 1 }],
        "abc": [0.3956943, 0.8404373900000001, 0.9394137100000001],
        "properties": { "magmom": -0.0 },
        "label": "Zr",
        "xyz": [0.4019207320359559, 8.704748403748896, 10.548437130611871]
      },
      {
        "species": [{ "element": "Zr", "occu": 1 }],
        "abc": [0.3956943, 0.34043739, 0.56058629],
        "properties": { "magmom": -0.0 },
        "label": "Zr",
        "xyz": [2.167304302035956, 3.4091655287488964, 6.294680579388132]
      },
      {
        "species": [{ "element": "Zr", "occu": 1 }],
        "abc": [0.66046481, 0.9825399100000001, 0.26250241],
        "properties": { "magmom": -0.0 },
        "label": "Zr",
        "xyz": [2.154692307065203, 10.0783204681708, 2.947572660525788]
      },
      {
        "species": [{ "element": "Zr", "occu": 1 }],
        "abc": [0.01381605, 0.92996208, 0.29419905],
        "properties": { "magmom": 0.0 },
        "label": "Zr",
        "xyz": [-3.1658368483900077, 9.842522824090103, 3.3034861528801174]
      },
      {
        "species": [{ "element": "Zr", "occu": 1 }],
        "abc": [0.64669749, 0.82792674, 0.7229096700000001],
        "properties": { "magmom": 0.0 },
        "label": "Zr",
        "xyz": [2.5833676345541967, 8.447622269394982, 8.117368443671506]
      },
      {
        "species": [{ "element": "Zr", "occu": 1 }],
        "abc": [0.01139506, 0.7107215100000001, 0.0786617],
        "properties": { "magmom": 0.0 },
        "label": "Zr",
        "xyz": [-2.4123640095977033, 7.52171163621572, 0.8832721815791381]
      },
      {
        "species": [{ "element": "Zr", "occu": 1 }],
        "abc": [0.6350051600000001, 0.6348672, 0.94139951],
        "properties": { "magmom": -0.0 },
        "label": "Zr",
        "xyz": [3.165456537467418, 6.408701955284364, 10.570735172710883]
      },
      {
        "species": [{ "element": "Zr", "occu": 1 }],
        "abc": [0.20224248, 0.05478684, 0.00055291],
        "properties": { "magmom": 0.0 },
        "label": "Zr",
        "xyz": [1.528641080903928, 0.4798425619391844, 0.006208485475357401]
      },
      {
        "species": [{ "element": "Zr", "occu": 1 }],
        "abc": [0.66046481, 0.48253991, 0.23749759],
        "properties": { "magmom": -0.0 },
        "label": "Zr",
        "xyz": [3.920075877065203, 4.7827375931708, 2.666799909474213]
      },
      {
        "species": [{ "element": "Zr", "occu": 1 }],
        "abc": [0.01381605, 0.42996208, 0.20580095],
        "properties": { "magmom": 0.0 },
        "label": "Zr",
        "xyz": [-1.4004532783900079, 4.546939949090104, 2.3108864171198835]
      },
      {
        "species": [{ "element": "Zr", "occu": 1 }],
        "abc": [0.64669749, 0.32792674, 0.77709033],
        "properties": { "magmom": 0.0 },
        "label": "Zr",
        "xyz": [4.348751204554197, 3.1520393943949823, 8.725749266328497]
      },
      {
        "species": [{ "element": "Zr", "occu": 1 }],
        "abc": [0.01139506, 0.21072151, 0.4213383],
        "properties": { "magmom": 0.0 },
        "label": "Zr",
        "xyz": [-0.6469804395977032, 2.2261287612157195, 4.731100388420862]
      },
      {
        "species": [{ "element": "Zr", "occu": 1 }],
        "abc": [0.6350051600000001, 0.1348672, 0.55860049],
        "properties": { "magmom": -0.0 },
        "label": "Zr",
        "xyz": [4.930840107467418, 1.1131190802843647, 6.272382537289119]
      },
      {
        "species": [{ "element": "Zr", "occu": 1 }],
        "abc": [0.20224248, 0.55478684, 0.49944709000000004],
        "properties": { "magmom": 0.0 },
        "label": "Zr",
        "xyz": [-0.2367424890960721, 5.775425436939185, 5.608164084524644]
      },
      {
        "species": [{ "element": "Zr", "occu": 1 }],
        "abc": [0.79775752, 0.44521316, 0.50055291],
        "properties": { "magmom": 0.0 },
        "label": "Zr",
        "xyz": [5.220905819096072, 4.319237593060816, 5.620581055475358]
      },
      {
        "species": [{ "element": "Zr", "occu": 1 }],
        "abc": [0.36499484, 0.865132799999999, 0.44139951],
        "properties": { "magmom": -0.0 },
        "label": "Zr",
        "xyz": [0.05332322253258592, 8.981543949715624, 4.956362602710882]
      },
      {
        "species": [{ "element": "Zr", "occu": 1 }],
        "abc": [0.98860494, 0.78927849, 0.5786617],
        "properties": { "magmom": 0.0 },
        "label": "Zr",
        "xyz": [5.631143769597702, 7.868534268784282, 6.497644751579138]
      },
      {
        "species": [{ "element": "Zr", "occu": 1 }],
        "abc": [0.35330251, 0.67207326, 0.22290967],
        "properties": { "magmom": 0.0 },
        "label": "Zr",
        "xyz": [0.6354121254458032, 6.942623635605019, 2.502995873671504]
      },
      {
        "species": [{ "element": "Zr", "occu": 1 }],
        "abc": [0.98618395, 0.57003792, 0.79419905],
        "properties": { "magmom": 0.0 },
        "label": "Zr",
        "xyz": [6.384616608390008, 5.547723080909895, 8.917858722880117]
      },
      {
        "species": [{ "element": "Zr", "occu": 1 }],
        "abc": [0.33953519, 0.51746009, 0.76250241],
        "properties": { "magmom": -0.0 },
        "label": "Zr",
        "xyz": [1.0640874529347963, 5.311925436829201, 8.561945230525788]
      },
      {
        "species": [{ "element": "Zr", "occu": 1 }],
        "abc": [0.79775752, 0.94521316, 0.99944709],
        "properties": { "magmom": 0.0 },
        "label": "Zr",
        "xyz": [3.455522249096072, 9.614820468060817, 11.222536654524644]
      },
      {
        "species": [{ "element": "Zr", "occu": 1 }],
        "abc": [0.36499484, 0.3651328, 0.05860049],
        "properties": { "magmom": -0.0 },
        "label": "Zr",
        "xyz": [1.8187067925325828, 3.685961074715635, 0.6580099672891186]
      },
      {
        "species": [{ "element": "Zr", "occu": 1 }],
        "abc": [0.98860494, 0.28927849, 0.921338299999999],
        "properties": { "magmom": 0.0 },
        "label": "Zr",
        "xyz": [7.396527339597702, 2.572951393784281, 10.345472958420853]
      },
      {
        "species": [{ "element": "Zr", "occu": 1 }],
        "abc": [0.35330251, 0.17207326, 0.27709033],
        "properties": { "magmom": 0.0 },
        "label": "Zr",
        "xyz": [2.4007956954458036, 1.647040760605018, 3.1113766963284966]
      },
      {
        "species": [{ "element": "Zr", "occu": 1 }],
        "abc": [0.98618395, 0.07003792, 0.70580095],
        "properties": { "magmom": 0.0 },
        "label": "Zr",
        "xyz": [8.150000178390009, 0.25214020590989605, 7.925258987119883]
      },
      {
        "species": [{ "element": "Zr", "occu": 1 }],
        "abc": [0.33953519, 0.01746009, 0.73749759],
        "properties": { "magmom": -0.0 },
        "label": "Zr",
        "xyz": [2.8294710229347966, 0.016342561829200714, 8.281172479474213]
      },
      {
        "species": [{ "element": "Zr", "occu": 1 }],
        "abc": [0.6043057, 0.65956261, 0.43941371],
        "properties": { "magmom": -0.0 },
        "label": "Zr",
        "xyz": [2.816859027964042, 6.685497501251104, 4.93406456061187]
      },
      {
        "species": [{ "element": "Zr", "occu": 1 }],
        "abc": [0.6043057, 0.15956261, 0.06058629],
        "properties": { "magmom": -0.0 },
        "label": "Zr",
        "xyz": [4.582242597964043, 1.3899146262511033, 0.6803080093881306]
      },
      {
        "species": [{ "element": "Sb", "occu": 1 }],
        "abc": [0.28596908, 0.75128237, 0.68262255],
        "properties": { "magmom": 0.0 },
        "label": "Sb",
        "xyz": [-0.21759627208745425, 7.814971679666929, 7.664994640766908]
      },
      {
        "species": [{ "element": "Sb", "occu": 1 }],
        "abc": [0.28596908, 0.25128237000000003, 0.8173774500000001],
        "properties": { "magmom": 0.0 },
        "label": "Sb",
        "xyz": [1.5477872979125453, 2.51938880466693, 9.178123069233095]
      },
      {
        "species": [{ "element": "Sb", "occu": 1 }],
        "abc": [0.01185142, 0.66098242, 0.34645117000000003],
        "properties": { "magmom": -0.0 },
        "label": "Sb",
        "xyz": [-2.2328609913829114, 6.994690105790252, 3.8902118913848143]
      },
      {
        "species": [{ "element": "Sb", "occu": 1 }],
        "abc": [0.77354565, 0.93847737, 0.49258531],
        "properties": { "magmom": 0.0 },
        "label": "Sb",
        "xyz": [3.273142365491333, 9.55550185902491, 5.531114905697894]
      },
      {
        "species": [{ "element": "Sb", "occu": 1 }],
        "abc": [0.6792553100000001, 0.57830709, 0.67638051],
        "properties": { "magmom": 0.0 },
        "label": "Sb",
        "xyz": [3.7419440658272736, 5.7876941356007245, 7.594904364453222]
      },
      {
        "species": [{ "element": "Sb", "occu": 1 }],
        "abc": [0.01185142, 0.16098242000000001, 0.15354883],
        "properties": { "magmom": -0.0 },
        "label": "Sb",
        "xyz": [-0.46747742138291143, 1.6991072307902528, 1.7241606786151864]
      },
      {
        "species": [{ "element": "Sb", "occu": 1 }],
        "abc": [0.77354565, 0.43847737000000003, 0.00741469],
        "properties": { "magmom": 0.0 },
        "label": "Sb",
        "xyz": [5.038525935491333, 4.259918984024909, 0.0832576643021066]
      },
      {
        "species": [{ "element": "Sb", "occu": 1 }],
        "abc": [0.32074469, 0.92169291, 0.17638051],
        "properties": { "magmom": 0.0 },
        "label": "Sb",
        "xyz": [-0.5231643058272732, 9.602551769399277, 1.9805317944532215]
      },
      {
        "species": [{ "element": "Sb", "occu": 1 }],
        "abc": [0.6792553100000001, 0.07830709, 0.82361949],
        "properties": { "magmom": 0.0 },
        "label": "Sb",
        "xyz": [5.507327635827274, 0.4921112606007242, 9.24821334554678]
      },
      {
        "species": [{ "element": "Sb", "occu": 1 }],
        "abc": [0.22645435, 0.56152263, 0.99258531],
        "properties": { "magmom": 0.0 },
        "label": "Sb",
        "xyz": [-0.05436260549133398, 5.834744045975091, 11.145487475697895]
      },
      {
        "species": [{ "element": "Sb", "occu": 1 }],
        "abc": [0.32074469, 0.42169291000000003, 0.32361949],
        "properties": { "magmom": 0.0 },
        "label": "Sb",
        "xyz": [1.2422192641727268, 4.306968894399276, 3.633840775546779]
      },
      {
        "species": [{ "element": "Sb", "occu": 1 }],
        "abc": [0.22645435, 0.06152263, 0.5074146900000001],
        "properties": { "magmom": 0.0 },
        "label": "Sb",
        "xyz": [1.7110209645086663, 0.5391611709750905, 5.697630234302108]
      },
      {
        "species": [{ "element": "Sb", "occu": 1 }],
        "abc": [0.71403092, 0.74871763, 0.18262255],
        "properties": { "magmom": 0.0 },
        "label": "Sb",
        "xyz": [3.4363760320874532, 7.575274225333071, 2.050622070766907]
      },
      {
        "species": [{ "element": "Sb", "occu": 1 }],
        "abc": [0.71403092, 0.24871763, 0.31737745],
        "properties": { "magmom": 0.0 },
        "label": "Sb",
        "xyz": [5.201759602087454, 2.27969135033307, 3.5637504992330933]
      },
      {
        "species": [{ "element": "Sb", "occu": 1 }],
        "abc": [0.98814858, 0.83901758, 0.84645117],
        "properties": { "magmom": -0.0 },
        "label": "Sb",
        "xyz": [5.451640751382911, 8.395555799209747, 9.504584461384814]
      },
      {
        "species": [{ "element": "Sb", "occu": 1 }],
        "abc": [0.98814858, 0.33901758, 0.65354883],
        "properties": { "magmom": -0.0 },
        "label": "Sb",
        "xyz": [7.217024321382911, 3.099972924209747, 7.338533248615186]
      }
    ]
  },
  "task_ids": null,
  "uncorrected_energy_per_atom": null,
  "energy_per_atom": -24.589902362272724,
  "formation_energy_per_atom": -0.7650108845454501,
  "energy_above_hull": 0.000783465454546,
  "is_stable": false,
  "equilibrium_reaction_energy_per_atom": null,
  "decomposes_to": null,
  "xas": null,
  "grain_boundaries": null,
  "band_gap": 0.0,
  "cbm": null,
  "vbm": null,
  "efermi": 6.81048987,
  "is_gap_direct": null,
  "is_metal": null,
  "es_source_calc_id": null,
  "bandstructure": null,
  "dos": null,
  "dos_energy_up": null,
  "dos_energy_down": null,
  "is_magnetic": null,
  "ordering": null,
  "total_magnetization": 5e-7,
  "total_magnetization_normalized_vol": null,
  "total_magnetization_normalized_formula_units": null,
  "num_magnetic_sites": null,
  "num_unique_magnetic_sites": null,
  "types_of_magnetic_species": null,
  "bulk_modulus": null,
  "shear_modulus": null,
  "universal_anisotropy": null,
  "homogeneous_poisson": null,
  "e_total": null,
  "e_ionic": null,
  "e_electronic": null,
  "n": null,
  "e_ij_max": null,
  "weighted_surface_energy_EV_PER_ANG2": null,
  "weighted_surface_energy": null,
  "weighted_work_function": null,
  "surface_anisotropy": null,
  "shape_factor": null,
  "has_reconstructed": null,
  "possible_species": null,
  "has_props": null,
  "theoretical": null,
  "database_IDs": null,
  "fields_not_requested": [
    "builder_meta",
    "nsites",
    "elements",
    "nelements",
    "composition",
    "composition_reduced",
    "chemsys",
    "symmetry",
    "property_name",
    "deprecated",
    "deprecation_reasons",
    "last_updated",
    "origins",
    "warnings",
    "task_ids",
    "uncorrected_energy_per_atom",
    "equilibrium_reaction_energy_per_atom",
    "decomposes_to",
    "xas",
    "grain_boundaries",
    "cbm",
    "vbm",
    "is_gap_direct",
    "is_metal",
    "es_source_calc_id",
    "bandstructure",
    "dos",
    "dos_energy_up",
    "dos_energy_down",
    "is_magnetic",
    "ordering",
    "total_magnetization_normalized_vol",
    "total_magnetization_normalized_formula_units",
    "num_magnetic_sites",
    "num_unique_magnetic_sites",
    "types_of_magnetic_species",
    "bulk_modulus",
    "shear_modulus",
    "universal_anisotropy",
    "homogeneous_poisson",
    "e_total",
    "e_ionic",
    "e_electronic",
    "n",
    "e_ij_max",
    "weighted_surface_energy_EV_PER_ANG2",
    "weighted_surface_energy",
    "weighted_work_function",
    "surface_anisotropy",
    "shape_factor",
    "has_reconstructed",
    "possible_species",
    "has_props",
    "theoretical",
    "database_IDs"
  ]
}
