{"builder_meta": null, "nsites": null, "elements": null, "nelements": null, "composition": null, "composition_reduced": null, "formula_pretty": "ZrAg", "formula_anonymous": "AB", "chemsys": null, "volume": 80.06216377505704, "density": 8.25859208312672, "density_atomic": 20.01554094376426, "symmetry": null, "property_name": null, "material_id": "mp-11239", "deprecated": null, "deprecation_reasons": null, "last_updated": null, "origins": null, "warnings": null, "structure": {"@module": "pymatgen.core.structure", "@class": "Structure", "charge": 0, "lattice": {"matrix": [[3.48253366, -0.0, -0.0], [-0.0, 3.48253366, -0.0], [0.0, 0.0, 6.6014095600000005]], "pbc": [true, true, true], "a": 3.48253366, "b": 3.48253366, "c": 6.6014095600000005, "alpha": 90.0, "beta": 90.0, "gamma": 90.0, "volume": 80.06216377505706}, "properties": {}, "sites": [{"species": [{"element": "Zr", "occu": 1}], "abc": [0.25, 0.25, 0.14387508000000002], "properties": {"magmom": 0.0}, "label": "Zr", "xyz": [0.870633415, 0.870633415, 0.949778328557765]}, {"species": [{"element": "Zr", "occu": 1}], "abc": [0.75, 0.75, 0.8561249200000001], "properties": {"magmom": 0.0}, "label": "Zr", "xyz": [2.611900245, 2.611900245, 5.651631231442236]}, {"species": [{"element": "Ag", "occu": 1}], "abc": [0.25, 0.25, 0.61358649], "properties": {"magmom": -0.0}, "label": "Ag", "xyz": [0.870633415, 0.870633415, 4.050535720972845]}, {"species": [{"element": "Ag", "occu": 1}], "abc": [0.75, 0.75, 0.38641351], "properties": {"magmom": -0.0}, "label": "Ag", "xyz": [2.611900245, 2.611900245, 2.550873839027156]}]}, "task_ids": null, "uncorrected_energy_per_atom": null, "energy_per_atom": -22.18168234, "formation_energy_per_atom": -0.128847814999996, "energy_above_hull": 0.0, "is_stable": true, "equilibrium_reaction_energy_per_atom": null, "decomposes_to": null, "xas": null, "grain_boundaries": null, "band_gap": 0.0, "cbm": null, "vbm": null, "efermi": 4.36604011, "is_gap_direct": null, "is_metal": null, "es_source_calc_id": null, "bandstructure": null, "dos": null, "dos_energy_up": null, "dos_energy_down": null, "is_magnetic": null, "ordering": null, "total_magnetization": 0.0, "total_magnetization_normalized_vol": null, "total_magnetization_normalized_formula_units": null, "num_magnetic_sites": null, "num_unique_magnetic_sites": null, "types_of_magnetic_species": null, "bulk_modulus": null, "shear_modulus": null, "universal_anisotropy": null, "homogeneous_poisson": null, "e_total": null, "e_ionic": null, "e_electronic": null, "n": null, "e_ij_max": null, "weighted_surface_energy_EV_PER_ANG2": null, "weighted_surface_energy": null, "weighted_work_function": null, "surface_anisotropy": null, "shape_factor": null, "has_reconstructed": null, "possible_species": null, "has_props": null, "theoretical": null, "database_IDs": null, "fields_not_requested": ["builder_meta", "nsites", "elements", "nelements", "composition", "composition_reduced", "chemsys", "symmetry", "property_name", "deprecated", "deprecation_reasons", "last_updated", "origins", "warnings", "task_ids", "uncorrected_energy_per_atom", "equilibrium_reaction_energy_per_atom", "decomposes_to", "xas", "grain_boundaries", "cbm", "vbm", "is_gap_direct", "is_metal", "es_source_calc_id", "bandstructure", "dos", "dos_energy_up", "dos_energy_down", "is_magnetic", "ordering", "total_magnetization_normalized_vol", "total_magnetization_normalized_formula_units", "num_magnetic_sites", "num_unique_magnetic_sites", "types_of_magnetic_species", "bulk_modulus", "shear_modulus", "universal_anisotropy", "homogeneous_poisson", "e_total", "e_ionic", "e_electronic", "n", "e_ij_max", "weighted_surface_energy_EV_PER_ANG2", "weighted_surface_energy", "weighted_work_function", "surface_anisotropy", "shape_factor", "has_reconstructed", "possible_species", "has_props", "theoretical", "database_IDs"]}