{
  "builder_meta": null,
  "nsites": null,
  "elements": null,
  "nelements": null,
  "composition": null,
  "composition_reduced": null,
  "formula_pretty": "ZrAl",
  "formula_anonymous": "AB",
  "chemsys": null,
  "volume": 78.46877903237454,
  "density": 5.002879289170826,
  "density_atomic": 19.617194758093635,
  "symmetry": null,
  "property_name": null,
  "material_id": "mp-11233",
  "deprecated": null,
  "deprecation_reasons": null,
  "last_updated": null,
  "origins": null,
  "warnings": null,
  "structure": {
    "@module": "pymatgen.core.structure",
    "@class": "Structure",
    "charge": 0,
    "lattice": {
      "matrix": [
        [3.22846579, -0.0, -0.9962304999999991],
        [0.0, 4.26310547, -0.0],
        [-0.00789463, 0.0, 5.70374575]
      ],
      "pbc": [true, true, true],
      "a": 3.3786782276994907,
      "b": 4.26310547,
      "c": 5.703751213528331,
      "alpha": 90.0,
      "beta": 107.2283298875236,
      "gamma": 90.0,
      "volume": 78.46877903237454
    },
    "properties": {},
    "sites": [
      {
        "species": [{ "element": "Zr", "occu": 1 }],
        "abc": [0.84067966, 0.25, 0.68135832],
        "properties": { "magmom": -0.0 },
        "label": "Zr",
        "xyz": [2.70872645082501, 1.0657763675, 3.0487839039055107]
      },
      {
        "species": [{ "element": "Zr", "occu": 1 }],
        "abc": [0.15932034, 0.75, 0.31864168],
        "properties": { "magmom": -0.0 },
        "label": "Zr",
        "xyz": [0.5118447091749901, 3.1973291025000004, 1.6587313460944901]
      },
      {
        "species": [{ "element": "Al", "occu": 1 }],
        "abc": [0.5712774700000001, 0.25, 0.14255595000000001],
        "properties": { "magmom": 0.0 },
        "label": "Al",
        "xyz": [1.8432243420132028, 1.0657763675, 0.24397885437287814]
      },
      {
        "species": [{ "element": "Al", "occu": 1 }],
        "abc": [0.42872253, 0.75, 0.85744405],
        "properties": { "magmom": 0.0 },
        "label": "Al",
        "xyz": [1.3773468179867974, 3.1973291025000004, 4.4635363956271235]
      }
    ]
  },
  "task_ids": null,
  "uncorrected_energy_per_atom": null,
  "energy_per_atom": -15.2702904025,
  "formation_energy_per_atom": -0.529345285000001,
  "energy_above_hull": 0.018204155999997,
  "is_stable": false,
  "equilibrium_reaction_energy_per_atom": null,
  "decomposes_to": null,
  "xas": null,
  "grain_boundaries": null,
  "band_gap": 0.0,
  "cbm": null,
  "vbm": null,
  "efermi": 5.29120187,
  "is_gap_direct": null,
  "is_metal": null,
  "es_source_calc_id": null,
  "bandstructure": null,
  "dos": null,
  "dos_energy_up": null,
  "dos_energy_down": null,
  "is_magnetic": null,
  "ordering": null,
  "total_magnetization": 1.5e-6,
  "total_magnetization_normalized_vol": null,
  "total_magnetization_normalized_formula_units": null,
  "num_magnetic_sites": null,
  "num_unique_magnetic_sites": null,
  "types_of_magnetic_species": null,
  "bulk_modulus": null,
  "shear_modulus": null,
  "universal_anisotropy": null,
  "homogeneous_poisson": null,
  "e_total": null,
  "e_ionic": null,
  "e_electronic": null,
  "n": null,
  "e_ij_max": null,
  "weighted_surface_energy_EV_PER_ANG2": null,
  "weighted_surface_energy": null,
  "weighted_work_function": null,
  "surface_anisotropy": null,
  "shape_factor": null,
  "has_reconstructed": null,
  "possible_species": null,
  "has_props": null,
  "theoretical": null,
  "database_IDs": null,
  "fields_not_requested": [
    "builder_meta",
    "nsites",
    "elements",
    "nelements",
    "composition",
    "composition_reduced",
    "chemsys",
    "symmetry",
    "property_name",
    "deprecated",
    "deprecation_reasons",
    "last_updated",
    "origins",
    "warnings",
    "task_ids",
    "uncorrected_energy_per_atom",
    "equilibrium_reaction_energy_per_atom",
    "decomposes_to",
    "xas",
    "grain_boundaries",
    "cbm",
    "vbm",
    "is_gap_direct",
    "is_metal",
    "es_source_calc_id",
    "bandstructure",
    "dos",
    "dos_energy_up",
    "dos_energy_down",
    "is_magnetic",
    "ordering",
    "total_magnetization_normalized_vol",
    "total_magnetization_normalized_formula_units",
    "num_magnetic_sites",
    "num_unique_magnetic_sites",
    "types_of_magnetic_species",
    "bulk_modulus",
    "shear_modulus",
    "universal_anisotropy",
    "homogeneous_poisson",
    "e_total",
    "e_ionic",
    "e_electronic",
    "n",
    "e_ij_max",
    "weighted_surface_energy_EV_PER_ANG2",
    "weighted_surface_energy",
    "weighted_work_function",
    "surface_anisotropy",
    "shape_factor",
    "has_reconstructed",
    "possible_species",
    "has_props",
    "theoretical",
    "database_IDs"
  ]
}
