{"builder_meta": null, "nsites": null, "elements": null, "nelements": null, "composition": null, "composition_reduced": null, "formula_pretty": "ZrAl3", "formula_anonymous": "AB3", "chemsys": null, "volume": 137.62349945585115, "density": 4.15470778913101, "density_atomic": 17.202937431981393, "symmetry": null, "property_name": null, "material_id": "mp-395", "deprecated": null, "deprecation_reasons": null, "last_updated": null, "origins": null, "warnings": null, "structure": {"@module": "pymatgen.core.structure", "@class": "Structure", "charge": 0, "lattice": {"matrix": [[3.8971614900000002, -0.00098986, -0.879014499999999], [-0.1995542, 3.89205027, -0.87901551], [0.00160885, 0.00169407, 9.07266307]], "pbc": [true, true, true], "a": 3.995063848072029, "b": 3.9950651371116934, "c": 9.07266337080867, "alpha": 102.70035618301002, "beta": 102.70035211458064, "gamma": 90.03187831310747, "volume": 137.62349945585115}, "properties": {}, "sites": [{"species": [{"element": "Zr", "occu": 1}], "abc": [0.11879205, 0.11879205, 0.2375641], "properties": {"magmom": 0.0}, "label": "Zr", "xyz": [0.4396285550763295, 0.46262949299262746, 1.9464990479783668]}, {"species": [{"element": "Zr", "occu": 1}], "abc": [0.8812079500000001, 0.8812079500000001, 0.7624358999999991], "properties": {"magmom": 0.0}, "label": "Zr", "xyz": [3.2595875849236715, 3.430124987007373, 5.368134012021627]}, {"species": [{"element": "Al", "occu": 1}], "abc": [0.5, -0.0, -0.0], "properties": {"magmom": 0.0}, "label": "Al", "xyz": [1.9485807450000001, -0.00049493, -0.4395072499999995]}, {"species": [{"element": "Al", "occu": 1}], "abc": [-0.0, 0.5, -0.0], "properties": {"magmom": 0.0}, "label": "Al", "xyz": [-0.0997771, 1.946025135, -0.439507755]}, {"species": [{"element": "Al", "occu": 1}], "abc": [0.74995858, 0.25004142, 0.5], "properties": {"magmom": 0.0}, "label": "Al", "xyz": [2.873617306536121, 0.9732784572221848, 3.657316782458167]}, {"species": [{"element": "Al", "occu": 1}], "abc": [0.25004142, 0.74995858, 0.5], "properties": {"magmom": 0.0}, "label": "Al", "xyz": [0.82559883346388, 2.9194760227778156, 3.6573162775418346]}, {"species": [{"element": "Al", "occu": 1}], "abc": [0.37475032, 0.37475032, 0.74940895], "properties": {"magmom": -0.0}, "label": "Al", "xyz": [1.3868852017510407, 1.4594456850067579, 6.140312596175374]}, {"species": [{"element": "Al", "occu": 1}], "abc": [0.62524968, 0.62524968, 0.25059105], "properties": {"magmom": -0.0}, "label": "Al", "xyz": [2.3123309382489596, 2.433308794993242, 1.1743204638246272]}]}, "task_ids": null, "uncorrected_energy_per_atom": null, "energy_per_atom": -11.26735057, "formation_energy_per_atom": -0.530828846249999, "energy_above_hull": 0.0, "is_stable": true, "equilibrium_reaction_energy_per_atom": null, "decomposes_to": null, "xas": null, "grain_boundaries": null, "band_gap": 0.0, "cbm": null, "vbm": null, "efermi": 7.23535637, "is_gap_direct": null, "is_metal": null, "es_source_calc_id": null, "bandstructure": null, "dos": null, "dos_energy_up": null, "dos_energy_down": null, "is_magnetic": null, "ordering": null, "total_magnetization": 1e-07, "total_magnetization_normalized_vol": null, "total_magnetization_normalized_formula_units": null, "num_magnetic_sites": null, "num_unique_magnetic_sites": null, "types_of_magnetic_species": null, "bulk_modulus": null, "shear_modulus": null, "universal_anisotropy": null, "homogeneous_poisson": null, "e_total": null, "e_ionic": null, "e_electronic": null, "n": null, "e_ij_max": null, "weighted_surface_energy_EV_PER_ANG2": null, "weighted_surface_energy": null, "weighted_work_function": null, "surface_anisotropy": null, "shape_factor": null, "has_reconstructed": null, "possible_species": null, "has_props": null, "theoretical": null, "database_IDs": null, "fields_not_requested": ["builder_meta", "nsites", "elements", "nelements", "composition", "composition_reduced", "chemsys", "symmetry", "property_name", "deprecated", "deprecation_reasons", "last_updated", "origins", "warnings", "task_ids", "uncorrected_energy_per_atom", "equilibrium_reaction_energy_per_atom", "decomposes_to", "xas", "grain_boundaries", "cbm", "vbm", "is_gap_direct", "is_metal", "es_source_calc_id", "bandstructure", "dos", "dos_energy_up", "dos_energy_down", "is_magnetic", "ordering", "total_magnetization_normalized_vol", "total_magnetization_normalized_formula_units", "num_magnetic_sites", "num_unique_magnetic_sites", "types_of_magnetic_species", "bulk_modulus", "shear_modulus", "universal_anisotropy", "homogeneous_poisson", "e_total", "e_ionic", "e_electronic", "n", "e_ij_max", "weighted_surface_energy_EV_PER_ANG2", "weighted_surface_energy", "weighted_work_function", "surface_anisotropy", "shape_factor", "has_reconstructed", "possible_species", "has_props", "theoretical", "database_IDs"]}