{"builder_meta": null, "nsites": null, "elements": null, "nelements": null, "composition": null, "composition_reduced": null, "formula_pretty": "ZrAl2", "formula_anonymous": "AB2", "chemsys": null, "volume": 210.63216352527073, "density": 4.578385553679134, "density_atomic": 17.55268029377256, "symmetry": null, "property_name": null, "material_id": "mp-2772", "deprecated": null, "deprecation_reasons": null, "last_updated": null, "origins": null, "warnings": null, "structure": {"@module": "pymatgen.core.structure", "@class": "Structure", "charge": 0, "lattice": {"matrix": [[5.27563406, 1.009999999999998e-06, -0.0], [-2.63781602, 4.56883106, 0.0], [0.0, -0.0, 8.73866071]], "pbc": [true, true, true], "a": 5.275634060000097, "b": 5.275631773559387, "c": 8.73866071, "alpha": 90.0, "beta": 90.0, "gamma": 119.9999907016013, "volume": 210.63216352527073}, "properties": {}, "sites": [{"species": [{"element": "Zr", "occu": 1}], "abc": [0.333333, 0.666667, 0.43491308], "properties": {"magmom": -0.0}, "label": "Zr", "xyz": [-1.964483359984115e-06, 3.04588923294335, 3.800557844461087]}, {"species": [{"element": "Zr", "occu": 1}], "abc": [0.666667, 0.333333, 0.93491208], "properties": {"magmom": -0.0}, "label": "Zr", "xyz": [2.63782000448336, 1.5229428370566498, 8.169879460800377]}, {"species": [{"element": "Zr", "occu": 1}], "abc": [0.666667, 0.333333, 0.56508792], "properties": {"magmom": -0.0}, "label": "Zr", "xyz": [2.63782000448336, 1.5229428370566498, 4.938111604199623]}, {"species": [{"element": "Zr", "occu": 1}], "abc": [0.333333, 0.666667, 0.06508792000000001], "properties": {"magmom": -0.0}, "label": "Zr", "xyz": [-1.964483359984115e-06, 3.04588923294335, 0.5687812491996233]}, {"species": [{"element": "Al", "occu": 1}], "abc": [0.1706605, 0.34132, 0.75], "properties": {"magmom": 0.0}, "label": "Al", "xyz": [2.9825502299019035e-06, 1.559433589766305, 6.5539955325]}, {"species": [{"element": "Al", "occu": 1}], "abc": [0.8293395, 0.1706605, 0.25], "properties": {"magmom": 0.0}, "label": "Al", "xyz": [3.92512071262216, 0.779719830748025, 2.1846651775]}, {"species": [{"element": "Al", "occu": 1}], "abc": [0.34132, 0.1706605, 0.25], "properties": {"magmom": 0.0}, "label": "Al", "xyz": [1.3505084164779901, 0.7797193378483299, 2.1846651775]}, {"species": [{"element": "Al", "occu": 1}], "abc": [0.65868, 0.8293395, 0.75], "properties": {"magmom": 0.0}, "label": "Al", "xyz": [1.28730962352201, 3.7891127321516698, 6.5539955325]}, {"species": [{"element": "Al", "occu": 1}], "abc": [-0.0, -0.0, 0.0], "properties": {"magmom": 0.0}, "label": "Al", "xyz": [0.0, 0.0, 0.0]}, {"species": [{"element": "Al", "occu": 1}], "abc": [-0.0, -0.0, 0.5], "properties": {"magmom": 0.0}, "label": "Al", "xyz": [0.0, 0.0, 4.369330355]}, {"species": [{"element": "Al", "occu": 1}], "abc": [0.8293395, 0.65868, 0.25], "properties": {"magmom": 0.0}, "label": "Al", "xyz": [2.63781505744977, 3.009398480233695, 2.1846651775]}, {"species": [{"element": "Al", "occu": 1}], "abc": [0.1706605, 0.8293395, 0.75], "properties": {"magmom": 0.0}, "label": "Al", "xyz": [-1.2873026726221601, 3.789112239251975, 6.5539955325]}]}, "task_ids": null, "uncorrected_energy_per_atom": null, "energy_per_atom": -12.686641695, "formation_energy_per_atom": -0.6153121733333341, "energy_above_hull": 0.0, "is_stable": true, "equilibrium_reaction_energy_per_atom": null, "decomposes_to": null, "xas": null, "grain_boundaries": null, "band_gap": 0.0, "cbm": null, "vbm": null, "efermi": 6.79490826, "is_gap_direct": null, "is_metal": null, "es_source_calc_id": null, "bandstructure": null, "dos": null, "dos_energy_up": null, "dos_energy_down": null, "is_magnetic": null, "ordering": null, "total_magnetization": 6e-07, "total_magnetization_normalized_vol": null, "total_magnetization_normalized_formula_units": null, "num_magnetic_sites": null, "num_unique_magnetic_sites": null, "types_of_magnetic_species": null, "bulk_modulus": null, "shear_modulus": null, "universal_anisotropy": null, "homogeneous_poisson": null, "e_total": null, "e_ionic": null, "e_electronic": null, "n": null, "e_ij_max": null, "weighted_surface_energy_EV_PER_ANG2": null, "weighted_surface_energy": null, "weighted_work_function": null, "surface_anisotropy": null, "shape_factor": null, "has_reconstructed": null, "possible_species": null, "has_props": null, "theoretical": null, "database_IDs": null, "fields_not_requested": ["builder_meta", "nsites", "elements", "nelements", "composition", "composition_reduced", "chemsys", "symmetry", "property_name", "deprecated", "deprecation_reasons", "last_updated", "origins", "warnings", "task_ids", "uncorrected_energy_per_atom", "equilibrium_reaction_energy_per_atom", "decomposes_to", "xas", "grain_boundaries", "cbm", "vbm", "is_gap_direct", "is_metal", "es_source_calc_id", "bandstructure", "dos", "dos_energy_up", "dos_energy_down", "is_magnetic", "ordering", "total_magnetization_normalized_vol", "total_magnetization_normalized_formula_units", "num_magnetic_sites", "num_unique_magnetic_sites", "types_of_magnetic_species", "bulk_modulus", "shear_modulus", "universal_anisotropy", "homogeneous_poisson", "e_total", "e_ionic", "e_electronic", "n", "e_ij_max", "weighted_surface_energy_EV_PER_ANG2", "weighted_surface_energy", "weighted_work_function", "surface_anisotropy", "shape_factor", "has_reconstructed", "possible_species", "has_props", "theoretical", "database_IDs"]}