{"builder_meta": null, "nsites": null, "elements": null, "nelements": null, "composition": null, "composition_reduced": null, "formula_pretty": "ZrAs2", "formula_anonymous": "AB2", "chemsys": null, "volume": 230.51073629055043, "density": 6.946340282759064, "density_atomic": 19.209228024212536, "symmetry": null, "property_name": null, "material_id": "mp-27606", "deprecated": null, "deprecation_reasons": null, "last_updated": null, "origins": null, "warnings": null, "structure": {"@module": "pymatgen.core.structure", "@class": "Structure", "charge": 0, "lattice": {"matrix": [[3.70903081, 0.0, 0.0], [-0.0, 6.83543113, 0.0], [0.0, 0.0, 9.09211259]], "pbc": [true, true, true], "a": 3.70903081, "b": 6.83543113, "c": 9.09211259, "alpha": 90.0, "beta": 90.0, "gamma": 90.0, "volume": 230.51073629055043}, "properties": {}, "sites": [{"species": [{"element": "Zr", "occu": 1}], "abc": [0.75, 0.22553833, 0.16156222], "properties": {"magmom": -0.0}, "label": "Zr", "xyz": [2.7817731075, 1.541651721890213, 1.4689418945303498]}, {"species": [{"element": "Zr", "occu": 1}], "abc": [0.25, 0.77446167, 0.83843778], "properties": {"magmom": -0.0}, "label": "Zr", "xyz": [0.9272577025, 5.293779408109787, 7.62317069546965]}, {"species": [{"element": "Zr", "occu": 1}], "abc": [0.75, 0.72553833, 0.33843778], "properties": {"magmom": -0.0}, "label": "Zr", "xyz": [2.7817731075, 4.959367286890213, 3.0771144004696502]}, {"species": [{"element": "Zr", "occu": 1}], "abc": [0.25, 0.27446167, 0.66156222], "properties": {"magmom": -0.0}, "label": "Zr", "xyz": [0.9272577025, 1.876063843109787, 6.014998189530349]}, {"species": [{"element": "As", "occu": 1}], "abc": [0.75, 0.11769888, 0.45763216], "properties": {"magmom": 0.0}, "label": "As", "xyz": [2.7817731075, 0.8045225883181344, 4.160843123524894]}, {"species": [{"element": "As", "occu": 1}], "abc": [0.25, 0.88230112, 0.54236784], "properties": {"magmom": 0.0}, "label": "As", "xyz": [0.9272577025, 6.030908541681866, 4.931269466475106]}, {"species": [{"element": "As", "occu": 1}], "abc": [0.75, 0.6176988800000001, 0.04236884], "properties": {"magmom": 0.0}, "label": "As", "xyz": [2.7817731075, 4.222238153318135, 0.38522226358769557]}, {"species": [{"element": "As", "occu": 1}], "abc": [0.25, 0.38230112, 0.9576321600000001], "properties": {"magmom": 0.0}, "label": "As", "xyz": [0.9272577025, 2.6131929766818653, 8.706899418524895]}, {"species": [{"element": "As", "occu": 1}], "abc": [0.75, 0.08377398, 0.85178889], "properties": {"magmom": 0.0}, "label": "As", "xyz": [2.7817731075, 0.5726312707759974, 7.744560490791125]}, {"species": [{"element": "As", "occu": 1}], "abc": [0.25, 0.91622602, 0.14821111], "properties": {"magmom": 0.0}, "label": "As", "xyz": [0.9272577025, 6.262799859224002, 1.3475520992088748]}, {"species": [{"element": "As", "occu": 1}], "abc": [0.75, 0.58377398, 0.64821111], "properties": {"magmom": 0.0}, "label": "As", "xyz": [2.7817731075, 3.9903468357759975, 5.893608394208874]}, {"species": [{"element": "As", "occu": 1}], "abc": [0.25, 0.41622602000000003, 0.35178889], "properties": {"magmom": 0.0}, "label": "As", "xyz": [0.9272577025, 2.845084294224003, 3.198504195791125]}]}, "task_ids": null, "uncorrected_energy_per_atom": null, "energy_per_atom": -6.793519210833335, "formation_energy_per_atom": -0.830870645833336, "energy_above_hull": 0.0, "is_stable": true, "equilibrium_reaction_energy_per_atom": null, "decomposes_to": null, "xas": null, "grain_boundaries": null, "band_gap": 0.0, "cbm": null, "vbm": null, "efermi": 6.1870033, "is_gap_direct": null, "is_metal": null, "es_source_calc_id": null, "bandstructure": null, "dos": null, "dos_energy_up": null, "dos_energy_down": null, "is_magnetic": null, "ordering": null, "total_magnetization": 0.0, "total_magnetization_normalized_vol": null, "total_magnetization_normalized_formula_units": null, "num_magnetic_sites": null, "num_unique_magnetic_sites": null, "types_of_magnetic_species": null, "bulk_modulus": null, "shear_modulus": null, "universal_anisotropy": null, "homogeneous_poisson": null, "e_total": null, "e_ionic": null, "e_electronic": null, "n": null, "e_ij_max": null, "weighted_surface_energy_EV_PER_ANG2": null, "weighted_surface_energy": null, "weighted_work_function": null, "surface_anisotropy": null, "shape_factor": null, "has_reconstructed": null, "possible_species": null, "has_props": null, "theoretical": null, "database_IDs": null, "fields_not_requested": ["builder_meta", "nsites", "elements", "nelements", "composition", "composition_reduced", "chemsys", "symmetry", "property_name", "deprecated", "deprecation_reasons", "last_updated", "origins", "warnings", "task_ids", "uncorrected_energy_per_atom", "equilibrium_reaction_energy_per_atom", "decomposes_to", "xas", "grain_boundaries", "cbm", "vbm", "is_gap_direct", "is_metal", "es_source_calc_id", "bandstructure", "dos", "dos_energy_up", "dos_energy_down", "is_magnetic", "ordering", "total_magnetization_normalized_vol", "total_magnetization_normalized_formula_units", "num_magnetic_sites", "num_unique_magnetic_sites", "types_of_magnetic_species", "bulk_modulus", "shear_modulus", "universal_anisotropy", "homogeneous_poisson", "e_total", "e_ionic", "e_electronic", "n", "e_ij_max", "weighted_surface_energy_EV_PER_ANG2", "weighted_surface_energy", "weighted_work_function", "surface_anisotropy", "shape_factor", "has_reconstructed", "possible_species", "has_props", "theoretical", "database_IDs"]}