{
  "builder_meta": null,
  "nsites": null,
  "elements": null,
  "nelements": null,
  "composition": null,
  "composition_reduced": null,
  "formula_pretty": "ZrAu3",
  "formula_anonymous": "AB3",
  "chemsys": null,
  "volume": 146.15254192834183,
  "density": 15.500148663618427,
  "density_atomic": 18.26906774104273,
  "symmetry": null,
  "property_name": null,
  "material_id": "mp-1079681",
  "deprecated": null,
  "deprecation_reasons": null,
  "last_updated": null,
  "origins": null,
  "warnings": null,
  "structure": {
    "@module": "pymatgen.core.structure",
    "@class": "Structure",
    "charge": 0,
    "lattice": {
      "matrix": [
        [0.0, 4.8554614, -0.0],
        [0.0, 0.0, 4.91746747],
        [6.12116902, 0.0, 0.0]
      ],
      "pbc": [true, true, true],
      "a": 4.8554614,
      "b": 4.91746747,
      "c": 6.12116902,
      "alpha": 90.0,
      "beta": 90.0,
      "gamma": 90.0,
      "volume": 146.15254192834183
    },
    "properties": {},
    "sites": [
      {
        "species": [{ "element": "Zr", "occu": 1 }],
        "abc": [0.75, 0.33908846, 0.75],
        "properties": { "magmom": 0.0 },
        "label": "Zr",
        "xyz": [4.590876765, 3.6415960500000004, 1.667456471502396]
      },
      {
        "species": [{ "element": "Zr", "occu": 1 }],
        "abc": [0.25, 0.66091154, 0.25],
        "properties": { "magmom": 0.0 },
        "label": "Zr",
        "xyz": [1.530292255, 1.21386535, 3.2500109984976038]
      },
      {
        "species": [{ "element": "Au", "occu": 1 }],
        "abc": [0.75, 0.83469553, 0.00364038],
        "properties": { "magmom": 0.0 },
        "label": "Au",
        "xyz": [0.0222833812770276, 3.6415960500000004, 4.104588116129409]
      },
      {
        "species": [{ "element": "Au", "occu": 1 }],
        "abc": [0.75, 0.83469553, 0.49635962],
        "properties": { "magmom": 0.0 },
        "label": "Au",
        "xyz": [3.0383011287229724, 3.6415960500000004, 4.104588116129409]
      },
      {
        "species": [{ "element": "Au", "occu": 1 }],
        "abc": [0.25, 0.16530447, 0.99635962],
        "properties": { "magmom": 0.0 },
        "label": "Au",
        "xyz": [6.098885638722972, 1.21386535, 0.812879353870591]
      },
      {
        "species": [{ "element": "Au", "occu": 1 }],
        "abc": [0.25, 0.16530447, 0.50364038],
        "properties": { "magmom": 0.0 },
        "label": "Au",
        "xyz": [3.0828678912770275, 1.21386535, 0.812879353870591]
      },
      {
        "species": [{ "element": "Au", "occu": 1 }],
        "abc": [0.25, 0.66010364, 0.75],
        "properties": { "magmom": -0.0 },
        "label": "Au",
        "xyz": [4.590876765, 1.21386535, 3.246038176528591]
      },
      {
        "species": [{ "element": "Au", "occu": 1 }],
        "abc": [0.75, 0.33989636, 0.25],
        "properties": { "magmom": -0.0 },
        "label": "Au",
        "xyz": [1.530292255, 3.6415960500000004, 1.6714292934714092]
      }
    ]
  },
  "task_ids": null,
  "uncorrected_energy_per_atom": null,
  "energy_per_atom": -44.1882734375,
  "formation_energy_per_atom": -0.5621053487500021,
  "energy_above_hull": 0.0,
  "is_stable": true,
  "equilibrium_reaction_energy_per_atom": null,
  "decomposes_to": null,
  "xas": null,
  "grain_boundaries": null,
  "band_gap": 0.0,
  "cbm": null,
  "vbm": null,
  "efermi": 5.42286257,
  "is_gap_direct": null,
  "is_metal": null,
  "es_source_calc_id": null,
  "bandstructure": null,
  "dos": null,
  "dos_energy_up": null,
  "dos_energy_down": null,
  "is_magnetic": null,
  "ordering": null,
  "total_magnetization": 0.0,
  "total_magnetization_normalized_vol": null,
  "total_magnetization_normalized_formula_units": null,
  "num_magnetic_sites": null,
  "num_unique_magnetic_sites": null,
  "types_of_magnetic_species": null,
  "bulk_modulus": null,
  "shear_modulus": null,
  "universal_anisotropy": null,
  "homogeneous_poisson": null,
  "e_total": null,
  "e_ionic": null,
  "e_electronic": null,
  "n": null,
  "e_ij_max": null,
  "weighted_surface_energy_EV_PER_ANG2": null,
  "weighted_surface_energy": null,
  "weighted_work_function": null,
  "surface_anisotropy": null,
  "shape_factor": null,
  "has_reconstructed": null,
  "possible_species": null,
  "has_props": null,
  "theoretical": null,
  "database_IDs": null,
  "fields_not_requested": [
    "builder_meta",
    "nsites",
    "elements",
    "nelements",
    "composition",
    "composition_reduced",
    "chemsys",
    "symmetry",
    "property_name",
    "deprecated",
    "deprecation_reasons",
    "last_updated",
    "origins",
    "warnings",
    "task_ids",
    "uncorrected_energy_per_atom",
    "equilibrium_reaction_energy_per_atom",
    "decomposes_to",
    "xas",
    "grain_boundaries",
    "cbm",
    "vbm",
    "is_gap_direct",
    "is_metal",
    "es_source_calc_id",
    "bandstructure",
    "dos",
    "dos_energy_up",
    "dos_energy_down",
    "is_magnetic",
    "ordering",
    "total_magnetization_normalized_vol",
    "total_magnetization_normalized_formula_units",
    "num_magnetic_sites",
    "num_unique_magnetic_sites",
    "types_of_magnetic_species",
    "bulk_modulus",
    "shear_modulus",
    "universal_anisotropy",
    "homogeneous_poisson",
    "e_total",
    "e_ionic",
    "e_electronic",
    "n",
    "e_ij_max",
    "weighted_surface_energy_EV_PER_ANG2",
    "weighted_surface_energy",
    "weighted_work_function",
    "surface_anisotropy",
    "shape_factor",
    "has_reconstructed",
    "possible_species",
    "has_props",
    "theoretical",
    "database_IDs"
  ]
}
