{"builder_meta": null, "nsites": null, "elements": null, "nelements": null, "composition": null, "composition_reduced": null, "formula_pretty": "ZrAu2", "formula_anonymous": "AB2", "chemsys": null, "volume": 56.28868276010833, "density": 14.312333165127647, "density_atomic": 18.762894253369442, "symmetry": null, "property_name": null, "material_id": "mp-1018103", "deprecated": null, "deprecation_reasons": null, "last_updated": null, "origins": null, "warnings": null, "structure": {"@module": "pymatgen.core.structure", "@class": "Structure", "charge": 0, "lattice": {"matrix": [[3.5704427, 0.0, -0.0], [0.0, 3.5704427, -0.0], [-1.78522186, -1.78522186, 4.41547012]], "pbc": [true, true, true], "a": 3.5704427, "b": 3.5704427, "c": 5.086296349944282, "alpha": 110.547671819973, "beta": 110.547671819973, "gamma": 90.0, "volume": 56.28868276010833}, "properties": {}, "sites": [{"species": [{"element": "Zr", "occu": 1}], "abc": [-0.0, -0.0, -0.0], "properties": {"magmom": -0.193}, "label": "Zr", "xyz": [0.0, 0.0, 0.0]}, {"species": [{"element": "Au", "occu": 1}], "abc": [0.66831912, 0.66831912, 0.33663625], "properties": {"magmom": -0.016}, "label": "Au", "xyz": [1.7852247309059992, 1.7852247309059992, 1.48640730318385]}, {"species": [{"element": "Au", "occu": 1}], "abc": [0.33168088, 0.33168088, 0.66336375], "properties": {"magmom": -0.016}, "label": "Au", "xyz": [-3.890905999170968e-06, -3.890905999170968e-06, 2.9290628168161503]}]}, "task_ids": null, "uncorrected_energy_per_atom": null, "energy_per_atom": -41.95795269, "formation_energy_per_atom": -0.6513819550000001, "energy_above_hull": 0.0, "is_stable": true, "equilibrium_reaction_energy_per_atom": null, "decomposes_to": null, "xas": null, "grain_boundaries": null, "band_gap": 0.0, "cbm": null, "vbm": null, "efermi": 5.77997286, "is_gap_direct": null, "is_metal": null, "es_source_calc_id": null, "bandstructure": null, "dos": null, "dos_energy_up": null, "dos_energy_down": null, "is_magnetic": null, "ordering": null, "total_magnetization": 0.3179381, "total_magnetization_normalized_vol": null, "total_magnetization_normalized_formula_units": null, "num_magnetic_sites": null, "num_unique_magnetic_sites": null, "types_of_magnetic_species": null, "bulk_modulus": null, "shear_modulus": null, "universal_anisotropy": null, "homogeneous_poisson": null, "e_total": null, "e_ionic": null, "e_electronic": null, "n": null, "e_ij_max": null, "weighted_surface_energy_EV_PER_ANG2": null, "weighted_surface_energy": null, "weighted_work_function": null, "surface_anisotropy": null, "shape_factor": null, "has_reconstructed": null, "possible_species": null, "has_props": null, "theoretical": null, "database_IDs": null, "fields_not_requested": ["builder_meta", "nsites", "elements", "nelements", "composition", "composition_reduced", "chemsys", "symmetry", "property_name", "deprecated", "deprecation_reasons", "last_updated", "origins", "warnings", "task_ids", "uncorrected_energy_per_atom", "equilibrium_reaction_energy_per_atom", "decomposes_to", "xas", "grain_boundaries", "cbm", "vbm", "is_gap_direct", "is_metal", "es_source_calc_id", "bandstructure", "dos", "dos_energy_up", "dos_energy_down", "is_magnetic", "ordering", "total_magnetization_normalized_vol", "total_magnetization_normalized_formula_units", "num_magnetic_sites", "num_unique_magnetic_sites", "types_of_magnetic_species", "bulk_modulus", "shear_modulus", "universal_anisotropy", "homogeneous_poisson", "e_total", "e_ionic", "e_electronic", "n", "e_ij_max", "weighted_surface_energy_EV_PER_ANG2", "weighted_surface_energy", "weighted_work_function", "surface_anisotropy", "shape_factor", "has_reconstructed", "possible_species", "has_props", "theoretical", "database_IDs"]}