{
  "builder_meta": null,
  "nsites": null,
  "elements": null,
  "nelements": null,
  "composition": null,
  "composition_reduced": null,
  "formula_pretty": "ZrAu4",
  "formula_anonymous": "AB4",
  "chemsys": null,
  "volume": 361.9840294004849,
  "density": 16.130697796627388,
  "density_atomic": 18.099201470024248,
  "symmetry": null,
  "property_name": null,
  "material_id": "mp-17813",
  "deprecated": null,
  "deprecation_reasons": null,
  "last_updated": null,
  "origins": null,
  "warnings": null,
  "structure": {
    "@module": "pymatgen.core.structure",
    "@class": "Structure",
    "charge": 0,
    "lattice": {
      "matrix": [
        [4.93081182, 0.0, 0.0],
        [0.0, 5.07944016, 0.0],
        [0.0, 0.0, 14.45290451]
      ],
      "pbc": [true, true, true],
      "a": 4.93081182,
      "b": 5.07944016,
      "c": 14.45290451,
      "alpha": 90.0,
      "beta": 90.0,
      "gamma": 90.0,
      "volume": 361.9840294004849
    },
    "properties": {},
    "sites": [
      {
        "species": [{ "element": "Zr", "occu": 1 }],
        "abc": [0.25, 0.65528054, 0.09810112],
        "properties": { "magmom": -0.0 },
        "label": "Zr",
        "xyz": [1.232702955, 3.3284582909424865, 1.4178461196840513]
      },
      {
        "species": [{ "element": "Zr", "occu": 1 }],
        "abc": [0.75, 0.34471946000000003, 0.9018988800000001],
        "properties": { "magmom": -0.0 },
        "label": "Zr",
        "xyz": [3.698108865, 1.7509818690575136, 13.03505839031595]
      },
      {
        "species": [{ "element": "Zr", "occu": 1 }],
        "abc": [0.25, 0.15528054, 0.40189888],
        "properties": { "magmom": -0.0 },
        "label": "Zr",
        "xyz": [1.232702955, 0.7887382109424863, 5.808606135315949]
      },
      {
        "species": [{ "element": "Zr", "occu": 1 }],
        "abc": [0.75, 0.84471946, 0.59810112],
        "properties": { "magmom": -0.0 },
        "label": "Zr",
        "xyz": [3.698108865, 4.290701949057514, 8.644298374684052]
      },
      {
        "species": [{ "element": "Au", "occu": 1 }],
        "abc": [0.75, 0.8450393700000001, 0.79850288],
        "properties": { "magmom": -0.0 },
        "label": "Au",
        "xyz": [3.698108865, 4.2923269127590995, 11.540685875599989]
      },
      {
        "species": [{ "element": "Au", "occu": 1 }],
        "abc": [0.25, 0.15496063000000002, 0.20149712],
        "properties": { "magmom": -0.0 },
        "label": "Au",
        "xyz": [1.232702955, 0.7871132472409008, 2.9122186344000114]
      },
      {
        "species": [{ "element": "Au", "occu": 1 }],
        "abc": [0.75, 0.34503937, 0.70149712],
        "properties": { "magmom": -0.0 },
        "label": "Au",
        "xyz": [3.698108865, 1.7526068327590991, 10.13867088940001]
      },
      {
        "species": [{ "element": "Au", "occu": 1 }],
        "abc": [0.25, 0.65496063, 0.29850288],
        "properties": { "magmom": -0.0 },
        "label": "Au",
        "xyz": [1.232702955, 3.3268333272409008, 4.314233620599989]
      },
      {
        "species": [{ "element": "Au", "occu": 1 }],
        "abc": [0.75, 0.83876016, 0.39918144],
        "properties": { "magmom": -0.0 },
        "label": "Au",
        "xyz": [3.698108865, 4.260432041312026, 5.769331234484294]
      },
      {
        "species": [{ "element": "Au", "occu": 1 }],
        "abc": [0.25, 0.16123984, 0.60081856],
        "properties": { "magmom": -0.0 },
        "label": "Au",
        "xyz": [1.232702955, 0.8190081186879744, 8.683573275515705]
      },
      {
        "species": [{ "element": "Au", "occu": 1 }],
        "abc": [0.75, 0.33876016000000003, 0.10081856],
        "properties": { "magmom": -0.0 },
        "label": "Au",
        "xyz": [3.698108865, 1.7207119613120256, 1.4571210205157057]
      },
      {
        "species": [{ "element": "Au", "occu": 1 }],
        "abc": [0.25, 0.66123984, 0.89918144],
        "properties": { "magmom": -0.0 },
        "label": "Au",
        "xyz": [1.232702955, 3.3587281986879742, 12.995783489484294]
      },
      {
        "species": [{ "element": "Au", "occu": 1 }],
        "abc": [0.75, 0.82103477, 0.19616917],
        "properties": { "magmom": 0.0 },
        "label": "Au",
        "xyz": [3.698108865, 4.1703969834943635, 2.835214281815957]
      },
      {
        "species": [{ "element": "Au", "occu": 1 }],
        "abc": [0.25, 0.17896523, 0.80383083],
        "properties": { "magmom": 0.0 },
        "label": "Au",
        "xyz": [1.232702955, 0.9090431765056368, 11.617690228184044]
      },
      {
        "species": [{ "element": "Au", "occu": 1 }],
        "abc": [0.75, 0.32103477, 0.30383083],
        "properties": { "magmom": 0.0 },
        "label": "Au",
        "xyz": [3.698108865, 1.6306769034943633, 4.391237973184043]
      },
      {
        "species": [{ "element": "Au", "occu": 1 }],
        "abc": [0.25, 0.67896523, 0.69616917],
        "properties": { "magmom": 0.0 },
        "label": "Au",
        "xyz": [1.232702955, 3.4487632565056368, 10.061666536815956]
      },
      {
        "species": [{ "element": "Au", "occu": 1 }],
        "abc": [0.25, 0.66042957, 0.499745999999999],
        "properties": { "magmom": 0.0 },
        "label": "Au",
        "xyz": [1.232702955, 3.354612480709531, 7.222781217254446]
      },
      {
        "species": [{ "element": "Au", "occu": 1 }],
        "abc": [0.75, 0.33957043000000003, 0.500254],
        "properties": { "magmom": 0.0 },
        "label": "Au",
        "xyz": [3.698108865, 1.7248276792904689, 7.23012329274554]
      },
      {
        "species": [{ "element": "Au", "occu": 1 }],
        "abc": [0.25, 0.16042957, 0.000254],
        "properties": { "magmom": 0.0 },
        "label": "Au",
        "xyz": [1.232702955, 0.8148924007095312, 0.00367103774554]
      },
      {
        "species": [{ "element": "Au", "occu": 1 }],
        "abc": [0.75, 0.83957043, -0.000254],
        "properties": { "magmom": 0.0 },
        "label": "Au",
        "xyz": [3.698108865, 4.264547759290468, -0.00367103774554]
      }
    ]
  },
  "task_ids": null,
  "uncorrected_energy_per_atom": null,
  "energy_per_atom": -45.4938067165,
  "formation_energy_per_atom": -0.47588021550000104,
  "energy_above_hull": 0.0,
  "is_stable": true,
  "equilibrium_reaction_energy_per_atom": null,
  "decomposes_to": null,
  "xas": null,
  "grain_boundaries": null,
  "band_gap": 0.0,
  "cbm": null,
  "vbm": null,
  "efermi": 5.57336135,
  "is_gap_direct": null,
  "is_metal": null,
  "es_source_calc_id": null,
  "bandstructure": null,
  "dos": null,
  "dos_energy_up": null,
  "dos_energy_down": null,
  "is_magnetic": null,
  "ordering": null,
  "total_magnetization": 0.0,
  "total_magnetization_normalized_vol": null,
  "total_magnetization_normalized_formula_units": null,
  "num_magnetic_sites": null,
  "num_unique_magnetic_sites": null,
  "types_of_magnetic_species": null,
  "bulk_modulus": null,
  "shear_modulus": null,
  "universal_anisotropy": null,
  "homogeneous_poisson": null,
  "e_total": null,
  "e_ionic": null,
  "e_electronic": null,
  "n": null,
  "e_ij_max": null,
  "weighted_surface_energy_EV_PER_ANG2": null,
  "weighted_surface_energy": null,
  "weighted_work_function": null,
  "surface_anisotropy": null,
  "shape_factor": null,
  "has_reconstructed": null,
  "possible_species": null,
  "has_props": null,
  "theoretical": null,
  "database_IDs": null,
  "fields_not_requested": [
    "builder_meta",
    "nsites",
    "elements",
    "nelements",
    "composition",
    "composition_reduced",
    "chemsys",
    "symmetry",
    "property_name",
    "deprecated",
    "deprecation_reasons",
    "last_updated",
    "origins",
    "warnings",
    "task_ids",
    "uncorrected_energy_per_atom",
    "equilibrium_reaction_energy_per_atom",
    "decomposes_to",
    "xas",
    "grain_boundaries",
    "cbm",
    "vbm",
    "is_gap_direct",
    "is_metal",
    "es_source_calc_id",
    "bandstructure",
    "dos",
    "dos_energy_up",
    "dos_energy_down",
    "is_magnetic",
    "ordering",
    "total_magnetization_normalized_vol",
    "total_magnetization_normalized_formula_units",
    "num_magnetic_sites",
    "num_unique_magnetic_sites",
    "types_of_magnetic_species",
    "bulk_modulus",
    "shear_modulus",
    "universal_anisotropy",
    "homogeneous_poisson",
    "e_total",
    "e_ionic",
    "e_electronic",
    "n",
    "e_ij_max",
    "weighted_surface_energy_EV_PER_ANG2",
    "weighted_surface_energy",
    "weighted_work_function",
    "surface_anisotropy",
    "shape_factor",
    "has_reconstructed",
    "possible_species",
    "has_props",
    "theoretical",
    "database_IDs"
  ]
}
