{"builder_meta": null, "nsites": null, "elements": null, "nelements": null, "composition": null, "composition_reduced": null, "formula_pretty": "ZrBe5", "formula_anonymous": "AB5", "chemsys": null, "volume": 62.55311954982862, "density": 3.6178278377114923, "density_atomic": 10.425519924971438, "symmetry": null, "property_name": null, "material_id": "mp-11283", "deprecated": null, "deprecation_reasons": null, "last_updated": null, "origins": null, "warnings": null, "structure": {"@module": "pymatgen.core.structure", "@class": "Structure", "charge": 0, "lattice": {"matrix": [[4.56700518, 1e-08, 0.0], [-2.2835015800000003, 3.95514365, 0.0], [0.0, 0.0, 3.46302165]], "pbc": [true, true, true], "a": 4.56700518, "b": 4.567005666516938, "c": 3.46302165, "alpha": 90.0, "beta": 90.0, "gamma": 119.99998171934322, "volume": 62.55311954982862}, "properties": {}, "sites": [{"species": [{"element": "Zr", "occu": 1}], "abc": [-0.0, -0.0, -0.0], "properties": {"magmom": -0.0}, "label": "Zr", "xyz": [0.0, 0.0, 0.0]}, {"species": [{"element": "Be", "occu": 1}], "abc": [0.333333, 0.666667, 0.0], "properties": {"magmom": -0.0}, "label": "Be", "xyz": [-1.610168920418431e-06, 2.63676375504788, 0.0]}, {"species": [{"element": "Be", "occu": 1}], "abc": [0.666667, 0.333333, -0.0], "properties": {"magmom": -0.0}, "label": "Be", "xyz": [2.28350521016892, 1.31837990495212, 0.0]}, {"species": [{"element": "Be", "occu": 1}], "abc": [0.5, -0.0, 0.5], "properties": {"magmom": 0.0}, "label": "Be", "xyz": [2.28350259, 5e-09, 1.731510825]}, {"species": [{"element": "Be", "occu": 1}], "abc": [0.5, 0.5, 0.5], "properties": {"magmom": 0.0}, "label": "Be", "xyz": [1.1417517999999998, 1.97757183, 1.731510825]}, {"species": [{"element": "Be", "occu": 1}], "abc": [-0.0, 0.5, 0.5], "properties": {"magmom": 0.0}, "label": "Be", "xyz": [-1.1417507900000001, 1.977571825, 1.731510825]}]}, "task_ids": null, "uncorrected_energy_per_atom": null, "energy_per_atom": -4.781887271666666, "formation_energy_per_atom": -0.241093112499999, "energy_above_hull": 0.0, "is_stable": true, "equilibrium_reaction_energy_per_atom": null, "decomposes_to": null, "xas": null, "grain_boundaries": null, "band_gap": 0.0, "cbm": null, "vbm": null, "efermi": 3.87725856, "is_gap_direct": null, "is_metal": null, "es_source_calc_id": null, "bandstructure": null, "dos": null, "dos_energy_up": null, "dos_energy_down": null, "is_magnetic": null, "ordering": null, "total_magnetization": 0.0, "total_magnetization_normalized_vol": null, "total_magnetization_normalized_formula_units": null, "num_magnetic_sites": null, "num_unique_magnetic_sites": null, "types_of_magnetic_species": null, "bulk_modulus": null, "shear_modulus": null, "universal_anisotropy": null, "homogeneous_poisson": null, "e_total": null, "e_ionic": null, "e_electronic": null, "n": null, "e_ij_max": null, "weighted_surface_energy_EV_PER_ANG2": null, "weighted_surface_energy": null, "weighted_work_function": null, "surface_anisotropy": null, "shape_factor": null, "has_reconstructed": null, "possible_species": null, "has_props": null, "theoretical": null, "database_IDs": null, "fields_not_requested": ["builder_meta", "nsites", "elements", "nelements", "composition", "composition_reduced", "chemsys", "symmetry", "property_name", "deprecated", "deprecation_reasons", "last_updated", "origins", "warnings", "task_ids", "uncorrected_energy_per_atom", "equilibrium_reaction_energy_per_atom", "decomposes_to", "xas", "grain_boundaries", "cbm", "vbm", "is_gap_direct", "is_metal", "es_source_calc_id", "bandstructure", "dos", "dos_energy_up", "dos_energy_down", "is_magnetic", "ordering", "total_magnetization_normalized_vol", "total_magnetization_normalized_formula_units", "num_magnetic_sites", "num_unique_magnetic_sites", "types_of_magnetic_species", "bulk_modulus", "shear_modulus", "universal_anisotropy", "homogeneous_poisson", "e_total", "e_ionic", "e_electronic", "n", "e_ij_max", "weighted_surface_energy_EV_PER_ANG2", "weighted_surface_energy", "weighted_work_function", "surface_anisotropy", "shape_factor", "has_reconstructed", "possible_species", "has_props", "theoretical", "database_IDs"]}