{
  "builder_meta": null,
  "nsites": null,
  "elements": null,
  "nelements": null,
  "composition": null,
  "composition_reduced": null,
  "formula_pretty": "ZrBi",
  "formula_anonymous": "AB",
  "chemsys": null,
  "volume": 305.05268640410475,
  "density": 9.804885969858587,
  "density_atomic": 25.421057200342062,
  "symmetry": null,
  "property_name": null,
  "material_id": "mp-30933",
  "deprecated": null,
  "deprecation_reasons": null,
  "last_updated": null,
  "origins": null,
  "warnings": null,
  "structure": {
    "@module": "pymatgen.core.structure",
    "@class": "Structure",
    "charge": 0,
    "lattice": {
      "matrix": [
        [3.89310867, -0.0, -0.0],
        [-1.94655434, 5.41963443, 0.0],
        [0.0, 0.0, 14.45800379]
      ],
      "pbc": [true, true, true],
      "a": 3.89310867,
      "b": 5.758603229379001,
      "c": 14.45800379,
      "alpha": 90.0,
      "beta": 90.0,
      "gamma": 109.75661825121406,
      "volume": 305.05268640410475
    },
    "properties": {},
    "sites": [
      {
        "species": [{ "element": "Zr", "occu": 1 }],
        "abc": [0.07142285, 0.1428447, 0.8907165100000001],
        "properties": { "magmom": 0.001 },
        "label": "Zr",
        "xyz": [1.9458401114835766e-6, 0.774166054263021, 12.877982677395574]
      },
      {
        "species": [{ "element": "Zr", "occu": 1 }],
        "abc": [0.9285771500000001, 0.8571553, 0.10928349],
        "properties": { "magmom": 0.001 },
        "label": "Zr",
        "xyz": [1.946552384159889, 4.6454683757369795, 1.580021112604427]
      },
      {
        "species": [{ "element": "Zr", "occu": 1 }],
        "abc": [0.9285771500000001, 0.8571553, 0.39071651],
        "properties": { "magmom": 0.001 },
        "label": "Zr",
        "xyz": [1.946552384159889, 4.6454683757369795, 5.648980782395573]
      },
      {
        "species": [{ "element": "Zr", "occu": 1 }],
        "abc": [0.07142285, 0.1428447, 0.60928349],
        "properties": { "magmom": 0.001 },
        "label": "Zr",
        "xyz": [1.9458401114835766e-6, 0.774166054263021, 8.809023007604427]
      },
      {
        "species": [{ "element": "Zr", "occu": 1 }],
        "abc": [0.38830321, 0.77660641, 0.75],
        "properties": { "magmom": 0.001 },
        "label": "Zr",
        "xyz": [1.5582511503353658e-8, 4.208922838194696, 10.8435028425]
      },
      {
        "species": [{ "element": "Zr", "occu": 1 }],
        "abc": [0.61169679, 0.22339359, 0.25],
        "properties": { "magmom": 0.001 },
        "label": "Zr",
        "xyz": [1.9465543144174888, 1.2107115918053037, 3.6145009475]
      },
      {
        "species": [{ "element": "Bi", "occu": 1 }],
        "abc": [0.67496013, 0.34992125, 0.75],
        "properties": { "magmom": -0.0 },
        "label": "Bi",
        "xyz": [1.9465524061616022, 1.8964452542886376, 10.8435028425]
      },
      {
        "species": [{ "element": "Bi", "occu": 1 }],
        "abc": [0.32503987, 0.65007875, 0.25],
        "properties": { "magmom": -0.0 },
        "label": "Bi",
        "xyz": [1.923838397921429e-6, 3.523189175711363, 3.6145009475]
      },
      {
        "species": [{ "element": "Bi", "occu": 1 }],
        "abc": [0.64087953, 0.28175906, 0.450224099999999],
        "properties": { "magmom": -0.0 },
        "label": "Bi",
        "xyz": [1.9465543335912048, 1.527031102540436, 6.509341744149324]
      },
      {
        "species": [{ "element": "Bi", "occu": 1 }],
        "abc": [0.35912047, 0.71824094, 0.5497759],
        "properties": { "magmom": -0.0 },
        "label": "Bi",
        "xyz": [-3.5912046669750453e-9, 3.8926033274595646, 7.948662045850661]
      },
      {
        "species": [{ "element": "Bi", "occu": 1 }],
        "abc": [0.35912047, 0.71824094, 0.9502240999999991],
        "properties": { "magmom": -0.0 },
        "label": "Bi",
        "xyz": [-3.5912046669750453e-9, 3.8926033274595646, 13.738343639149326]
      },
      {
        "species": [{ "element": "Bi", "occu": 1 }],
        "abc": [0.64087953, 0.28175906, 0.0497759],
        "properties": { "magmom": -0.0 },
        "label": "Bi",
        "xyz": [1.9465543335912048, 1.527031102540436, 0.7196601508506609]
      }
    ]
  },
  "task_ids": null,
  "uncorrected_energy_per_atom": null,
  "energy_per_atom": -6.5927431208333385,
  "formation_energy_per_atom": -0.373875650833339,
  "energy_above_hull": 0.0,
  "is_stable": true,
  "equilibrium_reaction_energy_per_atom": null,
  "decomposes_to": null,
  "xas": null,
  "grain_boundaries": null,
  "band_gap": 0.0,
  "cbm": null,
  "vbm": null,
  "efermi": 6.05023149,
  "is_gap_direct": null,
  "is_metal": null,
  "es_source_calc_id": null,
  "bandstructure": null,
  "dos": null,
  "dos_energy_up": null,
  "dos_energy_down": null,
  "is_magnetic": null,
  "ordering": null,
  "total_magnetization": 0.0085247,
  "total_magnetization_normalized_vol": null,
  "total_magnetization_normalized_formula_units": null,
  "num_magnetic_sites": null,
  "num_unique_magnetic_sites": null,
  "types_of_magnetic_species": null,
  "bulk_modulus": null,
  "shear_modulus": null,
  "universal_anisotropy": null,
  "homogeneous_poisson": null,
  "e_total": null,
  "e_ionic": null,
  "e_electronic": null,
  "n": null,
  "e_ij_max": null,
  "weighted_surface_energy_EV_PER_ANG2": null,
  "weighted_surface_energy": null,
  "weighted_work_function": null,
  "surface_anisotropy": null,
  "shape_factor": null,
  "has_reconstructed": null,
  "possible_species": null,
  "has_props": null,
  "theoretical": null,
  "database_IDs": null,
  "fields_not_requested": [
    "builder_meta",
    "nsites",
    "elements",
    "nelements",
    "composition",
    "composition_reduced",
    "chemsys",
    "symmetry",
    "property_name",
    "deprecated",
    "deprecation_reasons",
    "last_updated",
    "origins",
    "warnings",
    "task_ids",
    "uncorrected_energy_per_atom",
    "equilibrium_reaction_energy_per_atom",
    "decomposes_to",
    "xas",
    "grain_boundaries",
    "cbm",
    "vbm",
    "is_gap_direct",
    "is_metal",
    "es_source_calc_id",
    "bandstructure",
    "dos",
    "dos_energy_up",
    "dos_energy_down",
    "is_magnetic",
    "ordering",
    "total_magnetization_normalized_vol",
    "total_magnetization_normalized_formula_units",
    "num_magnetic_sites",
    "num_unique_magnetic_sites",
    "types_of_magnetic_species",
    "bulk_modulus",
    "shear_modulus",
    "universal_anisotropy",
    "homogeneous_poisson",
    "e_total",
    "e_ionic",
    "e_electronic",
    "n",
    "e_ij_max",
    "weighted_surface_energy_EV_PER_ANG2",
    "weighted_surface_energy",
    "weighted_work_function",
    "surface_anisotropy",
    "shape_factor",
    "has_reconstructed",
    "possible_species",
    "has_props",
    "theoretical",
    "database_IDs"
  ]
}
