{"builder_meta": null, "nsites": null, "elements": null, "nelements": null, "composition": null, "composition_reduced": null, "formula_pretty": "ZrBi2", "formula_anonymous": "AB2", "chemsys": null, "volume": 655.4053475230432, "density": 10.320590220563375, "density_atomic": 27.308556146793467, "symmetry": null, "property_name": null, "material_id": "mp-29642", "deprecated": null, "deprecation_reasons": null, "last_updated": null, "origins": null, "warnings": null, "structure": {"@module": "pymatgen.core.structure", "@class": "Structure", "charge": 0, "lattice": {"matrix": [[4.05392808, 0.0, 0.0], [0.0, 10.35361733, -0.0], [0.0, -0.0, 15.61499435]], "pbc": [true, true, true], "a": 4.05392808, "b": 10.35361733, "c": 15.61499435, "alpha": 90.0, "beta": 90.0, "gamma": 90.0, "volume": 655.4053475230432}, "properties": {}, "sites": [{"species": [{"element": "Zr", "occu": 1}], "abc": [0.5, 0.66376468, 0.99398283], "properties": {"magmom": -0.0}, "label": "Zr", "xyz": [2.02696404, 6.872365493889904, 15.52103627444701]}, {"species": [{"element": "Zr", "occu": 1}], "abc": [0.5, 0.33623532, 0.0060171700000000005], "properties": {"magmom": -0.0}, "label": "Zr", "xyz": [2.02696404, 3.4812518361100957, 0.0939580755529895]}, {"species": [{"element": "Zr", "occu": 1}], "abc": [-0.0, 0.16376468, 0.50601717], "properties": {"magmom": -0.0}, "label": "Zr", "xyz": [0.0, 1.6955568288899043, 7.901455250552989]}, {"species": [{"element": "Zr", "occu": 1}], "abc": [-0.0, 0.83623532, 0.49398283], "properties": {"magmom": -0.0}, "label": "Zr", "xyz": [0.0, 8.658060501110096, 7.7135390994470105]}, {"species": [{"element": "Zr", "occu": 1}], "abc": [-0.0, 0.97783204, 0.7511428800000001], "properties": {"magmom": 0.0}, "label": "Zr", "xyz": [0.0, 10.124098755173254, 11.72909182724273]}, {"species": [{"element": "Zr", "occu": 1}], "abc": [0.0, 0.02216796, 0.24885712000000001], "properties": {"magmom": 0.0}, "label": "Zr", "xyz": [0.0, 0.2295185748267468, 3.8859025227572723]}, {"species": [{"element": "Zr", "occu": 1}], "abc": [0.5, 0.47783204, 0.74885712], "properties": {"magmom": 0.0}, "label": "Zr", "xyz": [2.02696404, 4.9472900901732535, 11.693399697757272]}, {"species": [{"element": "Zr", "occu": 1}], "abc": [0.5, 0.52216796, 0.25114288], "properties": {"magmom": 0.0}, "label": "Zr", "xyz": [2.02696404, 5.406327239826747, 3.921594652242728]}, {"species": [{"element": "Bi", "occu": 1}], "abc": [0.0, 0.87757459, 0.9426736], "properties": {"magmom": -0.0}, "label": "Bi", "xyz": [0.0, 9.086071483391645, 14.71984293789416]}, {"species": [{"element": "Bi", "occu": 1}], "abc": [-0.0, 0.12242541, 0.0573264], "properties": {"magmom": -0.0}, "label": "Bi", "xyz": [0.0, 1.2675458466083553, 0.89515141210584]}, {"species": [{"element": "Bi", "occu": 1}], "abc": [0.5, 0.37757459, 0.5573264], "properties": {"magmom": -0.0}, "label": "Bi", "xyz": [2.02696404, 3.9092628183916447, 8.70264858710584]}, {"species": [{"element": "Bi", "occu": 1}], "abc": [0.5, 0.6224254100000001, 0.4426736], "properties": {"magmom": -0.0}, "label": "Bi", "xyz": [2.02696404, 6.444354511608356, 6.91234576289416]}, {"species": [{"element": "Bi", "occu": 1}], "abc": [-0.0, 0.65464302, 0.65189508], "properties": {"magmom": 0.0}, "label": "Bi", "xyz": [0.0, 6.777923316835537, 10.179337990992797]}, {"species": [{"element": "Bi", "occu": 1}], "abc": [0.0, 0.34535698, 0.34810492], "properties": {"magmom": 0.0}, "label": "Bi", "xyz": [0.0, 3.5756940131644632, 5.435656359007202]}, {"species": [{"element": "Bi", "occu": 1}], "abc": [0.5, 0.15464302, 0.84810492], "properties": {"magmom": 0.0}, "label": "Bi", "xyz": [2.02696404, 1.6011146518355366, 13.243153534007202]}, {"species": [{"element": "Bi", "occu": 1}], "abc": [0.5, 0.84535698, 0.15189508000000002], "properties": {"magmom": 0.0}, "label": "Bi", "xyz": [2.02696404, 8.752502678164465, 2.3718408159927984]}, {"species": [{"element": "Bi", "occu": 1}], "abc": [0.5, 0.76657516, 0.80001791], "properties": {"magmom": -0.0}, "label": "Bi", "xyz": [2.02696404, 7.936825861323523, 12.492275144548808]}, {"species": [{"element": "Bi", "occu": 1}], "abc": [0.5, 0.23342484, 0.19998209], "properties": {"magmom": -0.0}, "label": "Bi", "xyz": [2.02696404, 2.416791468676477, 3.1227192054511916]}, {"species": [{"element": "Bi", "occu": 1}], "abc": [0.0, 0.26657516000000003, 0.69998209], "properties": {"magmom": -0.0}, "label": "Bi", "xyz": [0.0, 2.760017196323523, 10.930216380451192]}, {"species": [{"element": "Bi", "occu": 1}], "abc": [0.0, 0.73342484, 0.30001791], "properties": {"magmom": -0.0}, "label": "Bi", "xyz": [0.0, 7.593600133676477, 4.684777969548809]}, {"species": [{"element": "Bi", "occu": 1}], "abc": [0.5, 0.98717817, 0.60553914], "properties": {"magmom": 0.0}, "label": "Bi", "xyz": [2.02696404, 10.220865008709687, 9.455490249803859]}, {"species": [{"element": "Bi", "occu": 1}], "abc": [0.5, 0.012821830000000001, 0.39446086], "properties": {"magmom": 0.0}, "label": "Bi", "xyz": [2.02696404, 0.13275232129031392, 6.159504100196141]}, {"species": [{"element": "Bi", "occu": 1}], "abc": [0.0, 0.48717817, 0.89446086], "properties": {"magmom": 0.0}, "label": "Bi", "xyz": [0.0, 5.044056343709687, 13.967001275196141]}, {"species": [{"element": "Bi", "occu": 1}], "abc": [-0.0, 0.51282183, 0.10553914], "properties": {"magmom": 0.0}, "label": "Bi", "xyz": [0.0, 5.309560986290315, 1.6479930748038591]}]}, "task_ids": null, "uncorrected_energy_per_atom": null, "energy_per_atom": -5.717504674999996, "formation_energy_per_atom": -0.27491492499999703, "energy_above_hull": 0.0, "is_stable": true, "equilibrium_reaction_energy_per_atom": null, "decomposes_to": null, "xas": null, "grain_boundaries": null, "band_gap": 0.0, "cbm": null, "vbm": null, "efermi": 6.43289739, "is_gap_direct": null, "is_metal": null, "es_source_calc_id": null, "bandstructure": null, "dos": null, "dos_energy_up": null, "dos_energy_down": null, "is_magnetic": null, "ordering": null, "total_magnetization": 4e-07, "total_magnetization_normalized_vol": null, "total_magnetization_normalized_formula_units": null, "num_magnetic_sites": null, "num_unique_magnetic_sites": null, "types_of_magnetic_species": null, "bulk_modulus": null, "shear_modulus": null, "universal_anisotropy": null, "homogeneous_poisson": null, "e_total": null, "e_ionic": null, "e_electronic": null, "n": null, "e_ij_max": null, "weighted_surface_energy_EV_PER_ANG2": null, "weighted_surface_energy": null, "weighted_work_function": null, "surface_anisotropy": null, "shape_factor": null, "has_reconstructed": null, "possible_species": null, "has_props": null, "theoretical": null, "database_IDs": null, "fields_not_requested": ["builder_meta", "nsites", "elements", "nelements", "composition", "composition_reduced", "chemsys", "symmetry", "property_name", "deprecated", "deprecation_reasons", "last_updated", "origins", "warnings", "task_ids", "uncorrected_energy_per_atom", "equilibrium_reaction_energy_per_atom", "decomposes_to", "xas", "grain_boundaries", "cbm", "vbm", "is_gap_direct", "is_metal", "es_source_calc_id", "bandstructure", "dos", "dos_energy_up", "dos_energy_down", "is_magnetic", "ordering", "total_magnetization_normalized_vol", "total_magnetization_normalized_formula_units", "num_magnetic_sites", "num_unique_magnetic_sites", "types_of_magnetic_species", "bulk_modulus", "shear_modulus", "universal_anisotropy", "homogeneous_poisson", "e_total", "e_ionic", "e_electronic", "n", "e_ij_max", "weighted_surface_energy_EV_PER_ANG2", "weighted_surface_energy", "weighted_work_function", "surface_anisotropy", "shape_factor", "has_reconstructed", "possible_species", "has_props", "theoretical", "database_IDs"]}