{"builder_meta": null, "nsites": null, "elements": null, "nelements": null, "composition": null, "composition_reduced": null, "formula_pretty": "ZrBr4", "formula_anonymous": "AB4", "chemsys": null, "volume": 1639.1727571884446, "density": 3.329561778672309, "density_atomic": 40.97931892971111, "symmetry": null, "property_name": null, "material_id": "mp-1207486", "deprecated": null, "deprecation_reasons": null, "last_updated": null, "origins": null, "warnings": null, "structure": {"@module": "pymatgen.core.structure", "@class": "Structure", "charge": 0, "lattice": {"matrix": [[11.79075393, 0.0, -0.0], [-0.0, 11.79075393, -0.0], [0.0, -0.0, 11.79075393]], "pbc": [true, true, true], "a": 11.79075393, "b": 11.79075393, "c": 11.79075393, "alpha": 90.0, "beta": 90.0, "gamma": 90.0, "volume": 1639.1727571884446}, "properties": {}, "sites": [{"species": [{"element": "Zr", "occu": 1}], "abc": [0.12856763000000002, 0.12856763000000002, 0.12856763000000002], "properties": {"magmom": -0.0}, "label": "Zr", "xyz": [1.515909288693286, 1.515909288693286, 1.515909288693286]}, {"species": [{"element": "Zr", "occu": 1}], "abc": [0.8714323700000001, 0.8714323700000001, 0.8714323700000001], "properties": {"magmom": -0.0}, "label": "Zr", "xyz": [10.274844641306714, 10.274844641306714, 10.274844641306714]}, {"species": [{"element": "Zr", "occu": 1}], "abc": [0.37143237, 0.8714323700000001, 0.62856763], "properties": {"magmom": -0.0}, "label": "Zr", "xyz": [4.379467676306714, 10.274844641306714, 7.4112862536932855]}, {"species": [{"element": "Zr", "occu": 1}], "abc": [0.8714323700000001, 0.62856763, 0.37143237], "properties": {"magmom": -0.0}, "label": "Zr", "xyz": [10.274844641306714, 7.4112862536932855, 4.379467676306714]}, {"species": [{"element": "Zr", "occu": 1}], "abc": [0.62856763, 0.12856763000000002, 0.37143237], "properties": {"magmom": -0.0}, "label": "Zr", "xyz": [7.4112862536932855, 1.515909288693286, 4.379467676306714]}, {"species": [{"element": "Zr", "occu": 1}], "abc": [0.12856763000000002, 0.37143237, 0.62856763], "properties": {"magmom": -0.0}, "label": "Zr", "xyz": [1.515909288693286, 4.379467676306714, 7.4112862536932855]}, {"species": [{"element": "Zr", "occu": 1}], "abc": [0.62856763, 0.37143237, 0.8714323700000001], "properties": {"magmom": -0.0}, "label": "Zr", "xyz": [7.4112862536932855, 4.379467676306714, 10.274844641306714]}, {"species": [{"element": "Zr", "occu": 1}], "abc": [0.37143237, 0.62856763, 0.12856763000000002], "properties": {"magmom": -0.0}, "label": "Zr", "xyz": [4.379467676306714, 7.4112862536932855, 1.515909288693286]}, {"species": [{"element": "Br", "occu": 1}], "abc": [0.99111484, 0.50537283, 0.25112122], "properties": {"magmom": 0.0}, "label": "Br", "xyz": [11.68599119481132, 5.958726681437722, 2.960908511621394]}, {"species": [{"element": "Br", "occu": 1}], "abc": [0.00888516, 0.49462717, 0.74887878], "properties": {"magmom": 0.0}, "label": "Br", "xyz": [0.10476273518867879, 5.8320272485622775, 8.829845418378605]}, {"species": [{"element": "Br", "occu": 1}], "abc": [0.5088851600000001, 0.49462717, 0.75112122], "properties": {"magmom": 0.0}, "label": "Br", "xyz": [6.000139700188679, 5.8320272485622775, 8.856285476621395]}, {"species": [{"element": "Br", "occu": 1}], "abc": [0.00888516, 0.00537283, 0.24887878], "properties": {"magmom": 0.0}, "label": "Br", "xyz": [0.10476273518867879, 0.0633497164377219, 2.934468453378605]}, {"species": [{"element": "Br", "occu": 1}], "abc": [0.25112122, 0.99111484, 0.50537283], "properties": {"magmom": 0.0}, "label": "Br", "xyz": [2.960908511621394, 11.68599119481132, 5.958726681437722]}, {"species": [{"element": "Br", "occu": 1}], "abc": [0.49111484, 0.50537283, 0.24887878], "properties": {"magmom": 0.0}, "label": "Br", "xyz": [5.790614229811321, 5.958726681437722, 2.934468453378605]}, {"species": [{"element": "Br", "occu": 1}], "abc": [0.99111484, 0.99462717, 0.75112122], "properties": {"magmom": 0.0}, "label": "Br", "xyz": [11.68599119481132, 11.727404213562277, 8.856285476621395]}, {"species": [{"element": "Br", "occu": 1}], "abc": [0.74887878, 0.00888516, 0.49462717], "properties": {"magmom": 0.0}, "label": "Br", "xyz": [8.829845418378605, 0.10476273518867879, 5.8320272485622775]}, {"species": [{"element": "Br", "occu": 1}], "abc": [0.49111484, 0.99462717, 0.74887878], "properties": {"magmom": 0.0}, "label": "Br", "xyz": [5.790614229811321, 11.727404213562277, 8.829845418378605]}, {"species": [{"element": "Br", "occu": 1}], "abc": [0.75112122, 0.5088851600000001, 0.49462717], "properties": {"magmom": 0.0}, "label": "Br", "xyz": [8.856285476621395, 6.000139700188679, 5.8320272485622775]}, {"species": [{"element": "Br", "occu": 1}], "abc": [0.5088851600000001, 0.00537283, 0.25112122], "properties": {"magmom": 0.0}, "label": "Br", "xyz": [6.000139700188679, 0.0633497164377219, 2.960908511621394]}, {"species": [{"element": "Br", "occu": 1}], "abc": [0.24887878, 0.49111484, 0.50537283], "properties": {"magmom": 0.0}, "label": "Br", "xyz": [2.934468453378605, 5.790614229811321, 5.958726681437722]}, {"species": [{"element": "Br", "occu": 1}], "abc": [0.24887878, 0.00888516, 0.00537283], "properties": {"magmom": 0.0}, "label": "Br", "xyz": [2.934468453378605, 0.10476273518867879, 0.0633497164377219]}, {"species": [{"element": "Br", "occu": 1}], "abc": [0.75112122, 0.99111484, 0.99462717], "properties": {"magmom": 0.0}, "label": "Br", "xyz": [8.856285476621395, 11.68599119481132, 11.727404213562277]}, {"species": [{"element": "Br", "occu": 1}], "abc": [0.74887878, 0.49111484, 0.99462717], "properties": {"magmom": 0.0}, "label": "Br", "xyz": [8.829845418378605, 5.790614229811321, 11.727404213562277]}, {"species": [{"element": "Br", "occu": 1}], "abc": [0.25112122, 0.5088851600000001, 0.00537283], "properties": {"magmom": 0.0}, "label": "Br", "xyz": [2.960908511621394, 6.000139700188679, 0.0633497164377219]}, {"species": [{"element": "Br", "occu": 1}], "abc": [0.50537283, 0.25112122, 0.99111484], "properties": {"magmom": 0.0}, "label": "Br", "xyz": [5.958726681437722, 2.960908511621394, 11.68599119481132]}, {"species": [{"element": "Br", "occu": 1}], "abc": [0.49462717, 0.74887878, 0.00888516], "properties": {"magmom": 0.0}, "label": "Br", "xyz": [5.8320272485622775, 8.829845418378605, 0.10476273518867879]}, {"species": [{"element": "Br", "occu": 1}], "abc": [0.00537283, 0.24887878, 0.00888516], "properties": {"magmom": 0.0}, "label": "Br", "xyz": [0.0633497164377219, 2.934468453378605, 0.10476273518867879]}, {"species": [{"element": "Br", "occu": 1}], "abc": [0.99462717, 0.75112122, 0.99111484], "properties": {"magmom": 0.0}, "label": "Br", "xyz": [11.727404213562277, 8.856285476621395, 11.68599119481132]}, {"species": [{"element": "Br", "occu": 1}], "abc": [0.99462717, 0.74887878, 0.49111484], "properties": {"magmom": 0.0}, "label": "Br", "xyz": [11.727404213562277, 8.829845418378605, 5.790614229811321]}, {"species": [{"element": "Br", "occu": 1}], "abc": [0.00537283, 0.25112122, 0.5088851600000001], "properties": {"magmom": 0.0}, "label": "Br", "xyz": [0.0633497164377219, 2.960908511621394, 6.000139700188679]}, {"species": [{"element": "Br", "occu": 1}], "abc": [0.49462717, 0.75112122, 0.5088851600000001], "properties": {"magmom": 0.0}, "label": "Br", "xyz": [5.8320272485622775, 8.856285476621395, 6.000139700188679]}, {"species": [{"element": "Br", "occu": 1}], "abc": [0.50537283, 0.24887878, 0.49111484], "properties": {"magmom": 0.0}, "label": "Br", "xyz": [5.958726681437722, 2.934468453378605, 5.790614229811321]}, {"species": [{"element": "Br", "occu": 1}], "abc": [0.24964926, 0.24964926, 0.24964926], "properties": {"magmom": -0.0}, "label": "Br", "xyz": [2.9435529934665916, 2.9435529934665916, 2.9435529934665916]}, {"species": [{"element": "Br", "occu": 1}], "abc": [0.75035074, 0.75035074, 0.75035074], "properties": {"magmom": -0.0}, "label": "Br", "xyz": [8.847200936533408, 8.847200936533408, 8.847200936533408]}, {"species": [{"element": "Br", "occu": 1}], "abc": [0.25035074, 0.75035074, 0.74964926], "properties": {"magmom": -0.0}, "label": "Br", "xyz": [2.951823971533408, 8.847200936533408, 8.838929958466592]}, {"species": [{"element": "Br", "occu": 1}], "abc": [0.75035074, 0.74964926, 0.25035074], "properties": {"magmom": -0.0}, "label": "Br", "xyz": [8.847200936533408, 8.838929958466592, 2.951823971533408]}, {"species": [{"element": "Br", "occu": 1}], "abc": [0.74964926, 0.24964926, 0.25035074], "properties": {"magmom": -0.0}, "label": "Br", "xyz": [8.838929958466592, 2.9435529934665916, 2.951823971533408]}, {"species": [{"element": "Br", "occu": 1}], "abc": [0.24964926, 0.25035074, 0.74964926], "properties": {"magmom": -0.0}, "label": "Br", "xyz": [2.9435529934665916, 2.951823971533408, 8.838929958466592]}, {"species": [{"element": "Br", "occu": 1}], "abc": [0.74964926, 0.25035074, 0.75035074], "properties": {"magmom": -0.0}, "label": "Br", "xyz": [8.838929958466592, 2.951823971533408, 8.847200936533408]}, {"species": [{"element": "Br", "occu": 1}], "abc": [0.25035074, 0.74964926, 0.24964926], "properties": {"magmom": -0.0}, "label": "Br", "xyz": [2.951823971533408, 8.838929958466592, 2.9435529934665916]}]}, "task_ids": null, "uncorrected_energy_per_atom": null, "energy_per_atom": -4.8108047954999975, "formation_energy_per_atom": -1.7917074414999972, "energy_above_hull": 0.0, "is_stable": true, "equilibrium_reaction_energy_per_atom": null, "decomposes_to": null, "xas": null, "grain_boundaries": null, "band_gap": 3.7707, "cbm": null, "vbm": null, "efermi": -3.4618184100000002, "is_gap_direct": null, "is_metal": null, "es_source_calc_id": null, "bandstructure": null, "dos": null, "dos_energy_up": null, "dos_energy_down": null, "is_magnetic": null, "ordering": null, "total_magnetization": 0.0, "total_magnetization_normalized_vol": null, "total_magnetization_normalized_formula_units": null, "num_magnetic_sites": null, "num_unique_magnetic_sites": null, "types_of_magnetic_species": null, "bulk_modulus": null, "shear_modulus": null, "universal_anisotropy": null, "homogeneous_poisson": null, "e_total": null, "e_ionic": null, "e_electronic": null, "n": null, "e_ij_max": null, "weighted_surface_energy_EV_PER_ANG2": null, "weighted_surface_energy": null, "weighted_work_function": null, "surface_anisotropy": null, "shape_factor": null, "has_reconstructed": null, "possible_species": null, "has_props": null, "theoretical": null, "database_IDs": null, "fields_not_requested": ["builder_meta", "nsites", "elements", "nelements", "composition", "composition_reduced", "chemsys", "symmetry", "property_name", "deprecated", "deprecation_reasons", "last_updated", "origins", "warnings", "task_ids", "uncorrected_energy_per_atom", "equilibrium_reaction_energy_per_atom", "decomposes_to", "xas", "grain_boundaries", "cbm", "vbm", "is_gap_direct", "is_metal", "es_source_calc_id", "bandstructure", "dos", "dos_energy_up", "dos_energy_down", "is_magnetic", "ordering", "total_magnetization_normalized_vol", "total_magnetization_normalized_formula_units", "num_magnetic_sites", "num_unique_magnetic_sites", "types_of_magnetic_species", "bulk_modulus", "shear_modulus", "universal_anisotropy", "homogeneous_poisson", "e_total", "e_ionic", "e_electronic", "n", "e_ij_max", "weighted_surface_energy_EV_PER_ANG2", "weighted_surface_energy", "weighted_work_function", "surface_anisotropy", "shape_factor", "has_reconstructed", "possible_species", "has_props", "theoretical", "database_IDs"]}