{
  "builder_meta": null,
  "nsites": null,
  "elements": null,
  "nelements": null,
  "composition": null,
  "composition_reduced": null,
  "formula_pretty": "ZrBr3",
  "formula_anonymous": "AB3",
  "chemsys": null,
  "volume": 260.414687367828,
  "density": 4.220439039739258,
  "density_atomic": 32.5518359209785,
  "symmetry": null,
  "property_name": null,
  "material_id": "mp-23247",
  "deprecated": null,
  "deprecation_reasons": null,
  "last_updated": null,
  "origins": null,
  "warnings": null,
  "structure": {
    "@module": "pymatgen.core.structure",
    "@class": "Structure",
    "charge": 0,
    "lattice": {
      "matrix": [
        [6.95081162, -0.0, 0.0],
        [-3.47540581, 6.01957903, 0.0],
        [-0.0, -0.0, 6.22391762]
      ],
      "pbc": [true, true, true],
      "a": 6.95081162,
      "b": 6.950811265068093,
      "c": 6.22391762,
      "alpha": 90.0,
      "beta": 90.0,
      "gamma": 120.00000168916299,
      "volume": 260.414687367828
    },
    "properties": {},
    "sites": [
      {
        "species": [{ "element": "Zr", "occu": 1 }],
        "abc": [0.0, 0.0, 0.5],
        "properties": { "magmom": 0.0 },
        "label": "Zr",
        "xyz": [0.0, 0.0, 3.11195881]
      },
      {
        "species": [{ "element": "Zr", "occu": 1 }],
        "abc": [0.0, 0.0, -0.0],
        "properties": { "magmom": 0.0 },
        "label": "Zr",
        "xyz": [0.0, 0.0, 0.0]
      },
      {
        "species": [{ "element": "Br", "occu": 1 }],
        "abc": [0.68226876, 0.0, 0.75],
        "properties": { "magmom": 0.0 },
        "label": "Br",
        "xyz": [4.742321624970991, 0.0, 4.6679382149999995]
      },
      {
        "species": [{ "element": "Br", "occu": 1 }],
        "abc": [0.68226876, 0.68226876, 0.25],
        "properties": { "magmom": 0.0 },
        "label": "Br",
        "xyz": [2.3711608124854955, 4.106970720520103, 1.555979405]
      },
      {
        "species": [{ "element": "Br", "occu": 1 }],
        "abc": [0.31773124, 0.0, 0.25],
        "properties": { "magmom": 0.0 },
        "label": "Br",
        "xyz": [2.2084899950290087, 0.0, 1.555979405]
      },
      {
        "species": [{ "element": "Br", "occu": 1 }],
        "abc": [0.31773124, 0.31773124, 0.75],
        "properties": { "magmom": 0.0 },
        "label": "Br",
        "xyz": [1.1042449975145043, 1.9126083094798974, 4.6679382149999995]
      },
      {
        "species": [{ "element": "Br", "occu": 1 }],
        "abc": [0.0, 0.68226876, 0.75],
        "properties": { "magmom": 0.0 },
        "label": "Br",
        "xyz": [-2.3711608124854955, 4.106970720520103, 4.6679382149999995]
      },
      {
        "species": [{ "element": "Br", "occu": 1 }],
        "abc": [-0.0, 0.31773124, 0.25],
        "properties": { "magmom": 0.0 },
        "label": "Br",
        "xyz": [-1.1042449975145043, 1.9126083094798974, 1.555979405]
      }
    ]
  },
  "task_ids": null,
  "uncorrected_energy_per_atom": null,
  "energy_per_atom": -5.163764869999998,
  "formation_energy_per_atom": -1.7991298112499972,
  "energy_above_hull": 0.0,
  "is_stable": true,
  "equilibrium_reaction_energy_per_atom": null,
  "decomposes_to": null,
  "xas": null,
  "grain_boundaries": null,
  "band_gap": 0.0,
  "cbm": null,
  "vbm": null,
  "efermi": 1.6875280400000001,
  "is_gap_direct": null,
  "is_metal": null,
  "es_source_calc_id": null,
  "bandstructure": null,
  "dos": null,
  "dos_energy_up": null,
  "dos_energy_down": null,
  "is_magnetic": null,
  "ordering": null,
  "total_magnetization": 4e-7,
  "total_magnetization_normalized_vol": null,
  "total_magnetization_normalized_formula_units": null,
  "num_magnetic_sites": null,
  "num_unique_magnetic_sites": null,
  "types_of_magnetic_species": null,
  "bulk_modulus": null,
  "shear_modulus": null,
  "universal_anisotropy": null,
  "homogeneous_poisson": null,
  "e_total": null,
  "e_ionic": null,
  "e_electronic": null,
  "n": null,
  "e_ij_max": null,
  "weighted_surface_energy_EV_PER_ANG2": null,
  "weighted_surface_energy": null,
  "weighted_work_function": null,
  "surface_anisotropy": null,
  "shape_factor": null,
  "has_reconstructed": null,
  "possible_species": null,
  "has_props": null,
  "theoretical": null,
  "database_IDs": null,
  "fields_not_requested": [
    "builder_meta",
    "nsites",
    "elements",
    "nelements",
    "composition",
    "composition_reduced",
    "chemsys",
    "symmetry",
    "property_name",
    "deprecated",
    "deprecation_reasons",
    "last_updated",
    "origins",
    "warnings",
    "task_ids",
    "uncorrected_energy_per_atom",
    "equilibrium_reaction_energy_per_atom",
    "decomposes_to",
    "xas",
    "grain_boundaries",
    "cbm",
    "vbm",
    "is_gap_direct",
    "is_metal",
    "es_source_calc_id",
    "bandstructure",
    "dos",
    "dos_energy_up",
    "dos_energy_down",
    "is_magnetic",
    "ordering",
    "total_magnetization_normalized_vol",
    "total_magnetization_normalized_formula_units",
    "num_magnetic_sites",
    "num_unique_magnetic_sites",
    "types_of_magnetic_species",
    "bulk_modulus",
    "shear_modulus",
    "universal_anisotropy",
    "homogeneous_poisson",
    "e_total",
    "e_ionic",
    "e_electronic",
    "n",
    "e_ij_max",
    "weighted_surface_energy_EV_PER_ANG2",
    "weighted_surface_energy",
    "weighted_work_function",
    "surface_anisotropy",
    "shape_factor",
    "has_reconstructed",
    "possible_species",
    "has_props",
    "theoretical",
    "database_IDs"
  ]
}
