{
  "builder_meta": null,
  "nsites": null,
  "elements": null,
  "nelements": null,
  "composition": null,
  "composition_reduced": null,
  "formula_pretty": "ZrBr2",
  "formula_anonymous": "AB2",
  "chemsys": null,
  "volume": 511.8792960530282,
  "density": 4.886094587309282,
  "density_atomic": 28.437738669612678,
  "symmetry": null,
  "property_name": null,
  "material_id": "mp-28495",
  "deprecated": null,
  "deprecation_reasons": null,
  "last_updated": null,
  "origins": null,
  "warnings": null,
  "structure": {
    "@module": "pymatgen.core.structure",
    "@class": "Structure",
    "charge": 0,
    "lattice": {
      "matrix": [
        [8.12295785, 0.03649918, -2.503224389999999],
        [-3.40044289, 7.37708423, -2.50309567],
        [0.023292570000000002, 0.03642497, 8.49989738]
      ],
      "pbc": [true, true, true],
      "a": 8.499994633510552,
      "b": 8.499992442222464,
      "c": 8.50000734074904,
      "alpha": 106.96906814731773,
      "beta": 106.96911759808809,
      "gamma": 106.96912355252572,
      "volume": 511.87929605302816
    },
    "properties": {},
    "sites": [
      {
        "species": [{ "element": "Zr", "occu": 1 }],
        "abc": [0.96651703, 0.90083983, 0.71009682],
        "properties": { "magmom": 0.181 },
        "label": "Zr",
        "xyz": [4.8042626809315045, 6.706713638065513, 1.3614528191814346]
      },
      {
        "species": [{ "element": "Zr", "occu": 1 }],
        "abc": [0.90084083, 0.71009882, 0.96651703],
        "properties": { "magmom": 0.181 },
        "label": "Zr",
        "xyz": [4.925354273560093, 5.306544112191368, 4.182843552244428]
      },
      {
        "species": [{ "element": "Zr", "occu": 1 }],
        "abc": [0.71009782, 0.96651703, 0.90083983],
        "properties": { "magmom": 0.181 },
        "label": "Zr",
        "xyz": [2.5024915733085336, 7.18880859197178, 3.460227335732557]
      },
      {
        "species": [{ "element": "Zr", "occu": 1 }],
        "abc": [0.03348297, 0.09916017, 0.28990318],
        "properties": { "magmom": 0.181 },
        "label": "Zr",
        "xyz": [-0.05845515093150421, 0.7432947419344884, 2.132124500818566]
      },
      {
        "species": [{ "element": "Zr", "occu": 1 }],
        "abc": [0.09915917, 0.28990118, 0.03348297],
        "properties": { "magmom": 0.181 },
        "label": "Zr",
        "xyz": [-0.17954674356009265, 2.1434642678086333, -0.6892662322444283]
      },
      {
        "species": [{ "element": "Zr", "occu": 1 }],
        "abc": [0.28990218, 0.03348297, 0.09916017],
        "properties": { "magmom": 0.181 },
        "label": "Zr",
        "xyz": [2.2433159566914664, 0.2611997880282204, 0.03334998426744484]
      },
      {
        "species": [{ "element": "Br", "occu": 1 }],
        "abc": [0.6261434300000001, 0.85462087, 0.5484764400000001],
        "properties": { "magmom": 0.008 },
        "label": "Br",
        "xyz": [2.1928226547793637, 6.347442102335974, 0.9554181505448383]
      },
      {
        "species": [{ "element": "Br", "occu": 1 }],
        "abc": [0.85462087, 0.5484764400000001, 0.6261434300000001],
        "properties": { "magmom": 0.008 },
        "label": "Br",
        "xyz": [5.091570983683133, 4.1001571126698755, 1.809958092113181]
      },
      {
        "species": [{ "element": "Br", "occu": 1 }],
        "abc": [0.5484764400000001, 0.6261434300000001, 0.85462087],
        "properties": { "magmom": 0.008 },
        "label": "Br",
        "xyz": [2.345992345612278, 4.670261303031553, 4.323933183426002]
      },
      {
        "species": [{ "element": "Br", "occu": 1 }],
        "abc": [0.37385657, 0.14537913, 0.45152356],
        "properties": { "magmom": 0.008 },
        "label": "Br",
        "xyz": [2.5529848752206385, 1.1025662776640257, 2.538159169455164]
      },
      {
        "species": [{ "element": "Br", "occu": 1 }],
        "abc": [0.14537913, 0.45152356, 0.37385657],
        "properties": { "magmom": 0.008 },
        "label": "Br",
        "xyz": [-0.34576345368313277, 3.3498512673301253, 1.683619227886821]
      },
      {
        "species": [{ "element": "Br", "occu": 1 }],
        "abc": [0.45152356, 0.37385657, 0.14537913],
        "properties": { "magmom": 0.008 },
        "label": "Br",
        "xyz": [2.399815184387723, 2.779747076968448, -0.8303558634260004]
      },
      {
        "species": [{ "element": "Br", "occu": 1 }],
        "abc": [0.31230193, 0.92208239, 0.7738655600000001],
        "properties": { "magmom": 0.005 },
        "label": "Br",
        "xyz": [-0.5806477754791672, 6.841866252194161, 3.487955599903909]
      },
      {
        "species": [{ "element": "Br", "occu": 1 }],
        "abc": [0.77386456, 0.31230193, 0.92208239],
        "properties": { "magmom": 0.005 },
        "label": "Br",
        "xyz": [5.245581993701862, 2.365709888065903, 5.118727441040877]
      },
      {
        "species": [{ "element": "Br", "occu": 1 }],
        "abc": [0.92208239, 0.7738655600000001, 0.31230193],
        "properties": { "magmom": 0.005 },
        "label": "Br",
        "xyz": [4.8658250614450544, 5.753902258374752, -1.5907043040596736]
      },
      {
        "species": [{ "element": "Br", "occu": 1 }],
        "abc": [0.68769807, 0.07791761, 0.22613444],
        "properties": { "magmom": 0.005 },
        "label": "Br",
        "xyz": [5.326455305479168, 0.6081421278058398, 0.005621720096091742]
      },
      {
        "species": [{ "element": "Br", "occu": 1 }],
        "abc": [0.22613544, 0.68769807, 0.07791761],
        "properties": { "magmom": 0.005 },
        "label": "Br",
        "xyz": [-0.4997744637018605, 5.084298491934097, -1.6251501210408765]
      },
      {
        "species": [{ "element": "Br", "occu": 1 }],
        "abc": [0.07791761, 0.22613444, 0.68769807],
        "properties": { "magmom": 0.005 },
        "label": "Br",
        "xyz": [-0.12001753144505309, 1.696106121625249, 5.084281624059675]
      }
    ]
  },
  "task_ids": null,
  "uncorrected_energy_per_atom": null,
  "energy_per_atom": -5.5317018511111105,
  "formation_energy_per_atom": -1.591170617777777,
  "energy_above_hull": 0.031904567222222,
  "is_stable": false,
  "equilibrium_reaction_energy_per_atom": null,
  "decomposes_to": null,
  "xas": null,
  "grain_boundaries": null,
  "band_gap": 0.0,
  "cbm": null,
  "vbm": null,
  "efermi": 2.36207637,
  "is_gap_direct": null,
  "is_metal": null,
  "es_source_calc_id": null,
  "bandstructure": null,
  "dos": null,
  "dos_energy_up": null,
  "dos_energy_down": null,
  "is_magnetic": null,
  "ordering": null,
  "total_magnetization": 2.0045619,
  "total_magnetization_normalized_vol": null,
  "total_magnetization_normalized_formula_units": null,
  "num_magnetic_sites": null,
  "num_unique_magnetic_sites": null,
  "types_of_magnetic_species": null,
  "bulk_modulus": null,
  "shear_modulus": null,
  "universal_anisotropy": null,
  "homogeneous_poisson": null,
  "e_total": null,
  "e_ionic": null,
  "e_electronic": null,
  "n": null,
  "e_ij_max": null,
  "weighted_surface_energy_EV_PER_ANG2": null,
  "weighted_surface_energy": null,
  "weighted_work_function": null,
  "surface_anisotropy": null,
  "shape_factor": null,
  "has_reconstructed": null,
  "possible_species": null,
  "has_props": null,
  "theoretical": null,
  "database_IDs": null,
  "fields_not_requested": [
    "builder_meta",
    "nsites",
    "elements",
    "nelements",
    "composition",
    "composition_reduced",
    "chemsys",
    "symmetry",
    "property_name",
    "deprecated",
    "deprecation_reasons",
    "last_updated",
    "origins",
    "warnings",
    "task_ids",
    "uncorrected_energy_per_atom",
    "equilibrium_reaction_energy_per_atom",
    "decomposes_to",
    "xas",
    "grain_boundaries",
    "cbm",
    "vbm",
    "is_gap_direct",
    "is_metal",
    "es_source_calc_id",
    "bandstructure",
    "dos",
    "dos_energy_up",
    "dos_energy_down",
    "is_magnetic",
    "ordering",
    "total_magnetization_normalized_vol",
    "total_magnetization_normalized_formula_units",
    "num_magnetic_sites",
    "num_unique_magnetic_sites",
    "types_of_magnetic_species",
    "bulk_modulus",
    "shear_modulus",
    "universal_anisotropy",
    "homogeneous_poisson",
    "e_total",
    "e_ionic",
    "e_electronic",
    "n",
    "e_ij_max",
    "weighted_surface_energy_EV_PER_ANG2",
    "weighted_surface_energy",
    "weighted_work_function",
    "surface_anisotropy",
    "shape_factor",
    "has_reconstructed",
    "possible_species",
    "has_props",
    "theoretical",
    "database_IDs"
  ]
}
