{
  "builder_meta": null,
  "nsites": null,
  "elements": null,
  "nelements": null,
  "composition": null,
  "composition_reduced": null,
  "formula_pretty": "ZrCl4",
  "formula_anonymous": "AB4",
  "chemsys": null,
  "volume": 291.8590412794383,
  "density": 2.651727904181665,
  "density_atomic": 29.185904127943832,
  "symmetry": null,
  "property_name": null,
  "material_id": "mp-569175",
  "deprecated": null,
  "deprecation_reasons": null,
  "last_updated": null,
  "origins": null,
  "warnings": null,
  "structure": {
    "@module": "pymatgen.core.structure",
    "@class": "Structure",
    "charge": 0,
    "lattice": {
      "matrix": [
        [6.26131843, 0.02239323, 0.0],
        [-2.08176168, 6.13789193, 0.0],
        [0.0, 0.0, 7.58510576]
      ],
      "pbc": [true, true, true],
      "a": 6.261358473894263,
      "b": 6.48131537858447,
      "c": 7.58510576,
      "alpha": 90.0,
      "beta": 90.0,
      "gamma": 108.53025357584728,
      "volume": 291.8590412794383
    },
    "properties": {},
    "sites": [
      {
        "species": [{ "element": "Zr", "occu": 1 }],
        "abc": [0.75, -0.0, 0.83682824],
        "properties": { "magmom": 0.0 },
        "label": "Zr",
        "xyz": [4.6959888225, 0.0167949225, 6.347430703354663]
      },
      {
        "species": [{ "element": "Zr", "occu": 1 }],
        "abc": [0.25, -0.0, 0.16317176],
        "properties": { "magmom": 0.0 },
        "label": "Zr",
        "xyz": [1.5653296075, 0.0055983075, 1.2376750566453376]
      },
      {
        "species": [{ "element": "Cl", "occu": 1 }],
        "abc": [0.0220203, 0.74912272, 0.35878023000000003],
        "properties": { "magmom": 0.0 },
        "label": "Cl",
        "xyz": [-1.4216188618892407, 4.598527403310219, 2.7213859891471253]
      },
      {
        "species": [{ "element": "Cl", "occu": 1 }],
        "abc": [0.49667219, 0.22322772000000002, 0.89461195],
        "properties": { "magmom": -0.0 },
        "label": "Cl",
        "xyz": [2.645115823505692, 1.3812697157255736, 6.785726254909832]
      },
      {
        "species": [{ "element": "Cl", "occu": 1 }],
        "abc": [0.50332781, 0.77677228, 0.10538805],
        "properties": { "magmom": -0.0 },
        "label": "Cl",
        "xyz": [1.5344409264943084, 4.779015444274427, 0.799379505090168]
      },
      {
        "species": [{ "element": "Cl", "occu": 1 }],
        "abc": [0.9779797, 0.25087728, 0.64121977],
        "properties": { "magmom": 0.0 },
        "label": "Cl",
        "xyz": [5.601175611889241, 1.5617577566897813, 4.863719770852875]
      },
      {
        "species": [{ "element": "Cl", "occu": 1 }],
        "abc": [0.00332781, 0.77677228, 0.89461195],
        "properties": { "magmom": -0.0 },
        "label": "Cl",
        "xyz": [-1.5962182885056921, 4.767818829274427, 6.785726254909832]
      },
      {
        "species": [{ "element": "Cl", "occu": 1 }],
        "abc": [0.5220203, 0.74912272, 0.64121977],
        "properties": { "magmom": 0.0 },
        "label": "Cl",
        "xyz": [1.7090403531107592, 4.609724018310219, 4.863719770852875]
      },
      {
        "species": [{ "element": "Cl", "occu": 1 }],
        "abc": [0.47797969999999906, 0.25087728, 0.35878023000000003],
        "properties": { "magmom": 0.0 },
        "label": "Cl",
        "xyz": [2.4705163968892347, 1.5505611416897813, 2.7213859891471253]
      },
      {
        "species": [{ "element": "Cl", "occu": 1 }],
        "abc": [0.9966721900000001, 0.22322772000000002, 0.10538805],
        "properties": { "magmom": -0.0 },
        "label": "Cl",
        "xyz": [5.775775038505692, 1.3924663307255736, 0.799379505090168]
      }
    ]
  },
  "task_ids": null,
  "uncorrected_energy_per_atom": null,
  "energy_per_atom": -11.478320902,
  "formation_energy_per_atom": -2.006411403,
  "energy_above_hull": 0.0,
  "is_stable": true,
  "equilibrium_reaction_energy_per_atom": null,
  "decomposes_to": null,
  "xas": null,
  "grain_boundaries": null,
  "band_gap": 3.6058,
  "cbm": null,
  "vbm": null,
  "efermi": -1.49156752,
  "is_gap_direct": null,
  "is_metal": null,
  "es_source_calc_id": null,
  "bandstructure": null,
  "dos": null,
  "dos_energy_up": null,
  "dos_energy_down": null,
  "is_magnetic": null,
  "ordering": null,
  "total_magnetization": 0.0,
  "total_magnetization_normalized_vol": null,
  "total_magnetization_normalized_formula_units": null,
  "num_magnetic_sites": null,
  "num_unique_magnetic_sites": null,
  "types_of_magnetic_species": null,
  "bulk_modulus": null,
  "shear_modulus": null,
  "universal_anisotropy": null,
  "homogeneous_poisson": null,
  "e_total": null,
  "e_ionic": null,
  "e_electronic": null,
  "n": null,
  "e_ij_max": null,
  "weighted_surface_energy_EV_PER_ANG2": null,
  "weighted_surface_energy": null,
  "weighted_work_function": null,
  "surface_anisotropy": null,
  "shape_factor": null,
  "has_reconstructed": null,
  "possible_species": null,
  "has_props": null,
  "theoretical": null,
  "database_IDs": null,
  "fields_not_requested": [
    "builder_meta",
    "nsites",
    "elements",
    "nelements",
    "composition",
    "composition_reduced",
    "chemsys",
    "symmetry",
    "property_name",
    "deprecated",
    "deprecation_reasons",
    "last_updated",
    "origins",
    "warnings",
    "task_ids",
    "uncorrected_energy_per_atom",
    "equilibrium_reaction_energy_per_atom",
    "decomposes_to",
    "xas",
    "grain_boundaries",
    "cbm",
    "vbm",
    "is_gap_direct",
    "is_metal",
    "es_source_calc_id",
    "bandstructure",
    "dos",
    "dos_energy_up",
    "dos_energy_down",
    "is_magnetic",
    "ordering",
    "total_magnetization_normalized_vol",
    "total_magnetization_normalized_formula_units",
    "num_magnetic_sites",
    "num_unique_magnetic_sites",
    "types_of_magnetic_species",
    "bulk_modulus",
    "shear_modulus",
    "universal_anisotropy",
    "homogeneous_poisson",
    "e_total",
    "e_ionic",
    "e_electronic",
    "n",
    "e_ij_max",
    "weighted_surface_energy_EV_PER_ANG2",
    "weighted_surface_energy",
    "weighted_work_function",
    "surface_anisotropy",
    "shape_factor",
    "has_reconstructed",
    "possible_species",
    "has_props",
    "theoretical",
    "database_IDs"
  ]
}
