{"builder_meta": null, "nsites": null, "elements": null, "nelements": null, "composition": null, "composition_reduced": null, "formula_pretty": "ZrCl2", "formula_anonymous": "AB2", "chemsys": null, "volume": 66.85297123118846, "density": 4.0270939931277, "density_atomic": 22.284323743729487, "symmetry": null, "property_name": null, "material_id": "mp-23162", "deprecated": null, "deprecation_reasons": null, "last_updated": null, "origins": null, "warnings": null, "structure": {"@module": "pymatgen.core.structure", "@class": "Structure", "charge": 0, "lattice": {"matrix": [[3.33479018, 0.02328821, 6.08967896], [1.57627907, 2.93882811, 6.08967896], [0.03861308, 0.02328821, 6.94287578]], "pbc": [true, true, true], "a": 6.943022232516335, "b": 6.943022123147305, "c": 6.943022209901297, "alpha": 28.386901742984694, "beta": 28.38689385120955, "gamma": 28.386901462696848, "volume": 66.85297123118846}, "properties": {}, "sites": [{"species": [{"element": "Zr", "occu": 1}], "abc": [7.211000000000001e-05, 7.211000000000001e-05, 7.211000000000001e-05], "properties": {"magmom": 0.0}, "label": "Zr", "xyz": [0.00035692159281630007, 0.00021527752065830008, 0.0013789042721070002]}, {"species": [{"element": "Cl", "occu": 1}], "abc": [0.41911788, 0.41911788, 0.41911788], "properties": {"magmom": -0.0}, "label": "Cl", "xyz": [2.07450036482306, 1.2512364175559962, 8.014470049208555]}, {"species": [{"element": "Cl", "occu": 1}], "abc": [0.24770901, 0.24770901, 0.24770901], "properties": {"magmom": -0.0}, "label": "Cl", "xyz": [1.2260809097787932, 0.7395116005758154, 4.736749578815637]}]}, "task_ids": null, "uncorrected_energy_per_atom": null, "energy_per_atom": -13.56349559, "formation_energy_per_atom": -1.87860569, "energy_above_hull": 0.0, "is_stable": true, "equilibrium_reaction_energy_per_atom": null, "decomposes_to": null, "xas": null, "grain_boundaries": null, "band_gap": 1.0479, "cbm": null, "vbm": null, "efermi": 4.27076487, "is_gap_direct": null, "is_metal": null, "es_source_calc_id": null, "bandstructure": null, "dos": null, "dos_energy_up": null, "dos_energy_down": null, "is_magnetic": null, "ordering": null, "total_magnetization": 0.0, "total_magnetization_normalized_vol": null, "total_magnetization_normalized_formula_units": null, "num_magnetic_sites": null, "num_unique_magnetic_sites": null, "types_of_magnetic_species": null, "bulk_modulus": null, "shear_modulus": null, "universal_anisotropy": null, "homogeneous_poisson": null, "e_total": null, "e_ionic": null, "e_electronic": null, "n": null, "e_ij_max": null, "weighted_surface_energy_EV_PER_ANG2": null, "weighted_surface_energy": null, "weighted_work_function": null, "surface_anisotropy": null, "shape_factor": null, "has_reconstructed": null, "possible_species": null, "has_props": null, "theoretical": null, "database_IDs": null, "fields_not_requested": ["builder_meta", "nsites", "elements", "nelements", "composition", "composition_reduced", "chemsys", "symmetry", "property_name", "deprecated", "deprecation_reasons", "last_updated", "origins", "warnings", "task_ids", "uncorrected_energy_per_atom", "equilibrium_reaction_energy_per_atom", "decomposes_to", "xas", "grain_boundaries", "cbm", "vbm", "is_gap_direct", "is_metal", "es_source_calc_id", "bandstructure", "dos", "dos_energy_up", "dos_energy_down", "is_magnetic", "ordering", "total_magnetization_normalized_vol", "total_magnetization_normalized_formula_units", "num_magnetic_sites", "num_unique_magnetic_sites", "types_of_magnetic_species", "bulk_modulus", "shear_modulus", "universal_anisotropy", "homogeneous_poisson", "e_total", "e_ionic", "e_electronic", "n", "e_ij_max", "weighted_surface_energy_EV_PER_ANG2", "weighted_surface_energy", "weighted_work_function", "surface_anisotropy", "shape_factor", "has_reconstructed", "possible_species", "has_props", "theoretical", "database_IDs"]}