{
  "builder_meta": null,
  "nsites": null,
  "elements": null,
  "nelements": null,
  "composition": null,
  "composition_reduced": null,
  "formula_pretty": "ZrCl3",
  "formula_anonymous": "AB3",
  "chemsys": null,
  "volume": 215.59262411948515,
  "density": 3.043650419266591,
  "density_atomic": 26.949078014935644,
  "symmetry": null,
  "property_name": null,
  "material_id": "mp-1100795",
  "deprecated": null,
  "deprecation_reasons": null,
  "last_updated": null,
  "origins": null,
  "warnings": null,
  "structure": {
    "@module": "pymatgen.core.structure",
    "@class": "Structure",
    "charge": 0,
    "lattice": {
      "matrix": [
        [6.20819911, -0.026307050000000002, 0.00396153],
        [-2.92490368, -5.48162969, 0.00741368],
        [-3.07426149, 1.66838153, -6.3256403500000005]
      ],
      "pbc": [true, true, true],
      "a": 6.208256111341125,
      "b": 6.213161880895925,
      "c": 7.2282990029529275,
      "alpha": 90.25570079531329,
      "beta": 115.26729204713757,
      "gamma": 117.84075212980156,
      "volume": 215.59262411948518
    },
    "properties": {},
    "sites": [
      {
        "species": [{ "element": "Zr", "occu": 1 }],
        "abc": [0.8574312, 0.14298094, 4.722e-5],
        "properties": { "magmom": -0.0 },
        "label": "Zr",
        "xyz": [4.904752968522814, -0.8062462702822221, 0.0041580576196682]
      },
      {
        "species": [{ "element": "Zr", "occu": 1 }],
        "abc": [0.1425688, 0.85701906, -4.722e-5],
        "properties": { "magmom": -0.0 },
        "label": "Zr",
        "xyz": [-1.621457538522815, -4.701690469717779, 0.0072171523803318]
      },
      {
        "species": [{ "element": "Cl", "occu": 1 }],
        "abc": [0.34790981, 0.07469993, 0.775923599999999],
        "properties": { "magmom": 0.0 },
        "label": "Cl",
        "xyz": [-0.4439887700126348, 0.8759067680350243, -4.906281576150603]
      },
      {
        "species": [{ "element": "Cl", "occu": 1 }],
        "abc": [0.666754699999999, 0.75647027, 0.7342737500000001],
        "properties": { "magmom": -0.0 },
        "label": "Cl",
        "xyz": [-0.33060625414817, -2.9391814784011134, -4.6365020636878285]
      },
      {
        "species": [{ "element": "Cl", "occu": 1 }],
        "abc": [0.00019486000000000001, 0.42332307, 0.77623875],
        "properties": { "magmom": -0.0 },
        "label": "Cl",
        "xyz": [-3.6233303717640606, -1.0254430417954243, -4.9070680045122295]
      },
      {
        "species": [{ "element": "Cl", "occu": 1 }],
        "abc": [0.99980514, 0.57667693, 0.22376125],
        "properties": { "magmom": -0.0 },
        "label": "Cl",
        "xyz": [3.8323643117640604, -2.814112168204576, -1.407197135487771]
      },
      {
        "species": [{ "element": "Cl", "occu": 1 }],
        "abc": [0.333245299999999, 0.24352973, 0.26572625],
        "properties": { "magmom": -0.0 },
        "label": "Cl",
        "xyz": [0.5396401941481581, -0.9003737315988862, -1.6777630763121723]
      },
      {
        "species": [{ "element": "Cl", "occu": 1 }],
        "abc": [0.65209019, 0.92530007, 0.224076399999999],
        "properties": { "magmom": 0.0 },
        "label": "Cl",
        "xyz": [0.6530227100126398, -4.7154619780350275, -1.4079835638493854]
      }
    ]
  },
  "task_ids": null,
  "uncorrected_energy_per_atom": null,
  "energy_per_atom": -12.2620079325,
  "formation_energy_per_atom": -1.960230783125,
  "energy_above_hull": 0.0,
  "is_stable": true,
  "equilibrium_reaction_energy_per_atom": null,
  "decomposes_to": null,
  "xas": null,
  "grain_boundaries": null,
  "band_gap": 0.365799999999999,
  "cbm": null,
  "vbm": null,
  "efermi": 2.16905122,
  "is_gap_direct": null,
  "is_metal": null,
  "es_source_calc_id": null,
  "bandstructure": null,
  "dos": null,
  "dos_energy_up": null,
  "dos_energy_down": null,
  "is_magnetic": null,
  "ordering": null,
  "total_magnetization": 0.0,
  "total_magnetization_normalized_vol": null,
  "total_magnetization_normalized_formula_units": null,
  "num_magnetic_sites": null,
  "num_unique_magnetic_sites": null,
  "types_of_magnetic_species": null,
  "bulk_modulus": null,
  "shear_modulus": null,
  "universal_anisotropy": null,
  "homogeneous_poisson": null,
  "e_total": null,
  "e_ionic": null,
  "e_electronic": null,
  "n": null,
  "e_ij_max": null,
  "weighted_surface_energy_EV_PER_ANG2": null,
  "weighted_surface_energy": null,
  "weighted_work_function": null,
  "surface_anisotropy": null,
  "shape_factor": null,
  "has_reconstructed": null,
  "possible_species": null,
  "has_props": null,
  "theoretical": null,
  "database_IDs": null,
  "fields_not_requested": [
    "builder_meta",
    "nsites",
    "elements",
    "nelements",
    "composition",
    "composition_reduced",
    "chemsys",
    "symmetry",
    "property_name",
    "deprecated",
    "deprecation_reasons",
    "last_updated",
    "origins",
    "warnings",
    "task_ids",
    "uncorrected_energy_per_atom",
    "equilibrium_reaction_energy_per_atom",
    "decomposes_to",
    "xas",
    "grain_boundaries",
    "cbm",
    "vbm",
    "is_gap_direct",
    "is_metal",
    "es_source_calc_id",
    "bandstructure",
    "dos",
    "dos_energy_up",
    "dos_energy_down",
    "is_magnetic",
    "ordering",
    "total_magnetization_normalized_vol",
    "total_magnetization_normalized_formula_units",
    "num_magnetic_sites",
    "num_unique_magnetic_sites",
    "types_of_magnetic_species",
    "bulk_modulus",
    "shear_modulus",
    "universal_anisotropy",
    "homogeneous_poisson",
    "e_total",
    "e_ionic",
    "e_electronic",
    "n",
    "e_ij_max",
    "weighted_surface_energy_EV_PER_ANG2",
    "weighted_surface_energy",
    "weighted_work_function",
    "surface_anisotropy",
    "shape_factor",
    "has_reconstructed",
    "possible_species",
    "has_props",
    "theoretical",
    "database_IDs"
  ]
}
