{
  "builder_meta": null,
  "nsites": null,
  "elements": null,
  "nelements": null,
  "composition": null,
  "composition_reduced": null,
  "formula_pretty": "ZrCl",
  "formula_anonymous": "AB",
  "chemsys": null,
  "volume": 93.08921410109588,
  "density": 4.519365844280167,
  "density_atomic": 23.27230352527397,
  "symmetry": null,
  "property_name": null,
  "material_id": "mp-27440",
  "deprecated": null,
  "deprecation_reasons": null,
  "last_updated": null,
  "origins": null,
  "warnings": null,
  "structure": {
    "@module": "pymatgen.core.structure",
    "@class": "Structure",
    "charge": 0,
    "lattice": {
      "matrix": [
        [3.44504426, 8.67e-6, 1.586e-5],
        [-1.72251879, 2.91213211, -0.64775349],
        [4.284e-5, 0.02201654, 9.27392476]
      ],
      "pbc": [true, true, true],
      "a": 3.4450442600474167,
      "b": 3.444875758543884,
      "c": 9.273950893983097,
      "alpha": 100.72112059530772,
      "beta": 89.99947121344125,
      "gamma": 120.00147043522199,
      "volume": 93.08921410109589
    },
    "properties": {},
    "sites": [
      {
        "species": [{ "element": "Zr", "occu": 1 }],
        "abc": [0.62302596, 0.24604564, 0.86946669],
        "properties": { "magmom": -0.0 },
        "label": "Zr",
        "xyz": [1.7225710171844135, 0.7356654585636263, 7.9040016235686865]
      },
      {
        "species": [{ "element": "Zr", "occu": 1 }],
        "abc": [0.37697404, 0.75395436, 0.13053331],
        "properties": { "magmom": -0.0 },
        "label": "Zr",
        "xyz": [-2.7071844136994936e-6, 2.198491861436374, 0.7221855064313137]
      },
      {
        "species": [{ "element": "Cl", "occu": 1 }],
        "abc": [0.89246829, 0.78493501, 0.67786671],
        "properties": { "magmom": 0.0 },
        "label": "Cl",
        "xyz": [1.722556495852534, 2.300766464119629, 5.778054628245133]
      },
      {
        "species": [{ "element": "Cl", "occu": 1 }],
        "abc": [0.10753171, 0.21506499, 0.32213329],
        "properties": { "magmom": 0.0 },
        "label": "Cl",
        "xyz": [1.1814147466062455e-5, 0.6333908558803713, 2.8481325017548658]
      }
    ]
  },
  "task_ids": null,
  "uncorrected_energy_per_atom": null,
  "energy_per_atom": -15.9280768725,
  "formation_energy_per_atom": -1.47696147125,
  "energy_above_hull": 0.0,
  "is_stable": true,
  "equilibrium_reaction_energy_per_atom": null,
  "decomposes_to": null,
  "xas": null,
  "grain_boundaries": null,
  "band_gap": 0.0,
  "cbm": null,
  "vbm": null,
  "efermi": 3.96520542,
  "is_gap_direct": null,
  "is_metal": null,
  "es_source_calc_id": null,
  "bandstructure": null,
  "dos": null,
  "dos_energy_up": null,
  "dos_energy_down": null,
  "is_magnetic": null,
  "ordering": null,
  "total_magnetization": 0.0,
  "total_magnetization_normalized_vol": null,
  "total_magnetization_normalized_formula_units": null,
  "num_magnetic_sites": null,
  "num_unique_magnetic_sites": null,
  "types_of_magnetic_species": null,
  "bulk_modulus": null,
  "shear_modulus": null,
  "universal_anisotropy": null,
  "homogeneous_poisson": null,
  "e_total": null,
  "e_ionic": null,
  "e_electronic": null,
  "n": null,
  "e_ij_max": null,
  "weighted_surface_energy_EV_PER_ANG2": null,
  "weighted_surface_energy": null,
  "weighted_work_function": null,
  "surface_anisotropy": null,
  "shape_factor": null,
  "has_reconstructed": null,
  "possible_species": null,
  "has_props": null,
  "theoretical": null,
  "database_IDs": null,
  "fields_not_requested": [
    "builder_meta",
    "nsites",
    "elements",
    "nelements",
    "composition",
    "composition_reduced",
    "chemsys",
    "symmetry",
    "property_name",
    "deprecated",
    "deprecation_reasons",
    "last_updated",
    "origins",
    "warnings",
    "task_ids",
    "uncorrected_energy_per_atom",
    "equilibrium_reaction_energy_per_atom",
    "decomposes_to",
    "xas",
    "grain_boundaries",
    "cbm",
    "vbm",
    "is_gap_direct",
    "is_metal",
    "es_source_calc_id",
    "bandstructure",
    "dos",
    "dos_energy_up",
    "dos_energy_down",
    "is_magnetic",
    "ordering",
    "total_magnetization_normalized_vol",
    "total_magnetization_normalized_formula_units",
    "num_magnetic_sites",
    "num_unique_magnetic_sites",
    "types_of_magnetic_species",
    "bulk_modulus",
    "shear_modulus",
    "universal_anisotropy",
    "homogeneous_poisson",
    "e_total",
    "e_ionic",
    "e_electronic",
    "n",
    "e_ij_max",
    "weighted_surface_energy_EV_PER_ANG2",
    "weighted_surface_energy",
    "weighted_work_function",
    "surface_anisotropy",
    "shape_factor",
    "has_reconstructed",
    "possible_species",
    "has_props",
    "theoretical",
    "database_IDs"
  ]
}
