{"builder_meta": null, "nsites": null, "elements": null, "nelements": null, "composition": null, "composition_reduced": null, "formula_pretty": "ZrCo2", "formula_anonymous": "AB2", "chemsys": null, "volume": 83.59897427051912, "density": 8.306388064573891, "density_atomic": 13.933162378419853, "symmetry": null, "property_name": null, "material_id": "mp-929", "deprecated": null, "deprecation_reasons": null, "last_updated": null, "origins": null, "warnings": null, "structure": {"@module": "pymatgen.core.structure", "@class": "Structure", "charge": 0, "lattice": {"matrix": [[4.25044175, 2.4580000000000005e-05, 2.45403718], [1.4168370700000001, 4.00741621, 2.45402805], [3.0110000000000005e-05, 1.7100000000000002e-05, 4.90801039]], "pbc": [true, true, true], "a": 4.908009123012058, "b": 4.90806129070163, "c": 4.90801039012215, "alpha": 59.99972961005561, "beta": 59.99920880197453, "gamma": 59.999579190105, "volume": 83.59897427051912}, "properties": {}, "sites": [{"species": [{"element": "Zr", "occu": 1}], "abc": [0.87499823, 0.87501081, 0.87500171], "properties": {"magmom": -0.355}, "label": "Zr", "xyz": [4.958903106528317, 3.5065689739049644, 8.589096744595178]}, {"species": [{"element": "Zr", "occu": 1}], "abc": [0.12500177, 0.12498919, 0.12499829], "properties": {"magmom": -0.355}, "label": "Zr", "xyz": [0.7084058234716828, 0.5008889160950354, 1.2269788754048212]}, {"species": [{"element": "Co", "occu": 1}], "abc": [0.5, 0.5, 0.5], "properties": {"magmom": 1.336}, "label": "Co", "xyz": [2.833654465, 2.0037289449999998, 4.90803781]}, {"species": [{"element": "Co", "occu": 1}], "abc": [0.5, 0.5, -0.0], "properties": {"magmom": 1.336}, "label": "Co", "xyz": [2.83363941, 2.0037203949999998, 2.454032615]}, {"species": [{"element": "Co", "occu": 1}], "abc": [0.0, 0.5, 0.5], "properties": {"magmom": 1.336}, "label": "Co", "xyz": [0.7084335900000001, 2.003716655, 3.68101922]}, {"species": [{"element": "Co", "occu": 1}], "abc": [0.5, 0.0, 0.5], "properties": {"magmom": 1.336}, "label": "Co", "xyz": [2.12523593, 2.0840000000000004e-05, 3.681023785]}]}, "task_ids": null, "uncorrected_energy_per_atom": null, "energy_per_atom": -16.627344683333334, "formation_energy_per_atom": -0.221259961666667, "energy_above_hull": 0.035919415294117005, "is_stable": false, "equilibrium_reaction_energy_per_atom": null, "decomposes_to": null, "xas": null, "grain_boundaries": null, "band_gap": 0.0, "cbm": null, "vbm": null, "efermi": 5.40524069, "is_gap_direct": null, "is_metal": null, "es_source_calc_id": null, "bandstructure": null, "dos": null, "dos_energy_up": null, "dos_energy_down": null, "is_magnetic": null, "ordering": null, "total_magnetization": 4.0298094, "total_magnetization_normalized_vol": null, "total_magnetization_normalized_formula_units": null, "num_magnetic_sites": null, "num_unique_magnetic_sites": null, "types_of_magnetic_species": null, "bulk_modulus": null, "shear_modulus": null, "universal_anisotropy": null, "homogeneous_poisson": null, "e_total": null, "e_ionic": null, "e_electronic": null, "n": null, "e_ij_max": null, "weighted_surface_energy_EV_PER_ANG2": null, "weighted_surface_energy": null, "weighted_work_function": null, "surface_anisotropy": null, "shape_factor": null, "has_reconstructed": null, "possible_species": null, "has_props": null, "theoretical": null, "database_IDs": null, "fields_not_requested": ["builder_meta", "nsites", "elements", "nelements", "composition", "composition_reduced", "chemsys", "symmetry", "property_name", "deprecated", "deprecation_reasons", "last_updated", "origins", "warnings", "task_ids", "uncorrected_energy_per_atom", "equilibrium_reaction_energy_per_atom", "decomposes_to", "xas", "grain_boundaries", "cbm", "vbm", "is_gap_direct", "is_metal", "es_source_calc_id", "bandstructure", "dos", "dos_energy_up", "dos_energy_down", "is_magnetic", "ordering", "total_magnetization_normalized_vol", "total_magnetization_normalized_formula_units", "num_magnetic_sites", "num_unique_magnetic_sites", "types_of_magnetic_species", "bulk_modulus", "shear_modulus", "universal_anisotropy", "homogeneous_poisson", "e_total", "e_ionic", "e_electronic", "n", "e_ij_max", "weighted_surface_energy_EV_PER_ANG2", "weighted_surface_energy", "weighted_work_function", "surface_anisotropy", "shape_factor", "has_reconstructed", "possible_species", "has_props", "theoretical", "database_IDs"]}