{
  "builder_meta": null,
  "nsites": null,
  "elements": null,
  "nelements": null,
  "composition": null,
  "composition_reduced": null,
  "formula_pretty": "ZrCr2",
  "formula_anonymous": "AB2",
  "chemsys": null,
  "volume": 356.8185291543169,
  "density": 7.2678765265131045,
  "density_atomic": 14.867438714763203,
  "symmetry": null,
  "property_name": null,
  "material_id": "mp-570608",
  "deprecated": null,
  "deprecation_reasons": null,
  "last_updated": null,
  "origins": null,
  "warnings": null,
  "structure": {
    "@module": "pymatgen.core.structure",
    "@class": "Structure",
    "charge": 0,
    "lattice": {
      "matrix": [
        [5.03266454, -0.0, 0.0],
        [-2.51633178, 4.35841341, 0.0],
        [0.0, -0.0, 16.26750668]
      ],
      "pbc": [true, true, true],
      "a": 5.03266454,
      "b": 5.032662623254791,
      "c": 16.26750668,
      "alpha": 90.0,
      "beta": 90.0,
      "gamma": 120.00000615723432,
      "volume": 356.8185291543169
    },
    "properties": {},
    "sites": [
      {
        "species": [{ "element": "Zr", "occu": 1 }],
        "abc": [0.333333, 0.666667, 0.84406642],
        "properties": { "magmom": -0.0 },
        "label": "Zr",
        "xyz": [-2.189665439855659e-6, 2.90561039280447, 13.730856125713686]
      },
      {
        "species": [{ "element": "Zr", "occu": 1 }],
        "abc": [2e-6, 1e-6, 0.09470969],
        "properties": { "magmom": -0.0 },
        "label": "Zr",
        "xyz": [7.5489973e-6, 4.35841341e-6, 1.5406905147357293]
      },
      {
        "species": [{ "element": "Zr", "occu": 1 }],
        "abc": [0.666667, 0.333333, 0.15593358000000002],
        "properties": { "magmom": -0.0 },
        "label": "Zr",
        "xyz": [2.51633494966544, 1.45280301719553, 2.536650554286315]
      },
      {
        "species": [{ "element": "Zr", "occu": 1 }],
        "abc": [0.999997999999999, 0.999999, 0.90529031],
        "properties": { "magmom": -0.0 },
        "label": "Zr",
        "xyz": [2.5163252110026955, 4.35840905158659, 14.726816165264271]
      },
      {
        "species": [{ "element": "Zr", "occu": 1 }],
        "abc": [0.999997999999999, 0.999999, 0.59470969],
        "properties": { "magmom": -0.0 },
        "label": "Zr",
        "xyz": [2.5163252110026955, 4.35840905158659, 9.67444385473573]
      },
      {
        "species": [{ "element": "Zr", "occu": 1 }],
        "abc": [2e-6, 1e-6, 0.40529031],
        "properties": { "magmom": -0.0 },
        "label": "Zr",
        "xyz": [7.5489973e-6, 4.35841341e-6, 6.593062825264271]
      },
      {
        "species": [{ "element": "Zr", "occu": 1 }],
        "abc": [0.666667, 0.333333, 0.34406642],
        "properties": { "magmom": -0.0 },
        "label": "Zr",
        "xyz": [2.51633494966544, 1.45280301719553, 5.597102785713686]
      },
      {
        "species": [{ "element": "Zr", "occu": 1 }],
        "abc": [0.333333, 0.666667, 0.65593358],
        "properties": { "magmom": -0.0 },
        "label": "Zr",
        "xyz": [-2.189665439855659e-6, 2.90561039280447, 10.670403894286315]
      },
      {
        "species": [{ "element": "Cr", "occu": 1 }],
        "abc": [0.5, 0.0, -0.0],
        "properties": { "magmom": 0.0 },
        "label": "Cr",
        "xyz": [2.51633227, 0.0, 0.0]
      },
      {
        "species": [{ "element": "Cr", "occu": 1 }],
        "abc": [0.83409403, 0.16590597, 0.75],
        "properties": { "magmom": 0.0 },
        "label": "Cr",
        "xyz": [3.78024098300397, 0.7230868044470578, 12.200630010000001]
      },
      {
        "species": [{ "element": "Cr", "occu": 1 }],
        "abc": [0.666667999999999, 0.333333999999999, 0.877087],
        "properties": { "magmom": -0.0 },
        "label": "Cr",
        "xyz": [2.5163374659981974, 1.4528073756089357, 14.26801863144116]
      },
      {
        "species": [{ "element": "Cr", "occu": 1 }],
        "abc": [0.16590597, 0.33181194, 0.25],
        "properties": { "magmom": 0.0 },
        "label": "Cr",
        "xyz": [1.6258785062728265e-7, 1.4461736088941155, 4.06687667]
      },
      {
        "species": [{ "element": "Cr", "occu": 1 }],
        "abc": [0.33181194, 0.16590597, 0.75],
        "properties": { "magmom": 0.0 },
        "label": "Cr",
        "xyz": [1.252423719583881, 0.7230868044470578, 12.200630010000001]
      },
      {
        "species": [{ "element": "Cr", "occu": 1 }],
        "abc": [0.83409403, 0.66818806, 0.75],
        "properties": { "magmom": 0.0 },
        "label": "Cr",
        "xyz": [2.5163325974121498, 2.9122398011058843, 12.200630010000001]
      },
      {
        "species": [{ "element": "Cr", "occu": 1 }],
        "abc": [0.0, 0.5, -0.0],
        "properties": { "magmom": 0.0 },
        "label": "Cr",
        "xyz": [-1.25816589, 2.179206705, 0.0]
      },
      {
        "species": [{ "element": "Cr", "occu": 1 }],
        "abc": [0.66818806, 0.83409403, 0.25],
        "properties": { "magmom": 0.0 },
        "label": "Cr",
        "xyz": [1.2639090404161188, 3.6353266055529425, 4.06687667]
      },
      {
        "species": [{ "element": "Cr", "occu": 1 }],
        "abc": [0.5, 0.0, 0.5],
        "properties": { "magmom": 0.0 },
        "label": "Cr",
        "xyz": [2.51633227, 0.0, 8.13375334]
      },
      {
        "species": [{ "element": "Cr", "occu": 1 }],
        "abc": [0.16590597, 0.83409403, 0.25],
        "properties": { "magmom": 0.0 },
        "label": "Cr",
        "xyz": [-1.2639082230039695, 3.6353266055529425, 4.06687667]
      },
      {
        "species": [{ "element": "Cr", "occu": 1 }],
        "abc": [0.333331999999999, 0.666666, 0.122913],
        "properties": { "magmom": -0.0 },
        "label": "Cr",
        "xyz": [-4.705998204679318e-6, 2.90560603439106, 1.99948804855884]
      },
      {
        "species": [{ "element": "Cr", "occu": 1 }],
        "abc": [0.5, 0.5, -0.0],
        "properties": { "magmom": 0.0 },
        "label": "Cr",
        "xyz": [1.25816638, 2.179206705, 0.0]
      },
      {
        "species": [{ "element": "Cr", "occu": 1 }],
        "abc": [0.666667999999999, 0.333333999999999, 0.622912999999999],
        "properties": { "magmom": -0.0 },
        "label": "Cr",
        "xyz": [2.5163374659981974, 1.4528073756089357, 10.133241388558824]
      },
      {
        "species": [{ "element": "Cr", "occu": 1 }],
        "abc": [0.0, 0.5, 0.5],
        "properties": { "magmom": 0.0 },
        "label": "Cr",
        "xyz": [-1.25816589, 2.179206705, 8.13375334]
      },
      {
        "species": [{ "element": "Cr", "occu": 1 }],
        "abc": [0.333331999999999, 0.666666, 0.377087],
        "properties": { "magmom": -0.0 },
        "label": "Cr",
        "xyz": [-4.705998204679318e-6, 2.90560603439106, 6.13426529144116]
      },
      {
        "species": [{ "element": "Cr", "occu": 1 }],
        "abc": [0.5, 0.5, 0.5],
        "properties": { "magmom": 0.0 },
        "label": "Cr",
        "xyz": [1.25816638, 2.179206705, 8.13375334]
      }
    ]
  },
  "task_ids": null,
  "uncorrected_energy_per_atom": null,
  "energy_per_atom": -17.627664527083333,
  "formation_energy_per_atom": 0.004494367916665,
  "energy_above_hull": 0.004494367916667,
  "is_stable": false,
  "equilibrium_reaction_energy_per_atom": null,
  "decomposes_to": null,
  "xas": null,
  "grain_boundaries": null,
  "band_gap": 0.0,
  "cbm": null,
  "vbm": null,
  "efermi": 5.35420431,
  "is_gap_direct": null,
  "is_metal": null,
  "es_source_calc_id": null,
  "bandstructure": null,
  "dos": null,
  "dos_energy_up": null,
  "dos_energy_down": null,
  "is_magnetic": null,
  "ordering": null,
  "total_magnetization": 9.3e-6,
  "total_magnetization_normalized_vol": null,
  "total_magnetization_normalized_formula_units": null,
  "num_magnetic_sites": null,
  "num_unique_magnetic_sites": null,
  "types_of_magnetic_species": null,
  "bulk_modulus": null,
  "shear_modulus": null,
  "universal_anisotropy": null,
  "homogeneous_poisson": null,
  "e_total": null,
  "e_ionic": null,
  "e_electronic": null,
  "n": null,
  "e_ij_max": null,
  "weighted_surface_energy_EV_PER_ANG2": null,
  "weighted_surface_energy": null,
  "weighted_work_function": null,
  "surface_anisotropy": null,
  "shape_factor": null,
  "has_reconstructed": null,
  "possible_species": null,
  "has_props": null,
  "theoretical": null,
  "database_IDs": null,
  "fields_not_requested": [
    "builder_meta",
    "nsites",
    "elements",
    "nelements",
    "composition",
    "composition_reduced",
    "chemsys",
    "symmetry",
    "property_name",
    "deprecated",
    "deprecation_reasons",
    "last_updated",
    "origins",
    "warnings",
    "task_ids",
    "uncorrected_energy_per_atom",
    "equilibrium_reaction_energy_per_atom",
    "decomposes_to",
    "xas",
    "grain_boundaries",
    "cbm",
    "vbm",
    "is_gap_direct",
    "is_metal",
    "es_source_calc_id",
    "bandstructure",
    "dos",
    "dos_energy_up",
    "dos_energy_down",
    "is_magnetic",
    "ordering",
    "total_magnetization_normalized_vol",
    "total_magnetization_normalized_formula_units",
    "num_magnetic_sites",
    "num_unique_magnetic_sites",
    "types_of_magnetic_species",
    "bulk_modulus",
    "shear_modulus",
    "universal_anisotropy",
    "homogeneous_poisson",
    "e_total",
    "e_ionic",
    "e_electronic",
    "n",
    "e_ij_max",
    "weighted_surface_energy_EV_PER_ANG2",
    "weighted_surface_energy",
    "weighted_work_function",
    "surface_anisotropy",
    "shape_factor",
    "has_reconstructed",
    "possible_species",
    "has_props",
    "theoretical",
    "database_IDs"
  ]
}
