{
  "builder_meta": null,
  "nsites": null,
  "elements": null,
  "nelements": null,
  "composition": null,
  "composition_reduced": null,
  "formula_pretty": "ZrCu2",
  "formula_anonymous": "AB2",
  "chemsys": null,
  "volume": 91.17647200440076,
  "density": 7.952100775435749,
  "density_atomic": 15.196078667400128,
  "symmetry": null,
  "property_name": null,
  "material_id": "mp-1072655",
  "deprecated": null,
  "deprecation_reasons": null,
  "last_updated": null,
  "origins": null,
  "warnings": null,
  "structure": {
    "@module": "pymatgen.core.structure",
    "@class": "Structure",
    "charge": 0,
    "lattice": {
      "matrix": [
        [2.33999932, -4.22834374, 0.0],
        [2.33999932, 4.22834374, 0.0],
        [-0.0, 0.0, 4.60751514]
      ],
      "pbc": [true, true, true],
      "a": 4.832648094078198,
      "b": 4.832648094078198,
      "c": 4.60751514,
      "alpha": 90.0,
      "beta": 90.0,
      "gamma": 122.07901306853321,
      "volume": 91.17647200440076
    },
    "properties": {},
    "sites": [
      {
        "species": [{ "element": "Zr", "occu": 1 }],
        "abc": [0.23396498000000002, 0.23396498000000002, 0.75],
        "properties": { "magmom": 0.0 },
        "label": "Zr",
        "xyz": [1.0949557882076273, 0.0, 3.455636355]
      },
      {
        "species": [{ "element": "Zr", "occu": 1 }],
        "abc": [0.76603502, 0.76603502, 0.25],
        "properties": { "magmom": 0.0 },
        "label": "Zr",
        "xyz": [3.5850428517923727, 0.0, 1.151878785]
      },
      {
        "species": [{ "element": "Cu", "occu": 1 }],
        "abc": [0.53396318, 0.8957149, 0.75],
        "properties": { "magmom": 0.0 },
        "label": "Cu",
        "xyz": [3.345445735018906, 1.5296106206962325, 3.455636355]
      },
      {
        "species": [{ "element": "Cu", "occu": 1 }],
        "abc": [0.8957149, 0.53396318, 0.75],
        "properties": { "magmom": 0.0 },
        "label": "Cu",
        "xyz": [3.345445735018906, -1.5296106206962325, 3.455636355]
      },
      {
        "species": [{ "element": "Cu", "occu": 1 }],
        "abc": [0.104285099999999, 0.46603682, 0.25],
        "properties": { "magmom": 0.0 },
        "label": "Cu",
        "xyz": [1.334552904981092, 1.529610620696237, 1.151878785]
      },
      {
        "species": [{ "element": "Cu", "occu": 1 }],
        "abc": [0.46603682, 0.104285099999999, 0.25],
        "properties": { "magmom": 0.0 },
        "label": "Cu",
        "xyz": [1.334552904981092, -1.529610620696237, 1.151878785]
      }
    ]
  },
  "task_ids": null,
  "uncorrected_energy_per_atom": null,
  "energy_per_atom": -5.6996640533333345,
  "formation_energy_per_atom": -0.117626063333333,
  "energy_above_hull": 0.045630813846154,
  "is_stable": false,
  "equilibrium_reaction_energy_per_atom": null,
  "decomposes_to": null,
  "xas": null,
  "grain_boundaries": null,
  "band_gap": 0.039900000000000005,
  "cbm": null,
  "vbm": null,
  "efermi": 5.93054679,
  "is_gap_direct": null,
  "is_metal": null,
  "es_source_calc_id": null,
  "bandstructure": null,
  "dos": null,
  "dos_energy_up": null,
  "dos_energy_down": null,
  "is_magnetic": null,
  "ordering": null,
  "total_magnetization": 1e-7,
  "total_magnetization_normalized_vol": null,
  "total_magnetization_normalized_formula_units": null,
  "num_magnetic_sites": null,
  "num_unique_magnetic_sites": null,
  "types_of_magnetic_species": null,
  "bulk_modulus": null,
  "shear_modulus": null,
  "universal_anisotropy": null,
  "homogeneous_poisson": null,
  "e_total": null,
  "e_ionic": null,
  "e_electronic": null,
  "n": null,
  "e_ij_max": null,
  "weighted_surface_energy_EV_PER_ANG2": null,
  "weighted_surface_energy": null,
  "weighted_work_function": null,
  "surface_anisotropy": null,
  "shape_factor": null,
  "has_reconstructed": null,
  "possible_species": null,
  "has_props": null,
  "theoretical": null,
  "database_IDs": null,
  "fields_not_requested": [
    "builder_meta",
    "nsites",
    "elements",
    "nelements",
    "composition",
    "composition_reduced",
    "chemsys",
    "symmetry",
    "property_name",
    "deprecated",
    "deprecation_reasons",
    "last_updated",
    "origins",
    "warnings",
    "task_ids",
    "uncorrected_energy_per_atom",
    "equilibrium_reaction_energy_per_atom",
    "decomposes_to",
    "xas",
    "grain_boundaries",
    "cbm",
    "vbm",
    "is_gap_direct",
    "is_metal",
    "es_source_calc_id",
    "bandstructure",
    "dos",
    "dos_energy_up",
    "dos_energy_down",
    "is_magnetic",
    "ordering",
    "total_magnetization_normalized_vol",
    "total_magnetization_normalized_formula_units",
    "num_magnetic_sites",
    "num_unique_magnetic_sites",
    "types_of_magnetic_species",
    "bulk_modulus",
    "shear_modulus",
    "universal_anisotropy",
    "homogeneous_poisson",
    "e_total",
    "e_ionic",
    "e_electronic",
    "n",
    "e_ij_max",
    "weighted_surface_energy_EV_PER_ANG2",
    "weighted_surface_energy",
    "weighted_work_function",
    "surface_anisotropy",
    "shape_factor",
    "has_reconstructed",
    "possible_species",
    "has_props",
    "theoretical",
    "database_IDs"
  ]
}
