{"builder_meta": null, "nsites": null, "elements": null, "nelements": null, "composition": null, "composition_reduced": null, "formula_pretty": "ZrCu", "formula_anonymous": "AB", "chemsys": null, "volume": 138.7841847811829, "density": 7.407231068666482, "density_atomic": 17.34802309764786, "symmetry": null, "property_name": null, "material_id": "mp-1080022", "deprecated": null, "deprecation_reasons": null, "last_updated": null, "origins": null, "warnings": null, "structure": {"@module": "pymatgen.core.structure", "@class": "Structure", "charge": 0, "lattice": {"matrix": [[4.11619435, 3.2813531400000002, 0.01237763], [-4.11619435, 3.2813531400000002, 0.01237763], [-0.0, 1.15163476, 5.14195416]], "pbc": [true, true, true], "a": 5.264075185831239, "b": 5.264075185831239, "c": 5.2693410597513575, "alpha": 82.03722479820779, "beta": 82.03722479820779, "gamma": 102.87720824125378, "volume": 138.7841847811829}, "properties": {}, "sites": [{"species": [{"element": "Zr", "occu": 1}], "abc": [0.90843644, 0.90843644, 0.989855199999999], "properties": {"magmom": -0.003}, "label": "Zr", "xyz": [0.0, 7.101753185455594, 5.112278643703302]}, {"species": [{"element": "Zr", "occu": 1}], "abc": [0.41061557, 0.41061557, 0.02184602], "properties": {"magmom": -0.004}, "label": "Zr", "xyz": [0.0, 2.719908015904435, 0.1224961286138414]}, {"species": [{"element": "Zr", "occu": 1}], "abc": [0.82325079, 0.26687567, 0.40986087], "properties": {"magmom": -0.002}, "label": "Zr", "xyz": [2.2901481254245724, 4.049099907173925, 2.120978987492809]}, {"species": [{"element": "Zr", "occu": 1}], "abc": [0.26687567, 0.82325079, 0.40986087], "properties": {"magmom": -0.002}, "label": "Zr", "xyz": [-2.2901481254245724, 4.049099907173925, 2.120978987492809]}, {"species": [{"element": "Cu", "occu": 1}], "abc": [0.71686171, 0.71686171, 0.54793125], "properties": {"magmom": -0.001}, "label": "Cu", "xyz": [0.0, 5.335569519698789, 2.8351834683465946]}, {"species": [{"element": "Cu", "occu": 1}], "abc": [0.30203892, 0.30203892, 0.56480113], "properties": {"magmom": -0.001}, "label": "Cu", "xyz": [0.0, 2.6326373308836963, 2.91165857197092]}, {"species": [{"element": "Cu", "occu": 1}], "abc": [0.44754888, 0.94785102, 0.85015532], "properties": {"magmom": -0.0}, "label": "Cu", "xyz": [-2.0593408419609087, 5.55786826133161, 4.388731427984369]}, {"species": [{"element": "Cu", "occu": 1}], "abc": [0.94785102, 0.44754888, 0.85015532], "properties": {"magmom": -0.0}, "label": "Cu", "xyz": [2.0593408419609087, 5.55786826133161, 4.388731427984369]}]}, "task_ids": null, "uncorrected_energy_per_atom": null, "energy_per_atom": -6.45088834125, "formation_energy_per_atom": -0.127434691249999, "energy_above_hull": 0.022505552980771, "is_stable": false, "equilibrium_reaction_energy_per_atom": null, "decomposes_to": null, "xas": null, "grain_boundaries": null, "band_gap": 0.0, "cbm": null, "vbm": null, "efermi": 5.08635658, "is_gap_direct": null, "is_metal": null, "es_source_calc_id": null, "bandstructure": null, "dos": null, "dos_energy_up": null, "dos_energy_down": null, "is_magnetic": null, "ordering": null, "total_magnetization": 0.0213305, "total_magnetization_normalized_vol": null, "total_magnetization_normalized_formula_units": null, "num_magnetic_sites": null, "num_unique_magnetic_sites": null, "types_of_magnetic_species": null, "bulk_modulus": null, "shear_modulus": null, "universal_anisotropy": null, "homogeneous_poisson": null, "e_total": null, "e_ionic": null, "e_electronic": null, "n": null, "e_ij_max": null, "weighted_surface_energy_EV_PER_ANG2": null, "weighted_surface_energy": null, "weighted_work_function": null, "surface_anisotropy": null, "shape_factor": null, "has_reconstructed": null, "possible_species": null, "has_props": null, "theoretical": null, "database_IDs": null, "fields_not_requested": ["builder_meta", "nsites", "elements", "nelements", "composition", "composition_reduced", "chemsys", "symmetry", "property_name", "deprecated", "deprecation_reasons", "last_updated", "origins", "warnings", "task_ids", "uncorrected_energy_per_atom", "equilibrium_reaction_energy_per_atom", "decomposes_to", "xas", "grain_boundaries", "cbm", "vbm", "is_gap_direct", "is_metal", "es_source_calc_id", "bandstructure", "dos", "dos_energy_up", "dos_energy_down", "is_magnetic", "ordering", "total_magnetization_normalized_vol", "total_magnetization_normalized_formula_units", "num_magnetic_sites", "num_unique_magnetic_sites", "types_of_magnetic_species", "bulk_modulus", "shear_modulus", "universal_anisotropy", "homogeneous_poisson", "e_total", "e_ionic", "e_electronic", "n", "e_ij_max", "weighted_surface_energy_EV_PER_ANG2", "weighted_surface_energy", "weighted_work_function", "surface_anisotropy", "shape_factor", "has_reconstructed", "possible_species", "has_props", "theoretical", "database_IDs"]}