{
  "builder_meta": null,
  "nsites": null,
  "elements": null,
  "nelements": null,
  "composition": null,
  "composition_reduced": null,
  "formula_pretty": "ZrF4",
  "formula_anonymous": "AB4",
  "chemsys": null,
  "volume": 239.690753862551,
  "density": 4.6338271160383755,
  "density_atomic": 11.98453769312755,
  "symmetry": null,
  "property_name": null,
  "material_id": "mp-1105223",
  "deprecated": null,
  "deprecation_reasons": null,
  "last_updated": null,
  "origins": null,
  "warnings": null,
  "structure": {
    "@module": "pymatgen.core.structure",
    "@class": "Structure",
    "charge": 0,
    "lattice": {
      "matrix": [
        [5.36586753, 0.0, -1.53632213],
        [0.0, 5.60501925, 0.0],
        [-0.010911510000000001, 0.0, 7.97268194]
      ],
      "pbc": [true, true, true],
      "a": 5.581471135519384,
      "b": 5.60501925,
      "c": 7.972689406809515,
      "alpha": 90.0,
      "beta": 106.05556578237554,
      "gamma": 90.0,
      "volume": 239.69075386255096
    },
    "properties": {},
    "sites": [
      {
        "species": [{ "element": "Zr", "occu": 1 }],
        "abc": [0.78791497, 0.33280972000000003, 0.32968042000000003],
        "properties": { "magmom": 0.0 },
        "label": "Zr",
        "xyz": [4.22425004272429, 1.86540488718711, 1.417945925536329]
      },
      {
        "species": [{ "element": "Zr", "occu": 1 }],
        "abc": [0.21208503, 0.83280972, 0.17031958],
        "properties": { "magmom": 0.0 },
        "label": "Zr",
        "xyz": [1.1361617322757103, 4.667914512187109, 1.0320729144636713]
      },
      {
        "species": [{ "element": "Zr", "occu": 1 }],
        "abc": [0.21208503, 0.66719028, 0.67031958],
        "properties": { "magmom": 0.0 },
        "label": "Zr",
        "xyz": [1.1307059772757102, 3.73961436281289, 5.018413884463672]
      },
      {
        "species": [{ "element": "Zr", "occu": 1 }],
        "abc": [0.78791497, 0.16719028, 0.82968042],
        "properties": { "magmom": 0.0 },
        "label": "Zr",
        "xyz": [4.2187942877242905, 0.9371047378128899, 5.404286895536329]
      },
      {
        "species": [{ "element": "F", "occu": 1 }],
        "abc": [0.14216334, 0.34243218000000003, 0.5216036900000001],
        "properties": { "magmom": -0.0 },
        "label": "F",
        "xyz": [0.7571381661828782, 1.919338960719465, 3.940171633783645]
      },
      {
        "species": [{ "element": "F", "occu": 1 }],
        "abc": [0.8578376600000001, 0.84243218, 0.97839631],
        "properties": { "magmom": -0.0 },
        "label": "F",
        "xyz": [4.592367464684652, 4.7218485857194645, 6.482527609894225]
      },
      {
        "species": [{ "element": "F", "occu": 1 }],
        "abc": [0.8578376600000001, 0.65756782, 0.47839631],
        "properties": { "magmom": -0.0 },
        "label": "F",
        "xyz": [4.597823219684652, 3.685680289280535, 2.4961866398942254]
      },
      {
        "species": [{ "element": "F", "occu": 1 }],
        "abc": [0.14216334, 0.15756782, 0.021603690000000002],
        "properties": { "magmom": -0.0 },
        "label": "F",
        "xyz": [0.7625939211828783, 0.8831706642805349, -0.04616933621635558]
      },
      {
        "species": [{ "element": "F", "occu": 1 }],
        "abc": [0.00397034, 0.53998531, 0.20791708],
        "properties": { "magmom": -0.0 },
        "label": "F",
        "xyz": [0.0190356291914694, 3.0266280572672177, 1.651557027527911]
      },
      {
        "species": [{ "element": "F", "occu": 1 }],
        "abc": [0.99602966, 0.03998531, 0.29208292],
        "properties": { "magmom": -0.0 },
        "label": "F",
        "xyz": [5.341376145808531, 0.2241184322672175, 0.7984618124720892]
      },
      {
        "species": [{ "element": "F", "occu": 1 }],
        "abc": [0.99602966, 0.46001469, 0.79208292],
        "properties": { "magmom": -0.0 },
        "label": "F",
        "xyz": [5.335920390808531, 2.5783911927327825, 4.78480278247209]
      },
      {
        "species": [{ "element": "F", "occu": 1 }],
        "abc": [0.00397034, 0.9600146900000001, 0.70791708],
        "properties": { "magmom": -0.0 },
        "label": "F",
        "xyz": [0.013579874191469402, 5.380900817732782, 5.6378979975279115]
      },
      {
        "species": [{ "element": "F", "occu": 1 }],
        "abc": [0.48133541, 0.54223649, 0.23402685],
        "properties": { "magmom": 0.0 },
        "label": "F",
        "xyz": [2.580228461244194, 3.0392459645024323, 1.126335398134466]
      },
      {
        "species": [{ "element": "F", "occu": 1 }],
        "abc": [0.51866459, 0.04223649, 0.26597315],
        "properties": { "magmom": 0.0 },
        "label": "F",
        "xyz": [2.7801833137558063, 0.2367363395024325, 1.3236834418655343]
      },
      {
        "species": [{ "element": "F", "occu": 1 }],
        "abc": [0.51866459, 0.45776351, 0.76597315],
        "properties": { "magmom": 0.0 },
        "label": "F",
        "xyz": [2.7747275587558065, 2.5657732854975674, 5.310024411865535]
      },
      {
        "species": [{ "element": "F", "occu": 1 }],
        "abc": [0.48133541, 0.95776351, 0.73402685],
        "properties": { "magmom": 0.0 },
        "label": "F",
        "xyz": [2.5747727062441936, 5.368282910497568, 5.1126763681344665]
      },
      {
        "species": [{ "element": "F", "occu": 1 }],
        "abc": [0.68608654, 0.24098792, 0.54823004],
        "properties": { "magmom": -0.0 },
        "label": "F",
        "xyz": [3.675467470192286, 1.35074193061746, 3.3168138043763475]
      },
      {
        "species": [{ "element": "F", "occu": 1 }],
        "abc": [0.31391346000000003, 0.74098792, 0.95176996],
        "properties": { "magmom": -0.0 },
        "label": "F",
        "xyz": [1.6740327948077145, 4.15325155561746, 7.105886975623653]
      },
      {
        "species": [{ "element": "F", "occu": 1 }],
        "abc": [0.31391346000000003, 0.75901208, 0.45176996],
        "properties": { "magmom": -0.0 },
        "label": "F",
        "xyz": [1.6794885498077146, 4.25427731938254, 3.119546005623653]
      },
      {
        "species": [{ "element": "F", "occu": 1 }],
        "abc": [0.68608654, 0.25901208, 0.04823004],
        "properties": { "magmom": -0.0 },
        "label": "F",
        "xyz": [3.680923225192286, 1.4517676943825397, -0.6695271656236528]
      }
    ]
  },
  "task_ids": null,
  "uncorrected_energy_per_atom": null,
  "energy_per_atom": -11.0787570495,
  "formation_energy_per_atom": -4.027976308499999,
  "energy_above_hull": 0.0,
  "is_stable": true,
  "equilibrium_reaction_energy_per_atom": null,
  "decomposes_to": null,
  "xas": null,
  "grain_boundaries": null,
  "band_gap": 5.3453,
  "cbm": null,
  "vbm": null,
  "efermi": -1.54101325,
  "is_gap_direct": null,
  "is_metal": null,
  "es_source_calc_id": null,
  "bandstructure": null,
  "dos": null,
  "dos_energy_up": null,
  "dos_energy_down": null,
  "is_magnetic": null,
  "ordering": null,
  "total_magnetization": 0.0,
  "total_magnetization_normalized_vol": null,
  "total_magnetization_normalized_formula_units": null,
  "num_magnetic_sites": null,
  "num_unique_magnetic_sites": null,
  "types_of_magnetic_species": null,
  "bulk_modulus": null,
  "shear_modulus": null,
  "universal_anisotropy": null,
  "homogeneous_poisson": null,
  "e_total": null,
  "e_ionic": null,
  "e_electronic": null,
  "n": null,
  "e_ij_max": null,
  "weighted_surface_energy_EV_PER_ANG2": null,
  "weighted_surface_energy": null,
  "weighted_work_function": null,
  "surface_anisotropy": null,
  "shape_factor": null,
  "has_reconstructed": null,
  "possible_species": null,
  "has_props": null,
  "theoretical": null,
  "database_IDs": null,
  "fields_not_requested": [
    "builder_meta",
    "nsites",
    "elements",
    "nelements",
    "composition",
    "composition_reduced",
    "chemsys",
    "symmetry",
    "property_name",
    "deprecated",
    "deprecation_reasons",
    "last_updated",
    "origins",
    "warnings",
    "task_ids",
    "uncorrected_energy_per_atom",
    "equilibrium_reaction_energy_per_atom",
    "decomposes_to",
    "xas",
    "grain_boundaries",
    "cbm",
    "vbm",
    "is_gap_direct",
    "is_metal",
    "es_source_calc_id",
    "bandstructure",
    "dos",
    "dos_energy_up",
    "dos_energy_down",
    "is_magnetic",
    "ordering",
    "total_magnetization_normalized_vol",
    "total_magnetization_normalized_formula_units",
    "num_magnetic_sites",
    "num_unique_magnetic_sites",
    "types_of_magnetic_species",
    "bulk_modulus",
    "shear_modulus",
    "universal_anisotropy",
    "homogeneous_poisson",
    "e_total",
    "e_ionic",
    "e_electronic",
    "n",
    "e_ij_max",
    "weighted_surface_energy_EV_PER_ANG2",
    "weighted_surface_energy",
    "weighted_work_function",
    "surface_anisotropy",
    "shape_factor",
    "has_reconstructed",
    "possible_species",
    "has_props",
    "theoretical",
    "database_IDs"
  ]
}
