{"builder_meta": null, "nsites": null, "elements": null, "nelements": null, "composition": null, "composition_reduced": null, "formula_pretty": "ZrGa", "formula_anonymous": "AB", "chemsys": null, "volume": 153.66391417064838, "density": 6.956969242766296, "density_atomic": 19.207989271331048, "symmetry": null, "property_name": null, "material_id": "mp-30682", "deprecated": null, "deprecation_reasons": null, "last_updated": null, "origins": null, "warnings": null, "structure": {"@module": "pymatgen.core.structure", "@class": "Structure", "charge": 0, "lattice": {"matrix": [[3.80873368, -6.599999999999997e-07, -0.70367861], [-0.13000276, 3.80651262, -0.70367808], [-0.01046504, -0.010825099999999001, 10.60298147]], "pbc": [true, true, true], "a": 3.8731919435187185, "b": 3.873190143034469, "c": 10.602992160376974, "alpha": 100.52410982631581, "beta": 100.52413150944429, "gamma": 89.99994343443522, "volume": 153.66391417064838}, "properties": {}, "sites": [{"species": [{"element": "Zr", "occu": 1}], "abc": [0.32205983, 0.57199382, 0.14421816], "properties": {"magmom": 0.0}, "label": "Zr", "xyz": [1.1507700973800048, 2.175740305828705, 0.9000163515767935]}, {"species": [{"element": "Zr", "occu": 1}], "abc": [0.07201703, 0.8220709700000001, 0.64425705], "properties": {"magmom": -0.0}, "label": "Zr", "xyz": [0.1606800168801612, 3.1222493273174474, 6.201895397706797]}, {"species": [{"element": "Zr", "occu": 1}], "abc": [0.67796645, 0.42802531, 0.85581392], "properties": {"magmom": 0.0}, "label": "Zr", "xyz": [2.5175930534698234, 1.620019025471164, 8.295916618033223]}, {"species": [{"element": "Zr", "occu": 1}], "abc": [0.92797267, 0.17790971, 0.35571141], "properties": {"magmom": -0.0}, "label": "Zr", "xyz": [3.5075494748836196, 0.6733643322891875, 2.9934158072078274]}, {"species": [{"element": "Ga", "occu": 1}], "abc": [0.46042817, 0.71035963, 0.42056153], "properties": {"magmom": 0.0}, "label": "Ga", "xyz": [1.6568983725732758, 2.6994399718325357, 3.6353481543664947]}, {"species": [{"element": "Ga", "occu": 1}], "abc": [0.21036165, 0.96044414, 0.920554], "properties": {"magmom": -0.0}, "label": "Ga", "xyz": [0.6667174778773856, 3.6459775117709583, 8.936746522282622]}, {"species": [{"element": "Ga", "occu": 1}], "abc": [0.53955173, 0.28963455, 0.57944512], "properties": {"magmom": 0.0}, "label": "Ga", "xyz": [2.011291638903304, 1.096224662290368, 5.560365374806767]}, {"species": [{"element": "Ga", "occu": 1}], "abc": [0.78964248, 0.03955986, 0.07943981], "properties": {"magmom": -0.0}, "label": "Ga", "xyz": [3.0015636769602705, 0.1497246412841655, 0.2588069043570991]}]}, "task_ids": null, "uncorrected_energy_per_atom": null, "energy_per_atom": -17.82640385, "formation_energy_per_atom": -0.730119922499998, "energy_above_hull": 0.0, "is_stable": true, "equilibrium_reaction_energy_per_atom": null, "decomposes_to": null, "xas": null, "grain_boundaries": null, "band_gap": 0.0, "cbm": null, "vbm": null, "efermi": 3.93613296, "is_gap_direct": null, "is_metal": null, "es_source_calc_id": null, "bandstructure": null, "dos": null, "dos_energy_up": null, "dos_energy_down": null, "is_magnetic": null, "ordering": null, "total_magnetization": 1e-07, "total_magnetization_normalized_vol": null, "total_magnetization_normalized_formula_units": null, "num_magnetic_sites": null, "num_unique_magnetic_sites": null, "types_of_magnetic_species": null, "bulk_modulus": null, "shear_modulus": null, "universal_anisotropy": null, "homogeneous_poisson": null, "e_total": null, "e_ionic": null, "e_electronic": null, "n": null, "e_ij_max": null, "weighted_surface_energy_EV_PER_ANG2": null, "weighted_surface_energy": null, "weighted_work_function": null, "surface_anisotropy": null, "shape_factor": null, "has_reconstructed": null, "possible_species": null, "has_props": null, "theoretical": null, "database_IDs": null, "fields_not_requested": ["builder_meta", "nsites", "elements", "nelements", "composition", "composition_reduced", "chemsys", "symmetry", "property_name", "deprecated", "deprecation_reasons", "last_updated", "origins", "warnings", "task_ids", "uncorrected_energy_per_atom", "equilibrium_reaction_energy_per_atom", "decomposes_to", "xas", "grain_boundaries", "cbm", "vbm", "is_gap_direct", "is_metal", "es_source_calc_id", "bandstructure", "dos", "dos_energy_up", "dos_energy_down", "is_magnetic", "ordering", "total_magnetization_normalized_vol", "total_magnetization_normalized_formula_units", "num_magnetic_sites", "num_unique_magnetic_sites", "types_of_magnetic_species", "bulk_modulus", "shear_modulus", "universal_anisotropy", "homogeneous_poisson", "e_total", "e_ionic", "e_electronic", "n", "e_ij_max", "weighted_surface_energy_EV_PER_ANG2", "weighted_surface_energy", "weighted_work_function", "surface_anisotropy", "shape_factor", "has_reconstructed", "possible_species", "has_props", "theoretical", "database_IDs"]}