{"builder_meta": null, "nsites": null, "elements": null, "nelements": null, "composition": null, "composition_reduced": null, "formula_pretty": "ZrGa2", "formula_anonymous": "AB2", "chemsys": null, "volume": 106.21256112962168, "density": 7.212641187046882, "density_atomic": 17.70209352160361, "symmetry": null, "property_name": null, "material_id": "mp-30683", "deprecated": null, "deprecation_reasons": null, "last_updated": null, "origins": null, "warnings": null, "structure": {"@module": "pymatgen.core.structure", "@class": "Structure", "charge": 0, "lattice": {"matrix": [[3.8067043700000003, -2e-08, -1.17809067], [-2e-08, 4.127345079999999, 2e-08], [0.00903851, 3.0000000000000004e-08, 6.75734682]], "pbc": [true, true, true], "a": 3.984833219510968, "b": 4.127345079999999, "c": 6.757352864874465, "alpha": 89.99999946836091, "beta": 107.11950013890076, "gamma": 90.00000063488065, "volume": 106.21256112962165}, "properties": {}, "sites": [{"species": [{"element": "Zr", "occu": 1}], "abc": [0.64959412, -0.0, 0.29921531], "properties": {"magmom": 0.0}, "label": "Zr", "xyz": [2.4755172359018927, -4.015423100000001e-09, 1.256620851464954]}, {"species": [{"element": "Zr", "occu": 1}], "abc": [0.35040588, 1e-08, 0.70078469], "properties": {"magmom": 0.0}, "label": "Zr", "xyz": [1.3402256440981073, 5.528887389999999e-08, 4.3226352985350465]}, {"species": [{"element": "Ga", "occu": 1}], "abc": [0.0, -0.0, 0.0], "properties": {"magmom": 0.0}, "label": "Ga", "xyz": [0.0, 0.0, 0.0]}, {"species": [{"element": "Ga", "occu": 1}], "abc": [0.5, 0.5, 1.0], "properties": {"magmom": -0.0}, "label": "Ga", "xyz": [1.912390685, 2.063672559999999, 6.168301495000001]}, {"species": [{"element": "Ga", "occu": 1}], "abc": [0.82185524, 0.5, 0.64358349], "properties": {"magmom": 0.0}, "label": "Ga", "xyz": [3.134376959425599, 2.063672542870399, 3.3806968692213917]}, {"species": [{"element": "Ga", "occu": 1}], "abc": [0.17814476, 0.5, 0.356416499999999], "properties": {"magmom": 0.0}, "label": "Ga", "xyz": [0.6813659004840162, 2.063672547129599, 2.1985592332051342]}]}, "task_ids": null, "uncorrected_energy_per_atom": null, "energy_per_atom": -15.830798406666666, "formation_energy_per_atom": -0.619017138333333, "energy_above_hull": 0.008013790416667001, "is_stable": false, "equilibrium_reaction_energy_per_atom": null, "decomposes_to": null, "xas": null, "grain_boundaries": null, "band_gap": 0.0, "cbm": null, "vbm": null, "efermi": 4.61223486, "is_gap_direct": null, "is_metal": null, "es_source_calc_id": null, "bandstructure": null, "dos": null, "dos_energy_up": null, "dos_energy_down": null, "is_magnetic": null, "ordering": null, "total_magnetization": 0.0, "total_magnetization_normalized_vol": null, "total_magnetization_normalized_formula_units": null, "num_magnetic_sites": null, "num_unique_magnetic_sites": null, "types_of_magnetic_species": null, "bulk_modulus": null, "shear_modulus": null, "universal_anisotropy": null, "homogeneous_poisson": null, "e_total": null, "e_ionic": null, "e_electronic": null, "n": null, "e_ij_max": null, "weighted_surface_energy_EV_PER_ANG2": null, "weighted_surface_energy": null, "weighted_work_function": null, "surface_anisotropy": null, "shape_factor": null, "has_reconstructed": null, "possible_species": null, "has_props": null, "theoretical": null, "database_IDs": null, "fields_not_requested": ["builder_meta", "nsites", "elements", "nelements", "composition", "composition_reduced", "chemsys", "symmetry", "property_name", "deprecated", "deprecation_reasons", "last_updated", "origins", "warnings", "task_ids", "uncorrected_energy_per_atom", "equilibrium_reaction_energy_per_atom", "decomposes_to", "xas", "grain_boundaries", "cbm", "vbm", "is_gap_direct", "is_metal", "es_source_calc_id", "bandstructure", "dos", "dos_energy_up", "dos_energy_down", "is_magnetic", "ordering", "total_magnetization_normalized_vol", "total_magnetization_normalized_formula_units", "num_magnetic_sites", "num_unique_magnetic_sites", "types_of_magnetic_species", "bulk_modulus", "shear_modulus", "universal_anisotropy", "homogeneous_poisson", "e_total", "e_ionic", "e_electronic", "n", "e_ij_max", "weighted_surface_energy_EV_PER_ANG2", "weighted_surface_energy", "weighted_work_function", "surface_anisotropy", "shape_factor", "has_reconstructed", "possible_species", "has_props", "theoretical", "database_IDs"]}