{
  "builder_meta": null,
  "nsites": null,
  "elements": null,
  "nelements": null,
  "composition": null,
  "composition_reduced": null,
  "formula_pretty": "ZrGa3",
  "formula_anonymous": "AB3",
  "chemsys": null,
  "volume": 136.44476416699337,
  "density": 7.311593301193733,
  "density_atomic": 17.05559552087417,
  "symmetry": null,
  "property_name": null,
  "material_id": "mp-1080001",
  "deprecated": null,
  "deprecation_reasons": null,
  "last_updated": null,
  "origins": null,
  "warnings": null,
  "structure": {
    "@module": "pymatgen.core.structure",
    "@class": "Structure",
    "charge": 0,
    "lattice": {
      "matrix": [
        [3.95025756, -0.00073911, 0.001255799999999],
        [-0.00073911, 3.95025505, 0.00126118],
        [-1.9719886400000002, -1.97197178, 8.7426666]
      ],
      "pbc": [true, true, true],
      "a": 3.9502578287567993,
      "b": 3.950255320470955,
      "c": 9.176689554308838,
      "alpha": 102.38882579058641,
      "beta": 102.38900972118849,
      "gamma": 90.02143475746311,
      "volume": 136.44476416699337
    },
    "properties": {},
    "sites": [
      {
        "species": [{ "element": "Zr", "occu": 1 }],
        "abc": [0.8815420700000001, 0.8815499, 0.76289896],
        "properties": { "magmom": -0.0 },
        "label": "Zr",
        "xyz": [1.977238581541146, 1.9772801676312883, 6.671990090401123]
      },
      {
        "species": [{ "element": "Zr", "occu": 1 }],
        "abc": [0.11846082000000001, 0.11845214, 0.23710969],
        "properties": { "magmom": 0.0 },
        "label": "Zr",
        "xyz": [0.0002855854936821278, 0.0002549911970886054, 2.073269119867035]
      },
      {
        "species": [{ "element": "Ga", "occu": 1 }],
        "abc": [0.50000045, 0.999999899999999, 1.0000017],
        "properties": { "magmom": -0.0 },
        "label": "Ga",
        "xyz": [0.002399455309124887, 1.9779099672898655, 8.74457054297221]
      },
      {
        "species": [{ "element": "Ga", "occu": 1 }],
        "abc": [1.00000038, 0.4999997, 1.0000017],
        "properties": { "magmom": -0.0 },
        "label": "Ga",
        "xyz": [1.9778975139389172, 0.002412097290596771, 8.744567852632068]
      },
      {
        "species": [{ "element": "Ga", "occu": 1 }],
        "abc": [0.25017456, 0.7498358900000001, 0.50000288],
        "properties": { "magmom": -0.0 },
        "label": "Ga",
        "xyz": [0.0016997364277322458, 1.9758665353459763, 4.372618326120007]
      },
      {
        "species": [{ "element": "Ga", "occu": 1 }],
        "abc": [0.74983484, 0.25017297, 0.50000272],
        "properties": { "magmom": 0.0 },
        "label": "Ga",
        "xyz": [1.9758561563084327, 0.001701573924164368, 4.372614235791528]
      },
      {
        "species": [{ "element": "Ga", "occu": 1 }],
        "abc": [0.62351536, 0.62350326, 0.24758649],
        "properties": { "magmom": 0.0 },
        "label": "Ga",
        "xyz": [1.9743476814241492, 1.9743024836794814, 2.166135497164768]
      },
      {
        "species": [{ "element": "Ga", "occu": 1 }],
        "abc": [0.37647252000000003, 0.37648524, 0.75239586],
        "properties": { "magmom": -0.0 },
        "label": "Ga",
        "xyz": [0.003169065553484396, 0.003231062647373717, 6.5788937450458755]
      }
    ]
  },
  "task_ids": null,
  "uncorrected_energy_per_atom": null,
  "energy_per_atom": -14.79585706625,
  "formation_energy_per_atom": -0.5263271275,
  "energy_above_hull": 0.0,
  "is_stable": true,
  "equilibrium_reaction_energy_per_atom": null,
  "decomposes_to": null,
  "xas": null,
  "grain_boundaries": null,
  "band_gap": 0.0,
  "cbm": null,
  "vbm": null,
  "efermi": 4.85345139,
  "is_gap_direct": null,
  "is_metal": null,
  "es_source_calc_id": null,
  "bandstructure": null,
  "dos": null,
  "dos_energy_up": null,
  "dos_energy_down": null,
  "is_magnetic": null,
  "ordering": null,
  "total_magnetization": 0.0,
  "total_magnetization_normalized_vol": null,
  "total_magnetization_normalized_formula_units": null,
  "num_magnetic_sites": null,
  "num_unique_magnetic_sites": null,
  "types_of_magnetic_species": null,
  "bulk_modulus": null,
  "shear_modulus": null,
  "universal_anisotropy": null,
  "homogeneous_poisson": null,
  "e_total": null,
  "e_ionic": null,
  "e_electronic": null,
  "n": null,
  "e_ij_max": null,
  "weighted_surface_energy_EV_PER_ANG2": null,
  "weighted_surface_energy": null,
  "weighted_work_function": null,
  "surface_anisotropy": null,
  "shape_factor": null,
  "has_reconstructed": null,
  "possible_species": null,
  "has_props": null,
  "theoretical": null,
  "database_IDs": null,
  "fields_not_requested": [
    "builder_meta",
    "nsites",
    "elements",
    "nelements",
    "composition",
    "composition_reduced",
    "chemsys",
    "symmetry",
    "property_name",
    "deprecated",
    "deprecation_reasons",
    "last_updated",
    "origins",
    "warnings",
    "task_ids",
    "uncorrected_energy_per_atom",
    "equilibrium_reaction_energy_per_atom",
    "decomposes_to",
    "xas",
    "grain_boundaries",
    "cbm",
    "vbm",
    "is_gap_direct",
    "is_metal",
    "es_source_calc_id",
    "bandstructure",
    "dos",
    "dos_energy_up",
    "dos_energy_down",
    "is_magnetic",
    "ordering",
    "total_magnetization_normalized_vol",
    "total_magnetization_normalized_formula_units",
    "num_magnetic_sites",
    "num_unique_magnetic_sites",
    "types_of_magnetic_species",
    "bulk_modulus",
    "shear_modulus",
    "universal_anisotropy",
    "homogeneous_poisson",
    "e_total",
    "e_ionic",
    "e_electronic",
    "n",
    "e_ij_max",
    "weighted_surface_energy_EV_PER_ANG2",
    "weighted_surface_energy",
    "weighted_work_function",
    "surface_anisotropy",
    "shape_factor",
    "has_reconstructed",
    "possible_species",
    "has_props",
    "theoretical",
    "database_IDs"
  ]
}
