{
  "builder_meta": null,
  "nsites": null,
  "elements": null,
  "nelements": null,
  "composition": null,
  "composition_reduced": null,
  "formula_pretty": "ZrGe2",
  "formula_anonymous": "AB2",
  "chemsys": null,
  "volume": 109.52516571009552,
  "density": 7.171395338431648,
  "density_atomic": 18.25419428501592,
  "symmetry": null,
  "property_name": null,
  "material_id": "mp-2430",
  "deprecated": null,
  "deprecation_reasons": null,
  "last_updated": null,
  "origins": null,
  "warnings": null,
  "structure": {
    "@module": "pymatgen.core.structure",
    "@class": "Structure",
    "charge": 0,
    "lattice": {
      "matrix": [
        [3.69652883, -0.0, -0.92845367],
        [0.0, 3.77433863, -0.0],
        [0.0064483100000000005, 0.0, 7.84854853]
      ],
      "pbc": [true, true, true],
      "a": 3.8113451179810047,
      "b": 3.77433863,
      "c": 7.848551178941692,
      "alpha": 90.0,
      "beta": 104.05219437637635,
      "gamma": 90.0,
      "volume": 109.52516571009551
    },
    "properties": {},
    "sites": [
      {
        "species": [{ "element": "Zr", "occu": 1 }],
        "abc": [0.10633172, 0.75, 0.21266144],
        "properties": { "magmom": 0.0 },
        "label": "Zr",
        "xyz": [0.39442957541365403, 2.8307539725, 1.5703595566282709]
      },
      {
        "species": [{ "element": "Zr", "occu": 1 }],
        "abc": [0.89366828, 0.25, 0.78733856],
        "properties": { "magmom": 0.0 },
        "label": "Zr",
        "xyz": [3.308547564586346, 0.9435846575, 5.349735303371729]
      },
      {
        "species": [{ "element": "Ge", "occu": 1 }],
        "abc": [0.44239835, 0.75, 0.884798699999999],
        "properties": { "magmom": 0.0 },
        "label": "Ge",
        "xyz": [1.6410437114246275, 2.8307539725, 6.5336391645714595]
      },
      {
        "species": [{ "element": "Ge", "occu": 1 }],
        "abc": [0.5576016500000001, 0.25, 0.11520129999999901],
        "properties": { "magmom": 0.0 },
        "label": "Ge",
        "xyz": [2.0619334285753728, 0.9435846575, 0.38645569542852576]
      },
      {
        "species": [{ "element": "Ge", "occu": 1 }],
        "abc": [0.25018016, 0.25, 0.50036232],
        "properties": { "magmom": -0.0 },
        "label": "Ge",
        "xyz": [0.928024665485692, 0.9435846575, 3.694837263390203]
      },
      {
        "species": [{ "element": "Ge", "occu": 1 }],
        "abc": [0.74981984, 0.75, 0.49963768000000003],
        "properties": { "magmom": -0.0 },
        "label": "Ge",
        "xyz": [2.774952474514308, 2.8307539725, 3.225257596609798]
      }
    ]
  },
  "task_ids": null,
  "uncorrected_energy_per_atom": null,
  "energy_per_atom": -17.460376726666667,
  "formation_energy_per_atom": -0.629127705000001,
  "energy_above_hull": 0.0,
  "is_stable": true,
  "equilibrium_reaction_energy_per_atom": null,
  "decomposes_to": null,
  "xas": null,
  "grain_boundaries": null,
  "band_gap": 0.0,
  "cbm": null,
  "vbm": null,
  "efermi": 6.80182543,
  "is_gap_direct": null,
  "is_metal": null,
  "es_source_calc_id": null,
  "bandstructure": null,
  "dos": null,
  "dos_energy_up": null,
  "dos_energy_down": null,
  "is_magnetic": null,
  "ordering": null,
  "total_magnetization": 0.0,
  "total_magnetization_normalized_vol": null,
  "total_magnetization_normalized_formula_units": null,
  "num_magnetic_sites": null,
  "num_unique_magnetic_sites": null,
  "types_of_magnetic_species": null,
  "bulk_modulus": null,
  "shear_modulus": null,
  "universal_anisotropy": null,
  "homogeneous_poisson": null,
  "e_total": null,
  "e_ionic": null,
  "e_electronic": null,
  "n": null,
  "e_ij_max": null,
  "weighted_surface_energy_EV_PER_ANG2": null,
  "weighted_surface_energy": null,
  "weighted_work_function": null,
  "surface_anisotropy": null,
  "shape_factor": null,
  "has_reconstructed": null,
  "possible_species": null,
  "has_props": null,
  "theoretical": null,
  "database_IDs": null,
  "fields_not_requested": [
    "builder_meta",
    "nsites",
    "elements",
    "nelements",
    "composition",
    "composition_reduced",
    "chemsys",
    "symmetry",
    "property_name",
    "deprecated",
    "deprecation_reasons",
    "last_updated",
    "origins",
    "warnings",
    "task_ids",
    "uncorrected_energy_per_atom",
    "equilibrium_reaction_energy_per_atom",
    "decomposes_to",
    "xas",
    "grain_boundaries",
    "cbm",
    "vbm",
    "is_gap_direct",
    "is_metal",
    "es_source_calc_id",
    "bandstructure",
    "dos",
    "dos_energy_up",
    "dos_energy_down",
    "is_magnetic",
    "ordering",
    "total_magnetization_normalized_vol",
    "total_magnetization_normalized_formula_units",
    "num_magnetic_sites",
    "num_unique_magnetic_sites",
    "types_of_magnetic_species",
    "bulk_modulus",
    "shear_modulus",
    "universal_anisotropy",
    "homogeneous_poisson",
    "e_total",
    "e_ionic",
    "e_electronic",
    "n",
    "e_ij_max",
    "weighted_surface_energy_EV_PER_ANG2",
    "weighted_surface_energy",
    "weighted_work_function",
    "surface_anisotropy",
    "shape_factor",
    "has_reconstructed",
    "possible_species",
    "has_props",
    "theoretical",
    "database_IDs"
  ]
}
