{"builder_meta": null, "nsites": null, "elements": null, "nelements": null, "composition": null, "composition_reduced": null, "formula_pretty": "ZrGe", "formula_anonymous": "AB", "chemsys": null, "volume": 150.37789052286274, "density": 7.237834568984679, "density_atomic": 18.797236315357843, "symmetry": null, "property_name": null, "material_id": "mp-1025513", "deprecated": null, "deprecation_reasons": null, "last_updated": null, "origins": null, "warnings": null, "structure": {"@module": "pymatgen.core.structure", "@class": "Structure", "charge": 0, "lattice": {"matrix": [[0.0, -3.91511137, 0.0], [-7.09613347, 0.0, 0.0], [0.0, 0.0, -5.41275154]], "pbc": [true, true, true], "a": 3.91511137, "b": 7.09613347, "c": 5.41275154, "alpha": 90.0, "beta": 90.0, "gamma": 90.0, "volume": 150.37789052286274}, "properties": {}, "sites": [{"species": [{"element": "Zr", "occu": 1}], "abc": [0.75, 0.82392014, 0.36911204000000003], "properties": {"magmom": 0.0}, "label": "Zr", "xyz": [-5.8466472820610855, -2.9363335275, -1.9979117629425418]}, {"species": [{"element": "Zr", "occu": 1}], "abc": [0.25, 0.17607886, 0.63088796], "properties": {"magmom": 0.0}, "label": "Zr", "xyz": [-1.2494790918054441, -0.9787778425, -3.4148397770574586]}, {"species": [{"element": "Zr", "occu": 1}], "abc": [0.25, 0.67607986, 0.86911204], "properties": {"magmom": 0.0}, "label": "Zr", "xyz": [-4.797552922938914, -0.9787778425, -4.7042875329425415]}, {"species": [{"element": "Zr", "occu": 1}], "abc": [0.75, 0.32392014, 0.13088796], "properties": {"magmom": 0.0}, "label": "Zr", "xyz": [-2.298580547061086, -2.9363335275, -0.7084640070574585]}, {"species": [{"element": "Ge", "occu": 1}], "abc": [0.75, 0.95168177, 0.84780711], "properties": {"magmom": -0.0}, "label": "Ge", "xyz": [-6.753260860885842, -2.9363335275, -4.58896924027545]}, {"species": [{"element": "Ge", "occu": 1}], "abc": [0.25, 0.048318230000000004, 0.15219289], "properties": {"magmom": -0.0}, "label": "Ge", "xyz": [-0.3428726091141581, -0.9787778425, -0.8237822997245506]}, {"species": [{"element": "Ge", "occu": 1}], "abc": [0.25, 0.54831823, 0.34780711000000003], "properties": {"magmom": -0.0}, "label": "Ge", "xyz": [-3.890939344114158, -0.9787778425, -1.8825934702754497]}, {"species": [{"element": "Ge", "occu": 1}], "abc": [0.75, 0.45168177, 0.65219289], "properties": {"magmom": -0.0}, "label": "Ge", "xyz": [-3.205194125885842, -2.9363335275, -3.530158069724551]}]}, "task_ids": null, "uncorrected_energy_per_atom": null, "energy_per_atom": -19.191277475, "formation_energy_per_atom": -0.880392732499998, "energy_above_hull": 0.0, "is_stable": true, "equilibrium_reaction_energy_per_atom": null, "decomposes_to": null, "xas": null, "grain_boundaries": null, "band_gap": 0.0, "cbm": null, "vbm": null, "efermi": 6.36469009, "is_gap_direct": null, "is_metal": null, "es_source_calc_id": null, "bandstructure": null, "dos": null, "dos_energy_up": null, "dos_energy_down": null, "is_magnetic": null, "ordering": null, "total_magnetization": 1e-07, "total_magnetization_normalized_vol": null, "total_magnetization_normalized_formula_units": null, "num_magnetic_sites": null, "num_unique_magnetic_sites": null, "types_of_magnetic_species": null, "bulk_modulus": null, "shear_modulus": null, "universal_anisotropy": null, "homogeneous_poisson": null, "e_total": null, "e_ionic": null, "e_electronic": null, "n": null, "e_ij_max": null, "weighted_surface_energy_EV_PER_ANG2": null, "weighted_surface_energy": null, "weighted_work_function": null, "surface_anisotropy": null, "shape_factor": null, "has_reconstructed": null, "possible_species": null, "has_props": null, "theoretical": null, "database_IDs": null, "fields_not_requested": ["builder_meta", "nsites", "elements", "nelements", "composition", "composition_reduced", "chemsys", "symmetry", "property_name", "deprecated", "deprecation_reasons", "last_updated", "origins", "warnings", "task_ids", "uncorrected_energy_per_atom", "equilibrium_reaction_energy_per_atom", "decomposes_to", "xas", "grain_boundaries", "cbm", "vbm", "is_gap_direct", "is_metal", "es_source_calc_id", "bandstructure", "dos", "dos_energy_up", "dos_energy_down", "is_magnetic", "ordering", "total_magnetization_normalized_vol", "total_magnetization_normalized_formula_units", "num_magnetic_sites", "num_unique_magnetic_sites", "types_of_magnetic_species", "bulk_modulus", "shear_modulus", "universal_anisotropy", "homogeneous_poisson", "e_total", "e_ionic", "e_electronic", "n", "e_ij_max", "weighted_surface_energy_EV_PER_ANG2", "weighted_surface_energy", "weighted_work_function", "surface_anisotropy", "shape_factor", "has_reconstructed", "possible_species", "has_props", "theoretical", "database_IDs"]}