{"builder_meta": null, "nsites": null, "elements": null, "nelements": null, "composition": null, "composition_reduced": null, "formula_pretty": "ZrH", "formula_anonymous": "AB", "chemsys": null, "volume": 104.72069395583421, "density": 5.8500276792627055, "density_atomic": 13.090086744479276, "symmetry": null, "property_name": null, "material_id": "mp-697179", "deprecated": null, "deprecation_reasons": null, "last_updated": null, "origins": null, "warnings": null, "structure": {"@module": "pymatgen.core.structure", "@class": "Structure", "charge": 0, "lattice": {"matrix": [[4.57520655, 0.00010198, -1.915e-05], [0.00014457, 4.57639752, 3.0360000000000004e-05], [-4.99e-06, 5.738e-05, 5.00147457]], "pbc": [true, true, true], "a": 4.575206551176629, "b": 4.576397522384214, "c": 5.001474570331639, "alpha": 89.99896256685676, "beta": 90.00029696708594, "gamma": 89.99691290188689, "volume": 104.72069395583421}, "properties": {}, "sites": [{"species": [{"element": "Zr", "occu": 1}], "abc": [0.74999753, 0.249994599999999, 0.74999902], "properties": {"magmom": -0.0}, "label": "Zr", "xyz": [3.4314260109640338, 1.1441941871452646, 3.7510942534382776]}, {"species": [{"element": "Zr", "occu": 1}], "abc": [0.250003, 0.7500048300000001, 0.75000096], "properties": {"magmom": -0.0}, "label": "Zr", "xyz": [1.1439200488131327, 3.4323887743610473, 3.7511287115047764]}, {"species": [{"element": "Zr", "occu": 1}], "abc": [0.25000079000000003, 0.25000053, 0.24997737], "properties": {"magmom": -0.0}, "label": "Zr", "xyz": [1.1438401471027202, 1.1441416442727406, 1.2502582616314433]}, {"species": [{"element": "Zr", "occu": 1}], "abc": [0.7499990400000001, 0.7499994600000001, 0.25002236], "properties": {"magmom": -0.0}, "label": "Zr", "xyz": [3.431507700112068, 3.432386499930456, 1.2504888829733747]}, {"species": [{"element": "H", "occu": 1}], "abc": [0.49998457, 0.4999937, 0.49998349000000003], "properties": {"magmom": 0.0}, "label": "H", "xyz": [2.2876024687345273, 2.288249606174729, 2.500660315759066]}, {"species": [{"element": "H", "occu": 1}], "abc": [0.9999901600000001, 0.9999933, 1.6400000000000002e-05], "properties": {"magmom": 0.0}, "label": "H", "xyz": [4.5753060989170935, 4.576468838074165, 9.3234167972e-05]}, {"species": [{"element": "H", "occu": 1}], "abc": [0.50001511, 0.5000065, 1.6630000000000002e-05], "properties": {"magmom": 0.0}, "label": "H", "xyz": [2.2877446922276916, 2.2882794990790276, 8.877943008260001e-05]}, {"species": [{"element": "H", "occu": 1}], "abc": [9.800000000000001e-06, 6.06e-06, 0.49998378], "properties": {"magmom": 0.0}, "label": "H", "xyz": [4.2342981222e-05, 5.64230376716e-05, 2.500656161078786]}]}, "task_ids": null, "uncorrected_energy_per_atom": null, "energy_per_atom": -13.59373110875, "formation_energy_per_atom": -0.491278955624999, "energy_above_hull": 0.000249785000001, "is_stable": false, "equilibrium_reaction_energy_per_atom": null, "decomposes_to": null, "xas": null, "grain_boundaries": null, "band_gap": 0.0, "cbm": null, "vbm": null, "efermi": 3.94124045, "is_gap_direct": null, "is_metal": null, "es_source_calc_id": null, "bandstructure": null, "dos": null, "dos_energy_up": null, "dos_energy_down": null, "is_magnetic": null, "ordering": null, "total_magnetization": 4.5999999999999975e-06, "total_magnetization_normalized_vol": null, "total_magnetization_normalized_formula_units": null, "num_magnetic_sites": null, "num_unique_magnetic_sites": null, "types_of_magnetic_species": null, "bulk_modulus": null, "shear_modulus": null, "universal_anisotropy": null, "homogeneous_poisson": null, "e_total": null, "e_ionic": null, "e_electronic": null, "n": null, "e_ij_max": null, "weighted_surface_energy_EV_PER_ANG2": null, "weighted_surface_energy": null, "weighted_work_function": null, "surface_anisotropy": null, "shape_factor": null, "has_reconstructed": null, "possible_species": null, "has_props": null, "theoretical": null, "database_IDs": null, "fields_not_requested": ["builder_meta", "nsites", "elements", "nelements", "composition", "composition_reduced", "chemsys", "symmetry", "property_name", "deprecated", "deprecation_reasons", "last_updated", "origins", "warnings", "task_ids", "uncorrected_energy_per_atom", "equilibrium_reaction_energy_per_atom", "decomposes_to", "xas", "grain_boundaries", "cbm", "vbm", "is_gap_direct", "is_metal", "es_source_calc_id", "bandstructure", "dos", "dos_energy_up", "dos_energy_down", "is_magnetic", "ordering", "total_magnetization_normalized_vol", "total_magnetization_normalized_formula_units", "num_magnetic_sites", "num_unique_magnetic_sites", "types_of_magnetic_species", "bulk_modulus", "shear_modulus", "universal_anisotropy", "homogeneous_poisson", "e_total", "e_ionic", "e_electronic", "n", "e_ij_max", "weighted_surface_energy_EV_PER_ANG2", "weighted_surface_energy", "weighted_work_function", "surface_anisotropy", "shape_factor", "has_reconstructed", "possible_species", "has_props", "theoretical", "database_IDs"]}