{"builder_meta": null, "nsites": null, "elements": null, "nelements": null, "composition": null, "composition_reduced": null, "formula_pretty": "ZrI2", "formula_anonymous": "AB2", "chemsys": null, "volume": 407.6293550748252, "density": 5.622172878385403, "density_atomic": 33.9691129229021, "symmetry": null, "property_name": null, "material_id": "mp-570506", "deprecated": null, "deprecation_reasons": null, "last_updated": null, "origins": null, "warnings": null, "structure": {"@module": "pymatgen.core.structure", "@class": "Structure", "charge": 0, "lattice": {"matrix": [[3.77437288, 0.0, 0.0], [0.0, 6.9182467800000005, 0.0], [0.0, 0.0, 15.61077985]], "pbc": [true, true, true], "a": 3.77437288, "b": 6.9182467800000005, "c": 15.61077985, "alpha": 90.0, "beta": 90.0, "gamma": 90.0, "volume": 407.62935507482524}, "properties": {}, "sites": [{"species": [{"element": "Zr", "occu": 1}], "abc": [-0.0, 0.48941501, 0.0067354], "properties": {"magmom": -0.0}, "label": "Zr", "xyz": [0.0, 3.385893817016168, 0.10514484660169]}, {"species": [{"element": "Zr", "occu": 1}], "abc": [-0.0, 0.88265308, 0.50058586], "properties": {"magmom": 0.0}, "label": "Zr", "xyz": [0.0, 6.106411828567083, 7.814535656482922]}, {"species": [{"element": "Zr", "occu": 1}], "abc": [0.5, 0.11734692000000001, 0.00058586], "properties": {"magmom": 0.0}, "label": "Zr", "xyz": [1.88718644, 0.8118349514329177, 0.009145731482921]}, {"species": [{"element": "Zr", "occu": 1}], "abc": [0.5, 0.51058499, 0.5067354], "properties": {"magmom": -0.0}, "label": "Zr", "xyz": [1.88718644, 3.5323529629838326, 7.910534771601689]}, {"species": [{"element": "I", "occu": 1}], "abc": [0.0, 0.88363083, 0.10853806], "properties": {"magmom": 0.0}, "label": "I", "xyz": [0.0, 6.113176144356228, 1.694363760006091]}, {"species": [{"element": "I", "occu": 1}], "abc": [0.5, 0.77827704, 0.36257773], "properties": {"magmom": -0.0}, "label": "I", "xyz": [1.88718644, 5.384312625927931, 5.6601211215427405]}, {"species": [{"element": "I", "occu": 1}], "abc": [0.0, 0.22172296, 0.86257773], "properties": {"magmom": -0.0}, "label": "I", "xyz": [0.0, 1.5339341540720688, 13.46551104654274]}, {"species": [{"element": "I", "occu": 1}], "abc": [0.5, 0.72349233, 0.89919562], "properties": {"magmom": 0.0}, "label": "I", "xyz": [1.88718644, 5.0052984823771975, 14.037144865904256]}, {"species": [{"element": "I", "occu": 1}], "abc": [0.5, 0.11636917000000001, 0.60853806], "properties": {"magmom": 0.0}, "label": "I", "xyz": [1.88718644, 0.8050706356437727, 9.499753685006091]}, {"species": [{"element": "I", "occu": 1}], "abc": [0.5, 0.38432104, 0.14466832000000002], "properties": {"magmom": -0.0}, "label": "I", "xyz": [1.88718644, 2.6588277974662513, 2.258385294789352]}, {"species": [{"element": "I", "occu": 1}], "abc": [-0.0, 0.27650767, 0.39919562000000003], "properties": {"magmom": 0.0}, "label": "I", "xyz": [0.0, 1.9129482976228027, 6.231754940904257]}, {"species": [{"element": "I", "occu": 1}], "abc": [0.0, 0.61567896, 0.64466832], "properties": {"magmom": -0.0}, "label": "I", "xyz": [0.0, 4.259418982533749, 10.06377521978935]}]}, "task_ids": null, "uncorrected_energy_per_atom": null, "energy_per_atom": -5.010594956666665, "formation_energy_per_atom": -1.145353003333332, "energy_above_hull": 0.0, "is_stable": true, "equilibrium_reaction_energy_per_atom": null, "decomposes_to": null, "xas": null, "grain_boundaries": null, "band_gap": 0.284599999999999, "cbm": null, "vbm": null, "efermi": 4.56411636, "is_gap_direct": null, "is_metal": null, "es_source_calc_id": null, "bandstructure": null, "dos": null, "dos_energy_up": null, "dos_energy_down": null, "is_magnetic": null, "ordering": null, "total_magnetization": 0.0, "total_magnetization_normalized_vol": null, "total_magnetization_normalized_formula_units": null, "num_magnetic_sites": null, "num_unique_magnetic_sites": null, "types_of_magnetic_species": null, "bulk_modulus": null, "shear_modulus": null, "universal_anisotropy": null, "homogeneous_poisson": null, "e_total": null, "e_ionic": null, "e_electronic": null, "n": null, "e_ij_max": null, "weighted_surface_energy_EV_PER_ANG2": null, "weighted_surface_energy": null, "weighted_work_function": null, "surface_anisotropy": null, "shape_factor": null, "has_reconstructed": null, "possible_species": null, "has_props": null, "theoretical": null, "database_IDs": null, "fields_not_requested": ["builder_meta", "nsites", "elements", "nelements", "composition", "composition_reduced", "chemsys", "symmetry", "property_name", "deprecated", "deprecation_reasons", "last_updated", "origins", "warnings", "task_ids", "uncorrected_energy_per_atom", "equilibrium_reaction_energy_per_atom", "decomposes_to", "xas", "grain_boundaries", "cbm", "vbm", "is_gap_direct", "is_metal", "es_source_calc_id", "bandstructure", "dos", "dos_energy_up", "dos_energy_down", "is_magnetic", "ordering", "total_magnetization_normalized_vol", "total_magnetization_normalized_formula_units", "num_magnetic_sites", "num_unique_magnetic_sites", "types_of_magnetic_species", "bulk_modulus", "shear_modulus", "universal_anisotropy", "homogeneous_poisson", "e_total", "e_ionic", "e_electronic", "n", "e_ij_max", "weighted_surface_energy_EV_PER_ANG2", "weighted_surface_energy", "weighted_work_function", "surface_anisotropy", "shape_factor", "has_reconstructed", "possible_species", "has_props", "theoretical", "database_IDs"]}