{"builder_meta": null, "nsites": null, "elements": null, "nelements": null, "composition": null, "composition_reduced": null, "formula_pretty": "ZrI3", "formula_anonymous": "AB3", "chemsys": null, "volume": 669.8747509554491, "density": 4.679504669655121, "density_atomic": 41.86717193471557, "symmetry": null, "property_name": null, "material_id": "mp-570188", "deprecated": null, "deprecation_reasons": null, "last_updated": null, "origins": null, "warnings": null, "structure": {"@module": "pymatgen.core.structure", "@class": "Structure", "charge": 0, "lattice": {"matrix": [[6.6802676, 0.0, 0.0], [-0.0, 7.60045633, 0.0], [0.0, 0.0, 13.1935018]], "pbc": [true, true, true], "a": 6.6802676, "b": 7.60045633, "c": 13.1935018, "alpha": 90.0, "beta": 90.0, "gamma": 90.0, "volume": 669.8747509554491}, "properties": {}, "sites": [{"species": [{"element": "Zr", "occu": 1}], "abc": [0.48221056, 0.24685232000000001, 0.75], "properties": {"magmom": 0.0}, "label": "Zr", "xyz": [3.221295580345856, 1.8761902781191857, 9.89512635]}, {"species": [{"element": "Zr", "occu": 1}], "abc": [0.01778944, 0.24685232000000001, 0.75], "properties": {"magmom": 0.0}, "label": "Zr", "xyz": [0.118838219654144, 1.8761902781191857, 9.89512635]}, {"species": [{"element": "Zr", "occu": 1}], "abc": [0.51778944, 0.75314768, 0.25], "properties": {"magmom": 0.0}, "label": "Zr", "xyz": [3.4589720196541442, 5.724266051880814, 3.29837545]}, {"species": [{"element": "Zr", "occu": 1}], "abc": [0.9822105600000001, 0.75314768, 0.25], "properties": {"magmom": 0.0}, "label": "Zr", "xyz": [6.561429380345856, 5.724266051880814, 3.29837545]}, {"species": [{"element": "I", "occu": 1}], "abc": [0.25, 0.40759766000000003, 0.90955569], "properties": {"magmom": 0.0}, "label": "I", "xyz": [1.6700669, 3.097928215040188, 12.000224633215243]}, {"species": [{"element": "I", "occu": 1}], "abc": [0.25, 0.92658582, 0.75], "properties": {"magmom": 0.0}, "label": "I", "xyz": [1.6700669, 7.042475060907241, 9.89512635]}, {"species": [{"element": "I", "occu": 1}], "abc": [0.25, 0.9080746, 0.09501864], "properties": {"magmom": 0.0}, "label": "I", "xyz": [1.6700669, 6.901781341682217, 1.253628597873552]}, {"species": [{"element": "I", "occu": 1}], "abc": [0.25, 0.9080746, 0.40498136], "properties": {"magmom": 0.0}, "label": "I", "xyz": [1.6700669, 6.901781341682217, 5.3431223021264485]}, {"species": [{"element": "I", "occu": 1}], "abc": [0.75, 0.091925399999999, 0.59501864], "properties": {"magmom": 0.0}, "label": "I", "xyz": [5.0102006999999995, 0.6986749883177744, 7.850379497873552]}, {"species": [{"element": "I", "occu": 1}], "abc": [0.75, 0.59240234, 0.40955569000000003], "properties": {"magmom": 0.0}, "label": "I", "xyz": [5.0102006999999995, 4.502528114959812, 5.403473733215242]}, {"species": [{"element": "I", "occu": 1}], "abc": [0.75, 0.5575867800000001, 0.75], "properties": {"magmom": 0.0}, "label": "I", "xyz": [5.0102006999999995, 4.237913971575318, 9.89512635]}, {"species": [{"element": "I", "occu": 1}], "abc": [0.75, 0.091925399999999, 0.9049813600000001], "properties": {"magmom": 0.0}, "label": "I", "xyz": [5.0102006999999995, 0.6986749883177744, 11.93987320212645]}, {"species": [{"element": "I", "occu": 1}], "abc": [0.75, 0.59240234, 0.09044431], "properties": {"magmom": 0.0}, "label": "I", "xyz": [5.0102006999999995, 4.502528114959812, 1.193277166784758]}, {"species": [{"element": "I", "occu": 1}], "abc": [0.75, 0.07341418, 0.25], "properties": {"magmom": 0.0}, "label": "I", "xyz": [5.0102006999999995, 0.5579812690927594, 3.29837545]}, {"species": [{"element": "I", "occu": 1}], "abc": [0.25, 0.44241322, 0.25], "properties": {"magmom": 0.0}, "label": "I", "xyz": [1.6700669, 3.3625423584246827, 3.29837545]}, {"species": [{"element": "I", "occu": 1}], "abc": [0.25, 0.40759766000000003, 0.59044431], "properties": {"magmom": 0.0}, "label": "I", "xyz": [1.6700669, 3.097928215040188, 7.790028066784758]}]}, "task_ids": null, "uncorrected_energy_per_atom": null, "energy_per_atom": -4.526845603750001, "formation_energy_per_atom": -1.246910985000001, "energy_above_hull": 0.0, "is_stable": true, "equilibrium_reaction_energy_per_atom": null, "decomposes_to": null, "xas": null, "grain_boundaries": null, "band_gap": 0.1623, "cbm": null, "vbm": null, "efermi": 2.58096103, "is_gap_direct": null, "is_metal": null, "es_source_calc_id": null, "bandstructure": null, "dos": null, "dos_energy_up": null, "dos_energy_down": null, "is_magnetic": null, "ordering": null, "total_magnetization": 1.8e-06, "total_magnetization_normalized_vol": null, "total_magnetization_normalized_formula_units": null, "num_magnetic_sites": null, "num_unique_magnetic_sites": null, "types_of_magnetic_species": null, "bulk_modulus": null, "shear_modulus": null, "universal_anisotropy": null, "homogeneous_poisson": null, "e_total": null, "e_ionic": null, "e_electronic": null, "n": null, "e_ij_max": null, "weighted_surface_energy_EV_PER_ANG2": null, "weighted_surface_energy": null, "weighted_work_function": null, "surface_anisotropy": null, "shape_factor": null, "has_reconstructed": null, "possible_species": null, "has_props": null, "theoretical": null, "database_IDs": null, "fields_not_requested": ["builder_meta", "nsites", "elements", "nelements", "composition", "composition_reduced", "chemsys", "symmetry", "property_name", "deprecated", "deprecation_reasons", "last_updated", "origins", "warnings", "task_ids", "uncorrected_energy_per_atom", "equilibrium_reaction_energy_per_atom", "decomposes_to", "xas", "grain_boundaries", "cbm", "vbm", "is_gap_direct", "is_metal", "es_source_calc_id", "bandstructure", "dos", "dos_energy_up", "dos_energy_down", "is_magnetic", "ordering", "total_magnetization_normalized_vol", "total_magnetization_normalized_formula_units", "num_magnetic_sites", "num_unique_magnetic_sites", "types_of_magnetic_species", "bulk_modulus", "shear_modulus", "universal_anisotropy", "homogeneous_poisson", "e_total", "e_ionic", "e_electronic", "n", "e_ij_max", "weighted_surface_energy_EV_PER_ANG2", "weighted_surface_energy", "weighted_work_function", "surface_anisotropy", "shape_factor", "has_reconstructed", "possible_species", "has_props", "theoretical", "database_IDs"]}