{
  "builder_meta": null,
  "nsites": null,
  "elements": null,
  "nelements": null,
  "composition": null,
  "composition_reduced": null,
  "formula_pretty": "ZrI4",
  "formula_anonymous": "AB4",
  "chemsys": null,
  "volume": 1325.1143003803224,
  "density": 4.502556509294867,
  "density_atomic": 44.170476679344084,
  "symmetry": null,
  "property_name": null,
  "material_id": "mp-571235",
  "deprecated": null,
  "deprecation_reasons": null,
  "last_updated": null,
  "origins": null,
  "warnings": null,
  "structure": {
    "@module": "pymatgen.core.structure",
    "@class": "Structure",
    "charge": 0,
    "lattice": {
      "matrix": [
        [8.65854444, 0.0, 0.0],
        [0.0, 8.40785055, -1.96221682],
        [0.0, -0.04151378, 18.21187106]
      ],
      "pbc": [true, true, true],
      "a": 8.65854444,
      "b": 8.633785132827096,
      "c": 18.211918375064045,
      "alpha": 103.26711551860016,
      "beta": 90.0,
      "gamma": 90.0,
      "volume": 1325.1143003803224
    },
    "properties": {},
    "sites": [
      {
        "species": [{ "element": "Zr", "occu": 1 }],
        "abc": [0.87928808, 0.19533248, 0.583180199999999],
        "properties": { "magmom": 0.0 },
        "label": "Zr",
        "xyz": [7.613354916242275, 1.618116284877708, 10.237517929396681]
      },
      {
        "species": [{ "element": "Zr", "occu": 1 }],
        "abc": [0.12071192, 0.80466752, 0.416819799999999],
        "properties": { "magmom": 0.0 },
        "label": "Zr",
        "xyz": [1.045189523757725, 6.748220485122292, 6.0121363106032835]
      },
      {
        "species": [{ "element": "Zr", "occu": 1 }],
        "abc": [0.60783656, 0.0, 0.75],
        "properties": { "magmom": 0.0 },
        "label": "Zr",
        "xyz": [5.2629798670167265, -0.031135335, 13.658903295]
      },
      {
        "species": [{ "element": "Zr", "occu": 1 }],
        "abc": [0.87928808, 0.80466752, 0.9168198],
        "properties": { "magmom": 0.0 },
        "label": "Zr",
        "xyz": [7.613354916242275, 6.727463595122291, 15.118071840603301]
      },
      {
        "species": [{ "element": "Zr", "occu": 1 }],
        "abc": [0.12071192, 0.19533248, 0.0831802],
        "properties": { "magmom": 0.0 },
        "label": "Zr",
        "xyz": [1.045189523757725, 1.638873174877708, 1.1315823993966982]
      },
      {
        "species": [{ "element": "Zr", "occu": 1 }],
        "abc": [0.39216344000000003, 0.0, 0.25],
        "properties": { "magmom": 0.0 },
        "label": "Zr",
        "xyz": [3.395564572983274, -0.010378445, 4.552967765]
      },
      {
        "species": [{ "element": "I", "occu": 1 }],
        "abc": [0.11563348, 0.59381217, 0.9078374300000001],
        "properties": { "magmom": -0.0 },
        "label": "I",
        "xyz": [1.0012176253318512, 4.954996216786407, 15.368229990707079]
      },
      {
        "species": [{ "element": "I", "occu": 1 }],
        "abc": [0.5955194500000001, 0.24309009, 0.25816187],
        "properties": { "magmom": -0.0 },
        "label": "I",
        "xyz": [5.1563316227093585, 2.0331478718304807, 4.224615225675169]
      },
      {
        "species": [{ "element": "I", "occu": 1 }],
        "abc": [0.11795681000000001, 0.93072502, 0.57823153],
        "properties": { "magmom": 0.0 },
        "label": "I",
        "xyz": [1.0213342813856365, 7.801392294780277, 8.704393778147686]
      },
      {
        "species": [{ "element": "I", "occu": 1 }],
        "abc": [0.36064063, 0.60734625, 0.42591417000000004],
        "properties": { "magmom": -0.0 },
        "label": "I",
        "xyz": [3.1226229217245973, 5.0887951949506744, 6.564948919352997]
      },
      {
        "species": [{ "element": "I", "occu": 1 }],
        "abc": [0.12501258, 0.23004712, 0.24482997],
        "properties": { "magmom": -0.0 },
        "label": "I",
        "xyz": [1.0824269794890553, 1.924037986905929, 4.00740951700711]
      },
      {
        "species": [{ "element": "I", "occu": 1 }],
        "abc": [0.12501258, 0.7699528800000001, 0.25517003],
        "properties": { "magmom": -0.0 },
        "label": "I",
        "xyz": [1.0824269794890553, 6.463055673094071, 3.1363091929928895]
      },
      {
        "species": [{ "element": "I", "occu": 1 }],
        "abc": [0.11795681000000001, 0.06927498, 0.9217684700000001],
        "properties": { "magmom": 0.0 },
        "label": "I",
        "xyz": [1.0213342813856365, 0.5441875852197223, 16.651195991852315]
      },
      {
        "species": [{ "element": "I", "occu": 1 }],
        "abc": [0.40448055, 0.75690991, 0.74183813],
        "properties": { "magmom": -0.0 },
        "label": "I",
        "xyz": [3.502212817290642, 6.333188898169518, 12.02503901432483]
      },
      {
        "species": [{ "element": "I", "occu": 1 }],
        "abc": [0.88436652, 0.40618783, 0.09216257],
        "properties": { "magmom": -0.0 },
        "label": "I",
        "xyz": [7.657326814668149, 3.411340553213592, 0.8814242492929236]
      },
      {
        "species": [{ "element": "I", "occu": 1 }],
        "abc": [0.8749874200000001, 0.7699528800000001, 0.75517003],
        "properties": { "magmom": -0.0 },
        "label": "I",
        "xyz": [7.576117460510946, 6.442298783094071, 12.24224472299289]
      },
      {
        "species": [{ "element": "I", "occu": 1 }],
        "abc": [0.40448055, 0.24309009, 0.75816187],
        "properties": { "magmom": -0.0 },
        "label": "I",
        "xyz": [3.502212817290642, 2.012390981830481, 13.33055075567517]
      },
      {
        "species": [{ "element": "I", "occu": 1 }],
        "abc": [0.88436652, 0.59381217, 0.40783743],
        "properties": { "magmom": -0.0 },
        "label": "I",
        "xyz": [7.657326814668149, 4.975753106786407, 6.262294460707077]
      },
      {
        "species": [{ "element": "I", "occu": 1 }],
        "abc": [0.5955194500000001, 0.75690991, 0.24183813],
        "properties": { "magmom": -0.0 },
        "label": "I",
        "xyz": [5.1563316227093585, 6.3539457881695185, 2.919103484324832]
      },
      {
        "species": [{ "element": "I", "occu": 1 }],
        "abc": [0.65292005, 0.92596104, 0.5885151200000001],
        "properties": { "magmom": -0.0 },
        "label": "I",
        "xyz": [5.653337268692022, 7.760910552224217, 8.901025154947735]
      },
      {
        "species": [{ "element": "I", "occu": 1 }],
        "abc": [0.34707995, 0.07403896, 0.41148488],
        "properties": { "magmom": -0.0 },
        "label": "I",
        "xyz": [3.0052071713079784, 0.6054262177757815, 7.3486290850522655]
      },
      {
        "species": [{ "element": "I", "occu": 1 }],
        "abc": [0.8749874200000001, 0.23004712, 0.7448299700000001],
        "properties": { "magmom": -0.0 },
        "label": "I",
        "xyz": [7.576117460510946, 1.903281096905929, 13.113345047007112]
      },
      {
        "species": [{ "element": "I", "occu": 1 }],
        "abc": [0.11563348, 0.40618783, 0.59216257],
        "properties": { "magmom": -0.0 },
        "label": "I",
        "xyz": [1.0012176253318512, 3.390583663213592, 9.987359779292925]
      },
      {
        "species": [{ "element": "I", "occu": 1 }],
        "abc": [0.63935937, 0.60734625, 0.92591417],
        "properties": { "magmom": -0.0 },
        "label": "I",
        "xyz": [5.535921518275402, 5.068038304950674, 15.670884449352997]
      },
      {
        "species": [{ "element": "I", "occu": 1 }],
        "abc": [0.34707995, 0.92596104, 0.08851512],
        "properties": { "magmom": -0.0 },
        "label": "I",
        "xyz": [3.0052071713079784, 7.781667442224218, -0.20491037505226561]
      },
      {
        "species": [{ "element": "I", "occu": 1 }],
        "abc": [0.88204319, 0.93072502, 0.07823153000000001],
        "properties": { "magmom": 0.0 },
        "label": "I",
        "xyz": [7.637210158614363, 7.822149184780277, -0.40154175185231455]
      },
      {
        "species": [{ "element": "I", "occu": 1 }],
        "abc": [0.63935937, 0.39265375, 0.57408583],
        "properties": { "magmom": -0.0 },
        "label": "I",
        "xyz": [5.535921518275402, 3.277541575049325, 9.684705320647005]
      },
      {
        "species": [{ "element": "I", "occu": 1 }],
        "abc": [0.65292005, 0.07403896, 0.91148488],
        "properties": { "magmom": -0.0 },
        "label": "I",
        "xyz": [5.653337268692022, 0.5846693277757815, 16.454564615052266]
      },
      {
        "species": [{ "element": "I", "occu": 1 }],
        "abc": [0.36064063, 0.39265375, 0.07408583],
        "properties": { "magmom": -0.0 },
        "label": "I",
        "xyz": [3.1226229217245973, 3.298298465049325, 0.5787697906470048]
      },
      {
        "species": [{ "element": "I", "occu": 1 }],
        "abc": [0.88204319, 0.06927498, 0.42176747000000003],
        "properties": { "magmom": 0.0 },
        "label": "I",
        "xyz": [7.637210158614363, 0.5649445167335023, 7.545242249981255]
      }
    ]
  },
  "task_ids": null,
  "uncorrected_energy_per_atom": null,
  "energy_per_atom": -4.156621227333331,
  "formation_energy_per_atom": -1.227871009333331,
  "energy_above_hull": 0.0,
  "is_stable": true,
  "equilibrium_reaction_energy_per_atom": null,
  "decomposes_to": null,
  "xas": null,
  "grain_boundaries": null,
  "band_gap": 2.021,
  "cbm": null,
  "vbm": null,
  "efermi": 0.66549812,
  "is_gap_direct": null,
  "is_metal": null,
  "es_source_calc_id": null,
  "bandstructure": null,
  "dos": null,
  "dos_energy_up": null,
  "dos_energy_down": null,
  "is_magnetic": null,
  "ordering": null,
  "total_magnetization": 0.0,
  "total_magnetization_normalized_vol": null,
  "total_magnetization_normalized_formula_units": null,
  "num_magnetic_sites": null,
  "num_unique_magnetic_sites": null,
  "types_of_magnetic_species": null,
  "bulk_modulus": null,
  "shear_modulus": null,
  "universal_anisotropy": null,
  "homogeneous_poisson": null,
  "e_total": null,
  "e_ionic": null,
  "e_electronic": null,
  "n": null,
  "e_ij_max": null,
  "weighted_surface_energy_EV_PER_ANG2": null,
  "weighted_surface_energy": null,
  "weighted_work_function": null,
  "surface_anisotropy": null,
  "shape_factor": null,
  "has_reconstructed": null,
  "possible_species": null,
  "has_props": null,
  "theoretical": null,
  "database_IDs": null,
  "fields_not_requested": [
    "builder_meta",
    "nsites",
    "elements",
    "nelements",
    "composition",
    "composition_reduced",
    "chemsys",
    "symmetry",
    "property_name",
    "deprecated",
    "deprecation_reasons",
    "last_updated",
    "origins",
    "warnings",
    "task_ids",
    "uncorrected_energy_per_atom",
    "equilibrium_reaction_energy_per_atom",
    "decomposes_to",
    "xas",
    "grain_boundaries",
    "cbm",
    "vbm",
    "is_gap_direct",
    "is_metal",
    "es_source_calc_id",
    "bandstructure",
    "dos",
    "dos_energy_up",
    "dos_energy_down",
    "is_magnetic",
    "ordering",
    "total_magnetization_normalized_vol",
    "total_magnetization_normalized_formula_units",
    "num_magnetic_sites",
    "num_unique_magnetic_sites",
    "types_of_magnetic_species",
    "bulk_modulus",
    "shear_modulus",
    "universal_anisotropy",
    "homogeneous_poisson",
    "e_total",
    "e_ionic",
    "e_electronic",
    "n",
    "e_ij_max",
    "weighted_surface_energy_EV_PER_ANG2",
    "weighted_surface_energy",
    "weighted_work_function",
    "surface_anisotropy",
    "shape_factor",
    "has_reconstructed",
    "possible_species",
    "has_props",
    "theoretical",
    "database_IDs"
  ]
}
