{"builder_meta": null, "nsites": null, "elements": null, "nelements": null, "composition": null, "composition_reduced": null, "formula_pretty": "ZrIn2", "formula_anonymous": "AB2", "chemsys": null, "volume": 266.26641365027183, "density": 8.00402210109885, "density_atomic": 22.188867804189318, "symmetry": null, "property_name": null, "material_id": "mp-20800", "deprecated": null, "deprecation_reasons": null, "last_updated": null, "origins": null, "warnings": null, "structure": {"@module": "pymatgen.core.structure", "@class": "Structure", "charge": 0, "lattice": {"matrix": [[4.35645784, -0.0, -0.69273083], [-0.11015302, 4.35506407, -0.69273083], [-0.00160622, -0.00164682, 14.03474542]], "pbc": [true, true, true], "a": 4.4111904192099844, "b": 4.411189493147236, "c": 14.03474560853063, "alpha": 99.04165263845167, "beta": 99.04165292948628, "gamma": 90.00000289958219, "volume": 266.26641365027183}, "properties": {}, "sites": [{"species": [{"element": "Zr", "occu": 1}], "abc": [0.70208139, 0.95208139, 0.90416278], "properties": {"magmom": -0.0}, "label": "Zr", "xyz": [2.9522610510488083, 4.144886459955298, 11.543804879994962]}, {"species": [{"element": "Zr", "occu": 1}], "abc": [0.45208139, 0.20208139, 0.40416278], "properties": {"magmom": -0.0}, "label": "Zr", "xyz": [1.9465644660488084, 0.8794118174552977, 5.2191629999949605]}, {"species": [{"element": "Zr", "occu": 1}], "abc": [0.29791861000000003, 0.04791861, 0.09583722], "properties": {"magmom": -0.0}, "label": "Zr", "xyz": [1.2924375489511921, 0.2085307900447023, 1.10547888000504]}, {"species": [{"element": "Zr", "occu": 1}], "abc": [0.54791861, 0.79791861, 0.5958372200000001], "properties": {"magmom": -0.0}, "label": "Zr", "xyz": [2.2981341339511916, 3.4740054325447023, 7.430120760005041]}, {"species": [{"element": "In", "occu": 1}], "abc": [0.87550223, 0.12550223, 0.25100646], "properties": {"magmom": 0.0}, "label": "In", "xyz": [3.7998609325735675, 0.5461568901194188, 2.8293851144659112]}, {"species": [{"element": "In", "occu": 1}], "abc": [0.62550223, 0.37550223, 0.75100646], "properties": {"magmom": 0.0}, "label": "In", "xyz": [2.6824051075735675, 1.634099497619419, 9.84675782446591]}, {"species": [{"element": "In", "occu": 1}], "abc": [0.12449777000000001, 0.8744977700000001, 0.7489935400000001], "properties": {"magmom": 0.0}, "label": "In", "xyz": [0.4448376674264326, 3.807260359880581, 9.81989864553409]}, {"species": [{"element": "In", "occu": 1}], "abc": [0.37449777, 0.6244977700000001, 0.24899354], "properties": {"magmom": 0.0}, "label": "In", "xyz": [1.5622934924264327, 2.7193177523805816, 2.8025259355340886]}, {"species": [{"element": "In", "occu": 1}], "abc": [0.03702139, 0.28702139, 0.5740417800000001], "properties": {"magmom": 0.0}, "label": "In", "xyz": [0.1287438144122282, 1.2490511994263178, 7.83205581879874]}, {"species": [{"element": "In", "occu": 1}], "abc": [0.78702139, 0.53702139, 0.07404178], "properties": {"magmom": 0.0}, "label": "In", "xyz": [3.3693520494122287, 2.338640626926318, 0.12195227879874004]}, {"species": [{"element": "In", "occu": 1}], "abc": [0.9629786100000001, 0.7129786100000001, 0.42595822], "properties": {"magmom": 0.0}, "label": "In", "xyz": [4.115954785587772, 3.1043660505736828, 4.81722794120126]}, {"species": [{"element": "In", "occu": 1}], "abc": [0.21297861, 0.46297861, 0.92595822], "properties": {"magmom": 0.0}, "label": "In", "xyz": [0.8753465505877718, 2.0147766230736823, 12.527331481201262]}]}, "task_ids": null, "uncorrected_energy_per_atom": null, "energy_per_atom": -23.033983264166665, "formation_energy_per_atom": -0.39832570916666504, "energy_above_hull": 0.0, "is_stable": true, "equilibrium_reaction_energy_per_atom": null, "decomposes_to": null, "xas": null, "grain_boundaries": null, "band_gap": 0.0, "cbm": null, "vbm": null, "efermi": 7.60633983, "is_gap_direct": null, "is_metal": null, "es_source_calc_id": null, "bandstructure": null, "dos": null, "dos_energy_up": null, "dos_energy_down": null, "is_magnetic": null, "ordering": null, "total_magnetization": 0.0, "total_magnetization_normalized_vol": null, "total_magnetization_normalized_formula_units": null, "num_magnetic_sites": null, "num_unique_magnetic_sites": null, "types_of_magnetic_species": null, "bulk_modulus": null, "shear_modulus": null, "universal_anisotropy": null, "homogeneous_poisson": null, "e_total": null, "e_ionic": null, "e_electronic": null, "n": null, "e_ij_max": null, "weighted_surface_energy_EV_PER_ANG2": null, "weighted_surface_energy": null, "weighted_work_function": null, "surface_anisotropy": null, "shape_factor": null, "has_reconstructed": null, "possible_species": null, "has_props": null, "theoretical": null, "database_IDs": null, "fields_not_requested": ["builder_meta", "nsites", "elements", "nelements", "composition", "composition_reduced", "chemsys", "symmetry", "property_name", "deprecated", "deprecation_reasons", "last_updated", "origins", "warnings", "task_ids", "uncorrected_energy_per_atom", "equilibrium_reaction_energy_per_atom", "decomposes_to", "xas", "grain_boundaries", "cbm", "vbm", "is_gap_direct", "is_metal", "es_source_calc_id", "bandstructure", "dos", "dos_energy_up", "dos_energy_down", "is_magnetic", "ordering", "total_magnetization_normalized_vol", "total_magnetization_normalized_formula_units", "num_magnetic_sites", "num_unique_magnetic_sites", "types_of_magnetic_species", "bulk_modulus", "shear_modulus", "universal_anisotropy", "homogeneous_poisson", "e_total", "e_ionic", "e_electronic", "n", "e_ij_max", "weighted_surface_energy_EV_PER_ANG2", "weighted_surface_energy", "weighted_work_function", "surface_anisotropy", "shape_factor", "has_reconstructed", "possible_species", "has_props", "theoretical", "database_IDs"]}