{"builder_meta": null, "nsites": null, "elements": null, "nelements": null, "composition": null, "composition_reduced": null, "formula_pretty": "ZrIr", "formula_anonymous": "AB", "chemsys": null, "volume": 146.60912144311544, "density": 12.841352541868668, "density_atomic": 18.32614018038943, "symmetry": null, "property_name": null, "material_id": "mp-568992", "deprecated": null, "deprecation_reasons": null, "last_updated": null, "origins": null, "warnings": null, "structure": {"@module": "pymatgen.core.structure", "@class": "Structure", "charge": 0, "lattice": {"matrix": [[3.40865767, 0.0, -0.58559703], [0.0, 4.31054524, 0.0], [-0.03927253, 0.0, 9.984790480000001]], "pbc": [true, true, true], "a": 3.4585937883473177, "b": 4.31054524, "c": 9.984867713751207, "alpha": 90.0, "beta": 99.97343851452915, "gamma": 90.0, "volume": 146.60912144311547}, "properties": {}, "sites": [{"species": [{"element": "Zr", "occu": 1}], "abc": [0.69497673, 0.75, 0.38995346000000003], "properties": {"magmom": 0.0}, "label": "Zr", "xyz": [2.3536233022295656, 3.23290893, 3.48662728604395]}, {"species": [{"element": "Zr", "occu": 1}], "abc": [0.43886069, 0.75, 0.87772038], "properties": {"magmom": 0.0}, "label": "Zr", "xyz": [1.461455557074831, 3.23290893, 8.506858577678234]}, {"species": [{"element": "Zr", "occu": 1}], "abc": [0.30502327, 0.25, 0.61004654], "properties": {"magmom": 0.0}, "label": "Zr", "xyz": [1.0157618377704347, 1.07763631, 5.912566163956052]}, {"species": [{"element": "Zr", "occu": 1}], "abc": [0.5611393100000001, 0.25, 0.12227962], "properties": {"magmom": 0.0}, "label": "Zr", "xyz": [1.9079295829251692, 1.07763631, 0.8923348723217686]}, {"species": [{"element": "Ir", "occu": 1}], "abc": [0.056364250000000005, 0.75, 0.1127315], "properties": {"magmom": -0.0}, "label": "Ir", "xyz": [0.18769918186060253, 3.23290893, 1.0925936705979427]}, {"species": [{"element": "Ir", "occu": 1}], "abc": [0.83246983, 0.75, 0.66494066], "properties": {"magmom": -0.0}, "label": "Ir", "xyz": [2.8114907690550264, 3.23290893, 6.1518013117203125]}, {"species": [{"element": "Ir", "occu": 1}], "abc": [0.94363575, 0.25, 0.887268499999999], "properties": {"magmom": -0.0}, "label": "Ir", "xyz": [3.181685958139398, 1.07763631, 8.306599779402049]}, {"species": [{"element": "Ir", "occu": 1}], "abc": [0.16753017, 0.25, 0.33505934], "properties": {"magmom": -0.0}, "label": "Ir", "xyz": [0.5578943709449737, 1.07763631, 3.247392138279688]}]}, "task_ids": null, "uncorrected_energy_per_atom": null, "energy_per_atom": -38.56383406625, "formation_energy_per_atom": -1.009261388750005, "energy_above_hull": 0.0, "is_stable": true, "equilibrium_reaction_energy_per_atom": null, "decomposes_to": null, "xas": null, "grain_boundaries": null, "band_gap": 0.0, "cbm": null, "vbm": null, "efermi": 6.33515088, "is_gap_direct": null, "is_metal": null, "es_source_calc_id": null, "bandstructure": null, "dos": null, "dos_energy_up": null, "dos_energy_down": null, "is_magnetic": null, "ordering": null, "total_magnetization": 2.7e-06, "total_magnetization_normalized_vol": null, "total_magnetization_normalized_formula_units": null, "num_magnetic_sites": null, "num_unique_magnetic_sites": null, "types_of_magnetic_species": null, "bulk_modulus": null, "shear_modulus": null, "universal_anisotropy": null, "homogeneous_poisson": null, "e_total": null, "e_ionic": null, "e_electronic": null, "n": null, "e_ij_max": null, "weighted_surface_energy_EV_PER_ANG2": null, "weighted_surface_energy": null, "weighted_work_function": null, "surface_anisotropy": null, "shape_factor": null, "has_reconstructed": null, "possible_species": null, "has_props": null, "theoretical": null, "database_IDs": null, "fields_not_requested": ["builder_meta", "nsites", "elements", "nelements", "composition", "composition_reduced", "chemsys", "symmetry", "property_name", "deprecated", "deprecation_reasons", "last_updated", "origins", "warnings", "task_ids", "uncorrected_energy_per_atom", "equilibrium_reaction_energy_per_atom", "decomposes_to", "xas", "grain_boundaries", "cbm", "vbm", "is_gap_direct", "is_metal", "es_source_calc_id", "bandstructure", "dos", "dos_energy_up", "dos_energy_down", "is_magnetic", "ordering", "total_magnetization_normalized_vol", "total_magnetization_normalized_formula_units", "num_magnetic_sites", "num_unique_magnetic_sites", "types_of_magnetic_species", "bulk_modulus", "shear_modulus", "universal_anisotropy", "homogeneous_poisson", "e_total", "e_ionic", "e_electronic", "n", "e_ij_max", "weighted_surface_energy_EV_PER_ANG2", "weighted_surface_energy", "weighted_work_function", "surface_anisotropy", "shape_factor", "has_reconstructed", "possible_species", "has_props", "theoretical", "database_IDs"]}