{
  "builder_meta": null,
  "nsites": null,
  "elements": null,
  "nelements": null,
  "composition": null,
  "composition_reduced": null,
  "formula_pretty": "ZrMn2",
  "formula_anonymous": "AB2",
  "chemsys": null,
  "volume": 99.36788513131872,
  "density": 6.721176671929122,
  "density_atomic": 16.56131418855312,
  "symmetry": null,
  "property_name": null,
  "material_id": "mp-2027032",
  "deprecated": null,
  "deprecation_reasons": null,
  "last_updated": null,
  "origins": null,
  "warnings": null,
  "structure": {
    "@module": "pymatgen.core.structure",
    "@class": "Structure",
    "charge": 0,
    "lattice": {
      "matrix": [
        [4.5845646, -3.5830000000000014e-5, 2.64680958],
        [1.52815481, 4.32232298, 2.646808049999999],
        [0.1074241, 0.07595934, 5.10755126]
      ],
      "pbc": [true, true, true],
      "a": 5.2937541995862185,
      "b": 5.293706255574351,
      "c": 5.109245505172132,
      "alpha": 58.799521831950315,
      "beta": 58.79979557698646,
      "gamma": 60.00099953478429,
      "volume": 99.3678851313187
    },
    "properties": {},
    "sites": [
      {
        "species": [{ "element": "Zr", "occu": 1 }],
        "abc": [0.3743608, 0.3743608, 0.37691698],
        "properties": { "magmom": -0.64 },
        "label": "Zr",
        "xyz": [2.328852495854346, 1.6467252403393131, 3.9068457269752983]
      },
      {
        "species": [{ "element": "Zr", "occu": 1 }],
        "abc": [0.6256392, 0.6256392, 0.62308302],
        "properties": { "magmom": -0.64 },
        "label": "Zr",
        "xyz": [3.891291014145654, 2.7515212496606867, 6.494323163024701]
      },
      {
        "species": [{ "element": "Mn", "occu": 1 }],
        "abc": [-0.0, 0.0, 0.0],
        "properties": { "magmom": 3.247 },
        "label": "Mn",
        "xyz": [0.0, 0.0, 0.0]
      },
      {
        "species": [{ "element": "Mn", "occu": 1 }],
        "abc": [-0.0, 0.0, 0.5],
        "properties": { "magmom": -3.294 },
        "label": "Mn",
        "xyz": [0.05371205, 0.03797967, 2.55377563]
      },
      {
        "species": [{ "element": "Mn", "occu": 1 }],
        "abc": [0.5, 0.0, 0.0],
        "properties": { "magmom": 3.247 },
        "label": "Mn",
        "xyz": [2.2922823, -1.7915000000000007e-5, 1.32340479]
      },
      {
        "species": [{ "element": "Mn", "occu": 1 }],
        "abc": [-0.0, 0.5, 0.0],
        "properties": { "magmom": 3.247 },
        "label": "Mn",
        "xyz": [0.764077405, 2.16116149, 1.3234040249999994]
      }
    ]
  },
  "task_ids": null,
  "uncorrected_energy_per_atom": null,
  "energy_per_atom": -17.605131906666667,
  "formation_energy_per_atom": -0.23297815465517102,
  "energy_above_hull": 0.0,
  "is_stable": true,
  "equilibrium_reaction_energy_per_atom": null,
  "decomposes_to": null,
  "xas": null,
  "grain_boundaries": null,
  "band_gap": 0.0,
  "cbm": null,
  "vbm": null,
  "efermi": 8.63674978,
  "is_gap_direct": null,
  "is_metal": null,
  "es_source_calc_id": null,
  "bandstructure": null,
  "dos": null,
  "dos_energy_up": null,
  "dos_energy_down": null,
  "is_magnetic": null,
  "ordering": null,
  "total_magnetization": 4.2603453,
  "total_magnetization_normalized_vol": null,
  "total_magnetization_normalized_formula_units": null,
  "num_magnetic_sites": null,
  "num_unique_magnetic_sites": null,
  "types_of_magnetic_species": null,
  "bulk_modulus": null,
  "shear_modulus": null,
  "universal_anisotropy": null,
  "homogeneous_poisson": null,
  "e_total": null,
  "e_ionic": null,
  "e_electronic": null,
  "n": null,
  "e_ij_max": null,
  "weighted_surface_energy_EV_PER_ANG2": null,
  "weighted_surface_energy": null,
  "weighted_work_function": null,
  "surface_anisotropy": null,
  "shape_factor": null,
  "has_reconstructed": null,
  "possible_species": null,
  "has_props": null,
  "theoretical": null,
  "database_IDs": null,
  "fields_not_requested": [
    "builder_meta",
    "nsites",
    "elements",
    "nelements",
    "composition",
    "composition_reduced",
    "chemsys",
    "symmetry",
    "property_name",
    "deprecated",
    "deprecation_reasons",
    "last_updated",
    "origins",
    "warnings",
    "task_ids",
    "uncorrected_energy_per_atom",
    "equilibrium_reaction_energy_per_atom",
    "decomposes_to",
    "xas",
    "grain_boundaries",
    "cbm",
    "vbm",
    "is_gap_direct",
    "is_metal",
    "es_source_calc_id",
    "bandstructure",
    "dos",
    "dos_energy_up",
    "dos_energy_down",
    "is_magnetic",
    "ordering",
    "total_magnetization_normalized_vol",
    "total_magnetization_normalized_formula_units",
    "num_magnetic_sites",
    "num_unique_magnetic_sites",
    "types_of_magnetic_species",
    "bulk_modulus",
    "shear_modulus",
    "universal_anisotropy",
    "homogeneous_poisson",
    "e_total",
    "e_ionic",
    "e_electronic",
    "n",
    "e_ij_max",
    "weighted_surface_energy_EV_PER_ANG2",
    "weighted_surface_energy",
    "weighted_work_function",
    "surface_anisotropy",
    "shape_factor",
    "has_reconstructed",
    "possible_species",
    "has_props",
    "theoretical",
    "database_IDs"
  ]
}
