{"builder_meta": null, "nsites": null, "elements": null, "nelements": null, "composition": null, "composition_reduced": null, "formula_pretty": "ZrMn3", "formula_anonymous": "AB3", "chemsys": null, "volume": 164.12429158274261, "density": 7.771451531156703, "density_atomic": 13.677024298561884, "symmetry": null, "property_name": null, "material_id": "mp-1215293", "deprecated": null, "deprecation_reasons": null, "last_updated": null, "origins": null, "warnings": null, "structure": {"@module": "pymatgen.core.structure", "@class": "Structure", "charge": 0, "lattice": {"matrix": [[2.435204, -4.217898, 0.0], [2.435204, 4.217898, 0.0], [0.0, 0.0, 7.98935]], "pbc": [true, true, true], "a": 4.870408818571599, "b": 4.870408818571599, "c": 7.98935, "alpha": 90.0, "beta": 90.0, "gamma": 120.0000111194484, "volume": 164.12429158274261}, "properties": {}, "sites": [{"species": [{"element": "Zr", "occu": 1}], "abc": [0.666667, 0.333333, 0.553453], "properties": {"magmom": -0.067}, "label": "Zr", "xyz": [2.435204, -1.4059688119320002, 4.42172972555]}, {"species": [{"element": "Zr", "occu": 1}], "abc": [0.666667, 0.333333, 0.935280999999999], "properties": {"magmom": -0.128}, "label": "Zr", "xyz": [2.435204, -1.4059688119320002, 7.4722872573499926]}, {"species": [{"element": "Zr", "occu": 1}], "abc": [0.0, 0.0, 0.073783], "properties": {"magmom": -0.10400000000000001}, "label": "Zr", "xyz": [0.0, 0.0, 0.58947821105]}, {"species": [{"element": "Mn", "occu": 1}], "abc": [0.333333, 0.666667, 0.501042], "properties": {"magmom": -0.308}, "label": "Mn", "xyz": [2.435204, 1.4059688119320002, 4.0029999027]}, {"species": [{"element": "Mn", "occu": 1}], "abc": [0.333333, 0.666667, 0.003294999999999], "properties": {"magmom": 1.126}, "label": "Mn", "xyz": [2.435204, 1.4059688119320002, 0.02632490824999201]}, {"species": [{"element": "Mn", "occu": 1}], "abc": [0.992267999999999, 0.496133999999999, 0.258004], "properties": {"magmom": 0.638}, "label": "Mn", "xyz": [3.6245625040079954, -2.0926426063320003, 2.0612842574]}, {"species": [{"element": "Mn", "occu": 1}], "abc": [0.503865999999999, 0.496133999999999, 0.258004], "properties": {"magmom": 0.613}, "label": "Mn", "xyz": [2.4352039999999953, -0.03261278733600026, 2.0612842574]}, {"species": [{"element": "Mn", "occu": 1}], "abc": [0.503865999999999, 0.007731999999999001, 0.258004], "properties": {"magmom": 0.603}, "label": "Mn", "xyz": [1.2458454959919953, -2.0926426063320003, 2.0612842574]}, {"species": [{"element": "Mn", "occu": 1}], "abc": [0.677057999999999, 0.838529, 0.742966999999999], "properties": {"magmom": 0.514}, "label": "Mn", "xyz": [3.6907635247479975, 0.6810682079580039, 5.935823401449992]}, {"species": [{"element": "Mn", "occu": 1}], "abc": [0.161471, 0.838529, 0.742966999999999], "properties": {"magmom": 0.494}, "label": "Mn", "xyz": [2.435204, 2.855761584084, 5.935823401449992]}, {"species": [{"element": "Mn", "occu": 1}], "abc": [0.161471, 0.322942, 0.742966999999999], "properties": {"magmom": 0.481}, "label": "Mn", "xyz": [1.1796444752520001, 0.681068207958, 5.935823401449992]}, {"species": [{"element": "Mn", "occu": 1}], "abc": [0.0, 0.0, 0.430284], "properties": {"magmom": -0.035}, "label": "Mn", "xyz": [0.0, 0.0, 3.4376894754]}]}, "task_ids": null, "uncorrected_energy_per_atom": null, "energy_per_atom": -9.061612781666666, "formation_energy_per_atom": -0.053176155114943, "energy_above_hull": 0.087385271350575, "is_stable": false, "equilibrium_reaction_energy_per_atom": null, "decomposes_to": null, "xas": null, "grain_boundaries": null, "band_gap": 0.0, "cbm": null, "vbm": null, "efermi": 5.58366957, "is_gap_direct": null, "is_metal": null, "es_source_calc_id": null, "bandstructure": null, "dos": null, "dos_energy_up": null, "dos_energy_down": null, "is_magnetic": null, "ordering": null, "total_magnetization": 3.7513328, "total_magnetization_normalized_vol": null, "total_magnetization_normalized_formula_units": null, "num_magnetic_sites": null, "num_unique_magnetic_sites": null, "types_of_magnetic_species": null, "bulk_modulus": null, "shear_modulus": null, "universal_anisotropy": null, "homogeneous_poisson": null, "e_total": null, "e_ionic": null, "e_electronic": null, "n": null, "e_ij_max": null, "weighted_surface_energy_EV_PER_ANG2": null, "weighted_surface_energy": null, "weighted_work_function": null, "surface_anisotropy": null, "shape_factor": null, "has_reconstructed": null, "possible_species": null, "has_props": null, "theoretical": null, "database_IDs": null, "fields_not_requested": ["builder_meta", "nsites", "elements", "nelements", "composition", "composition_reduced", "chemsys", "symmetry", "property_name", "deprecated", "deprecation_reasons", "last_updated", "origins", "warnings", "task_ids", "uncorrected_energy_per_atom", "equilibrium_reaction_energy_per_atom", "decomposes_to", "xas", "grain_boundaries", "cbm", "vbm", "is_gap_direct", "is_metal", "es_source_calc_id", "bandstructure", "dos", "dos_energy_up", "dos_energy_down", "is_magnetic", "ordering", "total_magnetization_normalized_vol", "total_magnetization_normalized_formula_units", "num_magnetic_sites", "num_unique_magnetic_sites", "types_of_magnetic_species", "bulk_modulus", "shear_modulus", "universal_anisotropy", "homogeneous_poisson", "e_total", "e_ionic", "e_electronic", "n", "e_ij_max", "weighted_surface_energy_EV_PER_ANG2", "weighted_surface_energy", "weighted_work_function", "surface_anisotropy", "shape_factor", "has_reconstructed", "possible_species", "has_props", "theoretical", "database_IDs"]}