{"builder_meta": null, "nsites": null, "elements": null, "nelements": null, "composition": null, "composition_reduced": null, "formula_pretty": "ZrMo2", "formula_anonymous": "AB2", "chemsys": null, "volume": 109.92433614629603, "density": 8.553251598173365, "density_atomic": 18.320722691049337, "symmetry": null, "property_name": null, "material_id": "mp-2049", "deprecated": null, "deprecation_reasons": null, "last_updated": null, "origins": null, "warnings": null, "structure": {"@module": "pymatgen.core.structure", "@class": "Structure", "charge": 0, "lattice": {"matrix": [[4.6565814, 8.51e-06, 2.68850356], [1.55220175, 4.39021907, 2.6885035200000003], [-2.299999999999999e-07, -2e-07, 5.37700851]], "pbc": [true, true, true], "a": 5.376969567240552, "b": 5.376932669500997, "c": 5.3770085100000085, "alpha": 59.99954528616513, "beta": 59.99977142166068, "gamma": 59.999449015291475, "volume": 109.92433614629603}, "properties": {}, "sites": [{"species": [{"element": "Zr", "occu": 1}], "abc": [0.12499314, 0.12499667, 0.12500549], "properties": {"magmom": -0.0}, "label": "Zr", "xyz": [0.7760607520185059, 0.5487638030110203, 1.3442540726755765]}, {"species": [{"element": "Zr", "occu": 1}], "abc": [0.87500686, 0.87500333, 0.8749945100000001], "properties": {"magmom": -0.0}, "label": "Zr", "xyz": [5.4327221679814945, 3.8414635769889793, 9.409761517324423]}, {"species": [{"element": "Mo", "occu": 1}], "abc": [0.0, 0.5, 0.5], "properties": {"magmom": -0.0}, "label": "Mo", "xyz": [0.7761007600000001, 2.195109435, 4.032756015]}, {"species": [{"element": "Mo", "occu": 1}], "abc": [0.5, -0.0, 0.5], "properties": {"magmom": -0.0}, "label": "Mo", "xyz": [2.328290585, 4.155e-06, 4.032756035]}, {"species": [{"element": "Mo", "occu": 1}], "abc": [0.5, 0.5, -0.0], "properties": {"magmom": 0.0}, "label": "Mo", "xyz": [3.104391575, 2.1951137899999997, 2.68850354]}, {"species": [{"element": "Mo", "occu": 1}], "abc": [0.5, 0.5, 0.5], "properties": {"magmom": -0.0}, "label": "Mo", "xyz": [3.10439146, 2.19511369, 5.377007795]}]}, "task_ids": null, "uncorrected_energy_per_atom": null, "energy_per_atom": -25.103676343333333, "formation_energy_per_atom": -0.13909274833333501, "energy_above_hull": 0.0, "is_stable": true, "equilibrium_reaction_energy_per_atom": null, "decomposes_to": null, "xas": null, "grain_boundaries": null, "band_gap": 0.0, "cbm": null, "vbm": null, "efermi": 6.28833499, "is_gap_direct": null, "is_metal": null, "es_source_calc_id": null, "bandstructure": null, "dos": null, "dos_energy_up": null, "dos_energy_down": null, "is_magnetic": null, "ordering": null, "total_magnetization": 2e-07, "total_magnetization_normalized_vol": null, "total_magnetization_normalized_formula_units": null, "num_magnetic_sites": null, "num_unique_magnetic_sites": null, "types_of_magnetic_species": null, "bulk_modulus": null, "shear_modulus": null, "universal_anisotropy": null, "homogeneous_poisson": null, "e_total": null, "e_ionic": null, "e_electronic": null, "n": null, "e_ij_max": null, "weighted_surface_energy_EV_PER_ANG2": null, "weighted_surface_energy": null, "weighted_work_function": null, "surface_anisotropy": null, "shape_factor": null, "has_reconstructed": null, "possible_species": null, "has_props": null, "theoretical": null, "database_IDs": null, "fields_not_requested": ["builder_meta", "nsites", "elements", "nelements", "composition", "composition_reduced", "chemsys", "symmetry", "property_name", "deprecated", "deprecation_reasons", "last_updated", "origins", "warnings", "task_ids", "uncorrected_energy_per_atom", "equilibrium_reaction_energy_per_atom", "decomposes_to", "xas", "grain_boundaries", "cbm", "vbm", "is_gap_direct", "is_metal", "es_source_calc_id", "bandstructure", "dos", "dos_energy_up", "dos_energy_down", "is_magnetic", "ordering", "total_magnetization_normalized_vol", "total_magnetization_normalized_formula_units", "num_magnetic_sites", "num_unique_magnetic_sites", "types_of_magnetic_species", "bulk_modulus", "shear_modulus", "universal_anisotropy", "homogeneous_poisson", "e_total", "e_ionic", "e_electronic", "n", "e_ij_max", "weighted_surface_energy_EV_PER_ANG2", "weighted_surface_energy", "weighted_work_function", "surface_anisotropy", "shape_factor", "has_reconstructed", "possible_species", "has_props", "theoretical", "database_IDs"]}