{"builder_meta": null, "nsites": null, "elements": null, "nelements": null, "composition": null, "composition_reduced": null, "formula_pretty": "ZrNi3", "formula_anonymous": "AB3", "chemsys": null, "volume": 102.46839176816518, "density": 8.663531438465704, "density_atomic": 12.808548971020647, "symmetry": null, "property_name": null, "material_id": "mp-485", "deprecated": null, "deprecation_reasons": null, "last_updated": null, "origins": null, "warnings": null, "structure": {"@module": "pymatgen.core.structure", "@class": "Structure", "charge": 0, "lattice": {"matrix": [[5.26463149, 0.0, -0.0], [-2.63231524, 4.55930375, -0.0], [0.0, -0.0, 4.26897308]], "pbc": [true, true, true], "a": 5.26463149, "b": 5.264630491069655, "c": 4.26897308, "alpha": 90.0, "beta": 90.0, "gamma": 119.99999993044503, "volume": 102.46839176816518}, "properties": {}, "sites": [{"species": [{"element": "Zr", "occu": 1}], "abc": [0.666667, 0.333333, 0.75], "properties": {"magmom": 0.0}, "label": "Zr", "xyz": [2.63231854564891, 1.5197663968987498, 3.2017298100000002]}, {"species": [{"element": "Zr", "occu": 1}], "abc": [0.333333, 0.666667, 0.25], "properties": {"magmom": 0.0}, "label": "Zr", "xyz": [-2.29564891007783e-06, 3.0395373531012497, 1.06724327]}, {"species": [{"element": "Ni", "occu": 1}], "abc": [0.15586772000000002, 0.31173745, 0.75], "properties": {"magmom": -0.0}, "label": "Ni", "xyz": [-5.133527235190449e-06, 1.4213057248004375, 3.2017298100000002]}, {"species": [{"element": "Ni", "occu": 1}], "abc": [0.8441322800000001, 0.15586772000000002, 0.25], "properties": {"magmom": -0.0}, "label": "Ni", "xyz": [4.033752408233444, 0.7106482802999501, 1.06724327]}, {"species": [{"element": "Ni", "occu": 1}], "abc": [0.8441322800000001, 0.68826255, 0.25], "properties": {"magmom": -0.0}, "label": "Ni", "xyz": [2.632321383527235, 3.1379980251995625, 1.06724327]}, {"species": [{"element": "Ni", "occu": 1}], "abc": [0.15586772000000002, 0.8441322800000001, 0.75], "properties": {"magmom": -0.0}, "label": "Ni", "xyz": [-1.4014361582334445, 3.84865546970005, 3.2017298100000002]}, {"species": [{"element": "Ni", "occu": 1}], "abc": [0.68826255, 0.8441322800000001, 0.75], "properties": {"magmom": -0.0}, "label": "Ni", "xyz": [1.4014264288977527, 3.84865546970005, 3.2017298100000002]}, {"species": [{"element": "Ni", "occu": 1}], "abc": [0.31173745, 0.15586772000000002, 0.25], "properties": {"magmom": -0.0}, "label": "Ni", "xyz": [1.2308898211022479, 0.7106482802999501, 1.06724327]}]}, "task_ids": null, "uncorrected_energy_per_atom": null, "energy_per_atom": -6.930483191249998, "formation_energy_per_atom": -0.45845552374999704, "energy_above_hull": 0.0, "is_stable": true, "equilibrium_reaction_energy_per_atom": null, "decomposes_to": null, "xas": null, "grain_boundaries": null, "band_gap": 0.0, "cbm": null, "vbm": null, "efermi": 7.05418019, "is_gap_direct": null, "is_metal": null, "es_source_calc_id": null, "bandstructure": null, "dos": null, "dos_energy_up": null, "dos_energy_down": null, "is_magnetic": null, "ordering": null, "total_magnetization": 1e-07, "total_magnetization_normalized_vol": null, "total_magnetization_normalized_formula_units": null, "num_magnetic_sites": null, "num_unique_magnetic_sites": null, "types_of_magnetic_species": null, "bulk_modulus": null, "shear_modulus": null, "universal_anisotropy": null, "homogeneous_poisson": null, "e_total": null, "e_ionic": null, "e_electronic": null, "n": null, "e_ij_max": null, "weighted_surface_energy_EV_PER_ANG2": null, "weighted_surface_energy": null, "weighted_work_function": null, "surface_anisotropy": null, "shape_factor": null, "has_reconstructed": null, "possible_species": null, "has_props": null, "theoretical": null, "database_IDs": null, "fields_not_requested": ["builder_meta", "nsites", "elements", "nelements", "composition", "composition_reduced", "chemsys", "symmetry", "property_name", "deprecated", "deprecation_reasons", "last_updated", "origins", "warnings", "task_ids", "uncorrected_energy_per_atom", "equilibrium_reaction_energy_per_atom", "decomposes_to", "xas", "grain_boundaries", "cbm", "vbm", "is_gap_direct", "is_metal", "es_source_calc_id", "bandstructure", "dos", "dos_energy_up", "dos_energy_down", "is_magnetic", "ordering", "total_magnetization_normalized_vol", "total_magnetization_normalized_formula_units", "num_magnetic_sites", "num_unique_magnetic_sites", "types_of_magnetic_species", "bulk_modulus", "shear_modulus", "universal_anisotropy", "homogeneous_poisson", "e_total", "e_ionic", "e_electronic", "n", "e_ij_max", "weighted_surface_energy_EV_PER_ANG2", "weighted_surface_energy", "weighted_work_function", "surface_anisotropy", "shape_factor", "has_reconstructed", "possible_species", "has_props", "theoretical", "database_IDs"]}