{
  "builder_meta": null,
  "nsites": null,
  "elements": null,
  "nelements": null,
  "composition": null,
  "composition_reduced": null,
  "formula_pretty": "ZrNi5",
  "formula_anonymous": "AB5",
  "chemsys": null,
  "volume": 73.44154806950259,
  "density": 8.697997943410549,
  "density_atomic": 12.240258011583764,
  "symmetry": null,
  "property_name": null,
  "material_id": "mp-2439",
  "deprecated": null,
  "deprecation_reasons": null,
  "last_updated": null,
  "origins": null,
  "warnings": null,
  "structure": {
    "@module": "pymatgen.core.structure",
    "@class": "Structure",
    "charge": 0,
    "lattice": {
      "matrix": [
        [4.07079276, -0.00011968, 2.35007436],
        [1.35681767, 3.83801643, 2.35007457],
        [-0.00016578, -0.00011719000000000001, 4.70043686]
      ],
      "pbc": [true, true, true],
      "a": 4.700447128382695,
      "b": 4.70044410573457,
      "c": 4.7004368643843275,
      "alpha": 60.00409616650893,
      "beta": 60.00412078486508,
      "gamma": 60.00413310715501,
      "volume": 73.44154806950259
    },
    "properties": {},
    "sites": [
      {
        "species": [{ "element": "Zr", "occu": 1 }],
        "abc": [0.9999984, -5.1e-7, 1.8e-7],
        "properties": { "magmom": 0.136 },
        "label": "Zr",
        "xyz": [4.070785554724732, -0.0001216372179855, 2.3500702474216277]
      },
      {
        "species": [{ "element": "Ni", "occu": 1 }],
        "abc": [0.25000598, 0.25000207, 0.249996],
        "properties": { "magmom": -0.7000000000000001 },
        "label": "Ni",
        "xyz": [1.3568883151164017, 0.9594528344470838, 2.3501465638515926]
      },
      {
        "species": [{ "element": "Ni", "occu": 1 }],
        "abc": [0.62346801, 0.62346949, 0.62347044],
        "properties": { "magmom": -0.295 },
        "label": "Ni",
        "xyz": [3.3838401230079524, 2.39273846507142, 5.860979415497511]
      },
      {
        "species": [{ "element": "Ni", "occu": 1 }],
        "abc": [0.623472599999999, 0.62347323, 0.1295827],
        "properties": { "magmom": -0.295 },
        "label": "Ni",
        "xyz": [3.38394575915434, 2.392810697407788, 3.5395108538196167]
      },
      {
        "species": [{ "element": "Ni", "occu": 1 }],
        "abc": [0.12958075, 0.6234732, 0.62347412],
        "properties": { "magmom": -0.295 },
        "label": "Ni",
        "xyz": [1.3733324739272004, 2.392811812108393, 4.700333645425157]
      },
      {
        "species": [{ "element": "Ni", "occu": 1 }],
        "abc": [0.62347227, 0.12958151, 0.62347456],
        "properties": { "magmom": -0.295 },
        "label": "Ni",
        "xyz": [2.71374152563749, 0.4971882822592493, 4.700335210387479]
      }
    ]
  },
  "task_ids": null,
  "uncorrected_energy_per_atom": null,
  "energy_per_atom": -6.5613642,
  "formation_energy_per_atom": -0.31996686166666505,
  "energy_above_hull": 0.0005126866666670001,
  "is_stable": false,
  "equilibrium_reaction_energy_per_atom": null,
  "decomposes_to": null,
  "xas": null,
  "grain_boundaries": null,
  "band_gap": 0.0,
  "cbm": null,
  "vbm": null,
  "efermi": 6.98916686,
  "is_gap_direct": null,
  "is_metal": null,
  "es_source_calc_id": null,
  "bandstructure": null,
  "dos": null,
  "dos_energy_up": null,
  "dos_energy_down": null,
  "is_magnetic": null,
  "ordering": null,
  "total_magnetization": 1.4695116,
  "total_magnetization_normalized_vol": null,
  "total_magnetization_normalized_formula_units": null,
  "num_magnetic_sites": null,
  "num_unique_magnetic_sites": null,
  "types_of_magnetic_species": null,
  "bulk_modulus": null,
  "shear_modulus": null,
  "universal_anisotropy": null,
  "homogeneous_poisson": null,
  "e_total": null,
  "e_ionic": null,
  "e_electronic": null,
  "n": null,
  "e_ij_max": null,
  "weighted_surface_energy_EV_PER_ANG2": null,
  "weighted_surface_energy": null,
  "weighted_work_function": null,
  "surface_anisotropy": null,
  "shape_factor": null,
  "has_reconstructed": null,
  "possible_species": null,
  "has_props": null,
  "theoretical": null,
  "database_IDs": null,
  "fields_not_requested": [
    "builder_meta",
    "nsites",
    "elements",
    "nelements",
    "composition",
    "composition_reduced",
    "chemsys",
    "symmetry",
    "property_name",
    "deprecated",
    "deprecation_reasons",
    "last_updated",
    "origins",
    "warnings",
    "task_ids",
    "uncorrected_energy_per_atom",
    "equilibrium_reaction_energy_per_atom",
    "decomposes_to",
    "xas",
    "grain_boundaries",
    "cbm",
    "vbm",
    "is_gap_direct",
    "is_metal",
    "es_source_calc_id",
    "bandstructure",
    "dos",
    "dos_energy_up",
    "dos_energy_down",
    "is_magnetic",
    "ordering",
    "total_magnetization_normalized_vol",
    "total_magnetization_normalized_formula_units",
    "num_magnetic_sites",
    "num_unique_magnetic_sites",
    "types_of_magnetic_species",
    "bulk_modulus",
    "shear_modulus",
    "universal_anisotropy",
    "homogeneous_poisson",
    "e_total",
    "e_ionic",
    "e_electronic",
    "n",
    "e_ij_max",
    "weighted_surface_energy_EV_PER_ANG2",
    "weighted_surface_energy",
    "weighted_work_function",
    "surface_anisotropy",
    "shape_factor",
    "has_reconstructed",
    "possible_species",
    "has_props",
    "theoretical",
    "database_IDs"
  ]
}
