{
  "builder_meta": null,
  "nsites": null,
  "elements": null,
  "nelements": null,
  "composition": null,
  "composition_reduced": null,
  "formula_pretty": "ZrNi",
  "formula_anonymous": "AB",
  "chemsys": null,
  "volume": 66.13570976945574,
  "density": 7.528268777363949,
  "density_atomic": 16.533927442363936,
  "symmetry": null,
  "property_name": null,
  "material_id": "mp-556",
  "deprecated": null,
  "deprecation_reasons": null,
  "last_updated": null,
  "origins": null,
  "warnings": null,
  "structure": {
    "@module": "pymatgen.core.structure",
    "@class": "Structure",
    "charge": 0,
    "lattice": {
      "matrix": [
        [3.09921552, 0.0, -1.01924493],
        [0.0, 4.03722639, 0.0],
        [0.01904452, 0.0, 5.27942008]
      ],
      "pbc": [true, true, true],
      "a": 3.262513918244576,
      "b": 4.03722639,
      "c": 5.279454429659303,
      "alpha": 90.0,
      "beta": 107.99790021431954,
      "gamma": 90.0,
      "volume": 66.13570976945574
    },
    "properties": {},
    "sites": [
      {
        "species": [{ "element": "Zr", "occu": 1 }],
        "abc": [0.63782969, 0.25, 0.27565939],
        "properties": { "magmom": -0.0 },
        "label": "Zr",
        "xyz": [1.9820214751308316, 1.0093065975, 0.8052170410705796]
      },
      {
        "species": [{ "element": "Zr", "occu": 1 }],
        "abc": [0.36217031, 0.75, 0.72434061],
        "properties": { "magmom": -0.0 },
        "label": "Zr",
        "xyz": [1.1362385648691684, 3.0279197924999997, 3.454958108929421]
      },
      {
        "species": [{ "element": "Ni", "occu": 1 }],
        "abc": [0.91682797, 0.25, 0.83365794],
        "properties": { "magmom": -0.0 },
        "label": "Ni",
        "xyz": [2.8573240891055836, 1.0093065975, 3.4667582081827435]
      },
      {
        "species": [{ "element": "Ni", "occu": 1 }],
        "abc": [0.08317203000000001, 0.75, 0.16634206],
        "properties": { "magmom": -0.0 },
        "label": "Ni",
        "xyz": [0.2609359508944168, 3.0279197924999997, 0.793416941817257]
      }
    ]
  },
  "task_ids": null,
  "uncorrected_energy_per_atom": null,
  "energy_per_atom": -7.619652365,
  "formation_energy_per_atom": -0.45573371,
  "energy_above_hull": 0.0,
  "is_stable": true,
  "equilibrium_reaction_energy_per_atom": null,
  "decomposes_to": null,
  "xas": null,
  "grain_boundaries": null,
  "band_gap": 0.0,
  "cbm": null,
  "vbm": null,
  "efermi": 5.74414007,
  "is_gap_direct": null,
  "is_metal": null,
  "es_source_calc_id": null,
  "bandstructure": null,
  "dos": null,
  "dos_energy_up": null,
  "dos_energy_down": null,
  "is_magnetic": null,
  "ordering": null,
  "total_magnetization": 0.0,
  "total_magnetization_normalized_vol": null,
  "total_magnetization_normalized_formula_units": null,
  "num_magnetic_sites": null,
  "num_unique_magnetic_sites": null,
  "types_of_magnetic_species": null,
  "bulk_modulus": null,
  "shear_modulus": null,
  "universal_anisotropy": null,
  "homogeneous_poisson": null,
  "e_total": null,
  "e_ionic": null,
  "e_electronic": null,
  "n": null,
  "e_ij_max": null,
  "weighted_surface_energy_EV_PER_ANG2": null,
  "weighted_surface_energy": null,
  "weighted_work_function": null,
  "surface_anisotropy": null,
  "shape_factor": null,
  "has_reconstructed": null,
  "possible_species": null,
  "has_props": null,
  "theoretical": null,
  "database_IDs": null,
  "fields_not_requested": [
    "builder_meta",
    "nsites",
    "elements",
    "nelements",
    "composition",
    "composition_reduced",
    "chemsys",
    "symmetry",
    "property_name",
    "deprecated",
    "deprecation_reasons",
    "last_updated",
    "origins",
    "warnings",
    "task_ids",
    "uncorrected_energy_per_atom",
    "equilibrium_reaction_energy_per_atom",
    "decomposes_to",
    "xas",
    "grain_boundaries",
    "cbm",
    "vbm",
    "is_gap_direct",
    "is_metal",
    "es_source_calc_id",
    "bandstructure",
    "dos",
    "dos_energy_up",
    "dos_energy_down",
    "is_magnetic",
    "ordering",
    "total_magnetization_normalized_vol",
    "total_magnetization_normalized_formula_units",
    "num_magnetic_sites",
    "num_unique_magnetic_sites",
    "types_of_magnetic_species",
    "bulk_modulus",
    "shear_modulus",
    "universal_anisotropy",
    "homogeneous_poisson",
    "e_total",
    "e_ionic",
    "e_electronic",
    "n",
    "e_ij_max",
    "weighted_surface_energy_EV_PER_ANG2",
    "weighted_surface_energy",
    "weighted_work_function",
    "surface_anisotropy",
    "shape_factor",
    "has_reconstructed",
    "possible_species",
    "has_props",
    "theoretical",
    "database_IDs"
  ]
}
