{
  "builder_meta": null,
  "nsites": null,
  "elements": null,
  "nelements": null,
  "composition": null,
  "composition_reduced": null,
  "formula_pretty": "ZrO2",
  "formula_anonymous": "AB2",
  "chemsys": null,
  "volume": 141.66836532722778,
  "density": 5.777331384412114,
  "density_atomic": 11.805697110602315,
  "symmetry": null,
  "property_name": null,
  "material_id": "mp-2858",
  "deprecated": null,
  "deprecation_reasons": null,
  "last_updated": null,
  "origins": null,
  "warnings": null,
  "structure": {
    "@module": "pymatgen.core.structure",
    "@class": "Structure",
    "charge": 0,
    "lattice": {
      "matrix": [
        [5.08507902, 0.0, -0.8399773700000001],
        [0.0, 5.22810872, 0.0],
        [-0.00532399, 0.0, 5.3296935]
      ],
      "pbc": [true, true, true],
      "a": 5.1539878367877705,
      "b": 5.22810872,
      "c": 5.329696159145639,
      "alpha": 90.0,
      "beta": 99.43692258379697,
      "gamma": 90.0,
      "volume": 141.66836532722778
    },
    "properties": {},
    "sites": [
      {
        "species": [{ "element": "Zr", "occu": 1 }],
        "abc": [0.72369083, 0.95785343, 0.79040241],
        "properties": { "magmom": -0.0 },
        "label": "Zr",
        "xyz": [3.6758169620725707, 5.007761869864909, 3.6047186668848177]
      },
      {
        "species": [{ "element": "Zr", "occu": 1 }],
        "abc": [0.72369083, 0.54214657, 0.29040241],
        "properties": { "magmom": -0.0 },
        "label": "Zr",
        "xyz": [3.6784789570725707, 2.8344012101350904, 0.939871916884818]
      },
      {
        "species": [{ "element": "Zr", "occu": 1 }],
        "abc": [0.27630917, 0.45785343, 0.70959759],
        "properties": { "magmom": -0.0 },
        "label": "Zr",
        "xyz": [1.4012760729274294, 2.3937075098649094, 3.5498442131151826]
      },
      {
        "species": [{ "element": "Zr", "occu": 1 }],
        "abc": [0.27630917, 0.04214657, 0.20959759],
        "properties": { "magmom": -0.0 },
        "label": "Zr",
        "xyz": [1.4039380679274294, 0.2203468501350904, 0.8849974631151821]
      },
      {
        "species": [{ "element": "O", "occu": 1 }],
        "abc": [0.0692086, 0.16628806000000002, 0.84382813],
        "properties": { "magmom": 0.0 },
        "label": "O",
        "xyz": [0.34743866733773326, 0.8693720565178833, 4.4392116417687735]
      },
      {
        "species": [{ "element": "O", "occu": 1 }],
        "abc": [0.0692086, 0.33371194, 0.34382813],
        "properties": { "magmom": 0.0 },
        "label": "O",
        "xyz": [0.35010066233773324, 1.7446823034821166, 1.774364891768773]
      },
      {
        "species": [{ "element": "O", "occu": 1 }],
        "abc": [0.5506969700000001, 0.25742044000000003, 0.021395670000000002],
        "properties": { "magmom": 0.0 },
        "label": "O",
        "xyz": [2.8002236981914463, 1.345822047070237, -0.348540629200424]
      },
      {
        "species": [{ "element": "O", "occu": 1 }],
        "abc": [0.44930303, 0.75742044, 0.47860433],
        "properties": { "magmom": 0.0 },
        "label": "O",
        "xyz": [2.282193326808554, 3.9598764070702366, 2.1734100092004245]
      },
      {
        "species": [{ "element": "O", "occu": 1 }],
        "abc": [0.5506969700000001, 0.24257956, 0.52139567],
        "properties": { "magmom": 0.0 },
        "label": "O",
        "xyz": [2.7975617031914464, 1.2682323129297632, 2.3163061207995757]
      },
      {
        "species": [{ "element": "O", "occu": 1 }],
        "abc": [0.44930303, 0.74257956, 0.97860433],
        "properties": { "magmom": 0.0 },
        "label": "O",
        "xyz": [2.279531331808554, 3.882286672929763, 4.838256759200424]
      },
      {
        "species": [{ "element": "O", "occu": 1 }],
        "abc": [0.930791399999999, 0.66628806, 0.65617187],
        "properties": { "magmom": 0.0 },
        "label": "O",
        "xyz": [4.729654367662262, 3.483426416517883, 2.7153512382312277]
      },
      {
        "species": [{ "element": "O", "occu": 1 }],
        "abc": [0.930791399999999, 0.83371194, 0.15617187],
        "properties": { "magmom": 0.0 },
        "label": "O",
        "xyz": [4.732316362662262, 4.358736663482117, 0.05050448823122777]
      }
    ]
  },
  "task_ids": null,
  "uncorrected_energy_per_atom": null,
  "energy_per_atom": -9.961491968333332,
  "formation_energy_per_atom": -3.813617754999999,
  "energy_above_hull": 0.0,
  "is_stable": true,
  "equilibrium_reaction_energy_per_atom": null,
  "decomposes_to": null,
  "xas": null,
  "grain_boundaries": null,
  "band_gap": 3.5322,
  "cbm": null,
  "vbm": null,
  "efermi": 2.69810887,
  "is_gap_direct": null,
  "is_metal": null,
  "es_source_calc_id": null,
  "bandstructure": null,
  "dos": null,
  "dos_energy_up": null,
  "dos_energy_down": null,
  "is_magnetic": null,
  "ordering": null,
  "total_magnetization": 0.0,
  "total_magnetization_normalized_vol": null,
  "total_magnetization_normalized_formula_units": null,
  "num_magnetic_sites": null,
  "num_unique_magnetic_sites": null,
  "types_of_magnetic_species": null,
  "bulk_modulus": null,
  "shear_modulus": null,
  "universal_anisotropy": null,
  "homogeneous_poisson": null,
  "e_total": null,
  "e_ionic": null,
  "e_electronic": null,
  "n": null,
  "e_ij_max": null,
  "weighted_surface_energy_EV_PER_ANG2": null,
  "weighted_surface_energy": null,
  "weighted_work_function": null,
  "surface_anisotropy": null,
  "shape_factor": null,
  "has_reconstructed": null,
  "possible_species": null,
  "has_props": null,
  "theoretical": null,
  "database_IDs": null,
  "fields_not_requested": [
    "builder_meta",
    "nsites",
    "elements",
    "nelements",
    "composition",
    "composition_reduced",
    "chemsys",
    "symmetry",
    "property_name",
    "deprecated",
    "deprecation_reasons",
    "last_updated",
    "origins",
    "warnings",
    "task_ids",
    "uncorrected_energy_per_atom",
    "equilibrium_reaction_energy_per_atom",
    "decomposes_to",
    "xas",
    "grain_boundaries",
    "cbm",
    "vbm",
    "is_gap_direct",
    "is_metal",
    "es_source_calc_id",
    "bandstructure",
    "dos",
    "dos_energy_up",
    "dos_energy_down",
    "is_magnetic",
    "ordering",
    "total_magnetization_normalized_vol",
    "total_magnetization_normalized_formula_units",
    "num_magnetic_sites",
    "num_unique_magnetic_sites",
    "types_of_magnetic_species",
    "bulk_modulus",
    "shear_modulus",
    "universal_anisotropy",
    "homogeneous_poisson",
    "e_total",
    "e_ionic",
    "e_electronic",
    "n",
    "e_ij_max",
    "weighted_surface_energy_EV_PER_ANG2",
    "weighted_surface_energy",
    "weighted_work_function",
    "surface_anisotropy",
    "shape_factor",
    "has_reconstructed",
    "possible_species",
    "has_props",
    "theoretical",
    "database_IDs"
  ]
}
