{"builder_meta": null, "nsites": null, "elements": null, "nelements": null, "composition": null, "composition_reduced": null, "formula_pretty": "ZrOs2", "formula_anonymous": "AB2", "chemsys": null, "volume": 201.7940994936157, "density": 15.525720743186238, "density_atomic": 16.81617495780131, "symmetry": null, "property_name": null, "material_id": "mp-570684", "deprecated": null, "deprecation_reasons": null, "last_updated": null, "origins": null, "warnings": null, "structure": {"@module": "pymatgen.core.structure", "@class": "Structure", "charge": 0, "lattice": {"matrix": [[5.2087459, -1e-08, 0.0], [-2.60437446, 4.5109071400000005, 0.0], [-0.0, -0.0, 8.58838303]], "pbc": [true, true, true], "a": 5.2087459, "b": 5.208747407352681, "c": 8.58838303, "alpha": 90.0, "beta": 90.0, "gamma": 120.00000971652625, "volume": 201.79409949361573}, "properties": {}, "sites": [{"species": [{"element": "Zr", "occu": 1}], "abc": [0.333333, 0.666667, 0.06685797], "properties": {"magmom": 0.0}, "label": "Zr", "xyz": [-3.6110401198108377e-06, 3.0072729269690504, 0.574201854968249]}, {"species": [{"element": "Zr", "occu": 1}], "abc": [0.333333, 0.666667, 0.43314203], "properties": {"magmom": 0.0}, "label": "Zr", "xyz": [-3.6110401198108377e-06, 3.0072729269690504, 3.7199896600317506]}, {"species": [{"element": "Zr", "occu": 1}], "abc": [0.666667, 0.333333, 0.56685797], "properties": {"magmom": 0.0}, "label": "Zr", "xyz": [2.6043750510401202, 1.50363420303095, 4.868393369968249]}, {"species": [{"element": "Zr", "occu": 1}], "abc": [0.666667, 0.333333, 0.9331420300000001], "properties": {"magmom": 0.0}, "label": "Zr", "xyz": [2.6043750510401202, 1.50363420303095, 8.014181175031752]}, {"species": [{"element": "Os", "occu": 1}], "abc": [0.172442799999999, 0.344885599999999, 0.75], "properties": {"magmom": -0.0}, "label": "Os", "xyz": [-5.2077725842814e-07, 1.5557469137987519, 6.441287272499999]}, {"species": [{"element": "Os", "occu": 1}], "abc": [0.172442799999999, 0.8275572, 0.75], "properties": {"magmom": -0.0}, "label": "Os", "xyz": [-1.2570581083845966, 3.73303368051398, 6.441287272499999]}, {"species": [{"element": "Os", "occu": 1}], "abc": [0.344885599999999, 0.172442799999999, 0.25], "properties": {"magmom": -0.0}, "label": "Os", "xyz": [1.3473158308381494, 0.7778734543127316, 2.1470957575]}, {"species": [{"element": "Os", "occu": 1}], "abc": [0.8275572, 0.6551144, 0.25], "properties": {"magmom": -0.0}, "label": "Os", "xyz": [2.604371960777256, 2.9551602162012442, 2.1470957575]}, {"species": [{"element": "Os", "occu": 1}], "abc": [0.0, -0.0, 0.0], "properties": {"magmom": 0.0}, "label": "Os", "xyz": [0.0, 0.0, 0.0]}, {"species": [{"element": "Os", "occu": 1}], "abc": [0.6551144, 0.8275572, 0.75], "properties": {"magmom": -0.0}, "label": "Os", "xyz": [1.2570556091618483, 3.733033675687264, 6.441287272499999]}, {"species": [{"element": "Os", "occu": 1}], "abc": [0.8275572, 0.172442799999999, 0.25], "properties": {"magmom": -0.0}, "label": "Os", "xyz": [3.8614295483845944, 0.7778734494860156, 2.1470957575]}, {"species": [{"element": "Os", "occu": 1}], "abc": [0.0, -0.0, 0.5], "properties": {"magmom": 0.0}, "label": "Os", "xyz": [0.0, 0.0, 4.294191515]}]}, "task_ids": null, "uncorrected_energy_per_atom": null, "energy_per_atom": -43.359796958333334, "formation_energy_per_atom": -0.45304709000000304, "energy_above_hull": 0.0, "is_stable": true, "equilibrium_reaction_energy_per_atom": null, "decomposes_to": null, "xas": null, "grain_boundaries": null, "band_gap": 0.0, "cbm": null, "vbm": null, "efermi": 6.7584591, "is_gap_direct": null, "is_metal": null, "es_source_calc_id": null, "bandstructure": null, "dos": null, "dos_energy_up": null, "dos_energy_down": null, "is_magnetic": null, "ordering": null, "total_magnetization": 2e-07, "total_magnetization_normalized_vol": null, "total_magnetization_normalized_formula_units": null, "num_magnetic_sites": null, "num_unique_magnetic_sites": null, "types_of_magnetic_species": null, "bulk_modulus": null, "shear_modulus": null, "universal_anisotropy": null, "homogeneous_poisson": null, "e_total": null, "e_ionic": null, "e_electronic": null, "n": null, "e_ij_max": null, "weighted_surface_energy_EV_PER_ANG2": null, "weighted_surface_energy": null, "weighted_work_function": null, "surface_anisotropy": null, "shape_factor": null, "has_reconstructed": null, "possible_species": null, "has_props": null, "theoretical": null, "database_IDs": null, "fields_not_requested": ["builder_meta", "nsites", "elements", "nelements", "composition", "composition_reduced", "chemsys", "symmetry", "property_name", "deprecated", "deprecation_reasons", "last_updated", "origins", "warnings", "task_ids", "uncorrected_energy_per_atom", "equilibrium_reaction_energy_per_atom", "decomposes_to", "xas", "grain_boundaries", "cbm", "vbm", "is_gap_direct", "is_metal", "es_source_calc_id", "bandstructure", "dos", "dos_energy_up", "dos_energy_down", "is_magnetic", "ordering", "total_magnetization_normalized_vol", "total_magnetization_normalized_formula_units", "num_magnetic_sites", "num_unique_magnetic_sites", "types_of_magnetic_species", "bulk_modulus", "shear_modulus", "universal_anisotropy", "homogeneous_poisson", "e_total", "e_ionic", "e_electronic", "n", "e_ij_max", "weighted_surface_energy_EV_PER_ANG2", "weighted_surface_energy", "weighted_work_function", "surface_anisotropy", "shape_factor", "has_reconstructed", "possible_species", "has_props", "theoretical", "database_IDs"]}