{"builder_meta": null, "nsites": null, "elements": null, "nelements": null, "composition": null, "composition_reduced": null, "formula_pretty": "ZrP2", "formula_anonymous": "AB2", "chemsys": null, "volume": 202.1997789609287, "density": 5.031603907772961, "density_atomic": 16.849981580077394, "symmetry": null, "property_name": null, "material_id": "mp-1523", "deprecated": null, "deprecation_reasons": null, "last_updated": null, "origins": null, "warnings": null, "structure": {"@module": "pymatgen.core.structure", "@class": "Structure", "charge": 0, "lattice": {"matrix": [[3.52562158, 0.0, 0.0], [-0.0, 6.52591046, 0.0], [0.0, 0.0, 8.78827969]], "pbc": [true, true, true], "a": 3.52562158, "b": 6.52591046, "c": 8.78827969, "alpha": 90.0, "beta": 90.0, "gamma": 90.0, "volume": 202.1997789609287}, "properties": {}, "sites": [{"species": [{"element": "Zr", "occu": 1}], "abc": [0.25, 0.78115217, 0.33705528], "properties": {"magmom": -0.0}, "label": "Zr", "xyz": [0.881405395, 5.0977291170546986, 2.9621360716312632]}, {"species": [{"element": "Zr", "occu": 1}], "abc": [0.75, 0.21884783, 0.66294472], "properties": {"magmom": -0.0}, "label": "Zr", "xyz": [2.6442161850000003, 1.4281813429453019, 5.826143618368737]}, {"species": [{"element": "Zr", "occu": 1}], "abc": [0.25, 0.28115217, 0.16294472000000002], "properties": {"magmom": -0.0}, "label": "Zr", "xyz": [0.881405395, 1.8347738870546981, 1.432003773368737]}, {"species": [{"element": "Zr", "occu": 1}], "abc": [0.75, 0.71884783, 0.8370552800000001], "properties": {"magmom": -0.0}, "label": "Zr", "xyz": [2.6442161850000003, 4.691136572945302, 7.3562759166312635]}, {"species": [{"element": "P", "occu": 1}], "abc": [0.25, 0.40407982000000003, 0.855244799999999], "properties": {"magmom": 0.0}, "label": "P", "xyz": [0.881405395, 2.6369887240129177, 7.516130505818103]}, {"species": [{"element": "P", "occu": 1}], "abc": [0.75, 0.59592018, 0.1447552], "properties": {"magmom": 0.0}, "label": "P", "xyz": [2.6442161850000003, 3.888921735987083, 1.272149184181888]}, {"species": [{"element": "P", "occu": 1}], "abc": [0.25, 0.90407982, 0.6447552], "properties": {"magmom": 0.0}, "label": "P", "xyz": [0.881405395, 5.899943954012917, 5.666289029181887]}, {"species": [{"element": "P", "occu": 1}], "abc": [0.75, 0.09592018000000001, 0.35524479999999903], "properties": {"magmom": 0.0}, "label": "P", "xyz": [2.6442161850000003, 0.6259665059870829, 3.121990660818103]}, {"species": [{"element": "P", "occu": 1}], "abc": [0.75, 0.10700786, 0.96075088], "properties": {"magmom": 0.0}, "label": "P", "xyz": [2.6442161850000003, 0.6983237128762156, 8.443347445853627]}, {"species": [{"element": "P", "occu": 1}], "abc": [0.25, 0.89299214, 0.03924912], "properties": {"magmom": 0.0}, "label": "P", "xyz": [0.881405395, 5.827586747123785, 0.34493224414637275]}, {"species": [{"element": "P", "occu": 1}], "abc": [0.75, 0.6070078600000001, 0.53924912], "properties": {"magmom": 0.0}, "label": "P", "xyz": [2.6442161850000003, 3.9612789428762163, 4.739072089146373]}, {"species": [{"element": "P", "occu": 1}], "abc": [0.25, 0.39299214, 0.46075088000000003], "properties": {"magmom": 0.0}, "label": "P", "xyz": [0.881405395, 2.5646315171237846, 4.049207600853627]}]}, "task_ids": null, "uncorrected_energy_per_atom": null, "energy_per_atom": -7.418723279999999, "formation_energy_per_atom": -0.9591740530952371, "energy_above_hull": 0.0, "is_stable": true, "equilibrium_reaction_energy_per_atom": null, "decomposes_to": null, "xas": null, "grain_boundaries": null, "band_gap": 0.0, "cbm": null, "vbm": null, "efermi": 7.68736951, "is_gap_direct": null, "is_metal": null, "es_source_calc_id": null, "bandstructure": null, "dos": null, "dos_energy_up": null, "dos_energy_down": null, "is_magnetic": null, "ordering": null, "total_magnetization": 0.0, "total_magnetization_normalized_vol": null, "total_magnetization_normalized_formula_units": null, "num_magnetic_sites": null, "num_unique_magnetic_sites": null, "types_of_magnetic_species": null, "bulk_modulus": null, "shear_modulus": null, "universal_anisotropy": null, "homogeneous_poisson": null, "e_total": null, "e_ionic": null, "e_electronic": null, "n": null, "e_ij_max": null, "weighted_surface_energy_EV_PER_ANG2": null, "weighted_surface_energy": null, "weighted_work_function": null, "surface_anisotropy": null, "shape_factor": null, "has_reconstructed": null, "possible_species": null, "has_props": null, "theoretical": null, "database_IDs": null, "fields_not_requested": ["builder_meta", "nsites", "elements", "nelements", "composition", "composition_reduced", "chemsys", "symmetry", "property_name", "deprecated", "deprecation_reasons", "last_updated", "origins", "warnings", "task_ids", "uncorrected_energy_per_atom", "equilibrium_reaction_energy_per_atom", "decomposes_to", "xas", "grain_boundaries", "cbm", "vbm", "is_gap_direct", "is_metal", "es_source_calc_id", "bandstructure", "dos", "dos_energy_up", "dos_energy_down", "is_magnetic", "ordering", "total_magnetization_normalized_vol", "total_magnetization_normalized_formula_units", "num_magnetic_sites", "num_unique_magnetic_sites", "types_of_magnetic_species", "bulk_modulus", "shear_modulus", "universal_anisotropy", "homogeneous_poisson", "e_total", "e_ionic", "e_electronic", "n", "e_ij_max", "weighted_surface_energy_EV_PER_ANG2", "weighted_surface_energy", "weighted_work_function", "surface_anisotropy", "shape_factor", "has_reconstructed", "possible_species", "has_props", "theoretical", "database_IDs"]}