{"builder_meta": null, "nsites": null, "elements": null, "nelements": null, "composition": null, "composition_reduced": null, "formula_pretty": "ZrPb", "formula_anonymous": "AB", "chemsys": null, "volume": 210.596334163271, "density": 9.41221911349801, "density_atomic": 26.324541770408874, "symmetry": null, "property_name": null, "material_id": "mp-1207529", "deprecated": null, "deprecation_reasons": null, "last_updated": null, "origins": null, "warnings": null, "structure": {"@module": "pymatgen.core.structure", "@class": "Structure", "charge": 0, "lattice": {"matrix": [[-0.172698, 0.0, 6.937442], [3.511528, 0.0, -2.010626], [0.0, 8.769808, 0.0]], "pbc": [true, true, true], "a": 6.939591205724441, "b": 4.046411472732352, "c": 8.769808, "alpha": 90.0, "beta": 90.0, "gamma": 121.22053606440916, "volume": 210.596334163271}, "properties": {}, "sites": [{"species": [{"element": "Zr", "occu": 1}], "abc": [0.270794, 0.021956, 0.127606], "properties": {"magmom": -0.0}, "label": "Zr", "xyz": [0.030333526556000016, 1.1190801196479998, 1.8344723644919998]}, {"species": [{"element": "Zr", "occu": 1}], "abc": [0.729206, 0.978043999999999, 0.872394], "properties": {"magmom": -0.0}, "label": "Zr", "xyz": [3.3084964734439968, 7.650727880351999, 3.0923436355080027]}, {"species": [{"element": "Zr", "occu": 1}], "abc": [0.229206, 0.978043999999999, 0.627606], "properties": {"magmom": -0.0}, "label": "Zr", "xyz": [3.3948454734439966, 5.503984119648, -0.3763773644919979]}, {"species": [{"element": "Zr", "occu": 1}], "abc": [0.770794, 0.021956, 0.372394], "properties": {"magmom": -0.0}, "label": "Zr", "xyz": [-0.05601547344399997, 3.265823880352, 5.3031933644919995]}, {"species": [{"element": "Pb", "occu": 1}], "abc": [0.268596, 0.516304, 0.378167], "properties": {"magmom": 0.0}, "label": "Pb", "xyz": [1.766629960504, 3.3164519819359994, 0.825274925128]}, {"species": [{"element": "Pb", "occu": 1}], "abc": [0.731403999999999, 0.483695999999999, 0.621833], "properties": {"magmom": 0.0}, "label": "Pb", "xyz": [1.5722000394959967, 5.4533560180639995, 4.101541074871995]}, {"species": [{"element": "Pb", "occu": 1}], "abc": [0.231404, 0.483695999999999, 0.878166999999999], "properties": {"magmom": 0.0}, "label": "Pb", "xyz": [1.6585490394959967, 7.701355981935991, 0.632820074872002]}, {"species": [{"element": "Pb", "occu": 1}], "abc": [0.768596, 0.516304, 0.121833], "properties": {"magmom": 0.0}, "label": "Pb", "xyz": [1.680280960504, 1.0684520180639998, 4.293995925128]}]}, "task_ids": null, "uncorrected_energy_per_atom": null, "energy_per_atom": -39.7170977775, "formation_energy_per_atom": -0.19963477000000202, "energy_above_hull": 0.10057183400000001, "is_stable": false, "equilibrium_reaction_energy_per_atom": null, "decomposes_to": null, "xas": null, "grain_boundaries": null, "band_gap": 0.0, "cbm": null, "vbm": null, "efermi": 6.24497912, "is_gap_direct": null, "is_metal": null, "es_source_calc_id": null, "bandstructure": null, "dos": null, "dos_energy_up": null, "dos_energy_down": null, "is_magnetic": null, "ordering": null, "total_magnetization": 0.0012031, "total_magnetization_normalized_vol": null, "total_magnetization_normalized_formula_units": null, "num_magnetic_sites": null, "num_unique_magnetic_sites": null, "types_of_magnetic_species": null, "bulk_modulus": null, "shear_modulus": null, "universal_anisotropy": null, "homogeneous_poisson": null, "e_total": null, "e_ionic": null, "e_electronic": null, "n": null, "e_ij_max": null, "weighted_surface_energy_EV_PER_ANG2": null, "weighted_surface_energy": null, "weighted_work_function": null, "surface_anisotropy": null, "shape_factor": null, "has_reconstructed": null, "possible_species": null, "has_props": null, "theoretical": null, "database_IDs": null, "fields_not_requested": ["builder_meta", "nsites", "elements", "nelements", "composition", "composition_reduced", "chemsys", "symmetry", "property_name", "deprecated", "deprecation_reasons", "last_updated", "origins", "warnings", "task_ids", "uncorrected_energy_per_atom", "equilibrium_reaction_energy_per_atom", "decomposes_to", "xas", "grain_boundaries", "cbm", "vbm", "is_gap_direct", "is_metal", "es_source_calc_id", "bandstructure", "dos", "dos_energy_up", "dos_energy_down", "is_magnetic", "ordering", "total_magnetization_normalized_vol", "total_magnetization_normalized_formula_units", "num_magnetic_sites", "num_unique_magnetic_sites", "types_of_magnetic_species", "bulk_modulus", "shear_modulus", "universal_anisotropy", "homogeneous_poisson", "e_total", "e_ionic", "e_electronic", "n", "e_ij_max", "weighted_surface_energy_EV_PER_ANG2", "weighted_surface_energy", "weighted_work_function", "surface_anisotropy", "shape_factor", "has_reconstructed", "possible_species", "has_props", "theoretical", "database_IDs"]}