{"builder_meta": null, "nsites": null, "elements": null, "nelements": null, "composition": null, "composition_reduced": null, "formula_pretty": "ZrPd", "formula_anonymous": "AB", "chemsys": null, "volume": 76.20550017000421, "density": 8.613435580028481, "density_atomic": 19.051375042501054, "symmetry": null, "property_name": null, "material_id": "mp-13495", "deprecated": null, "deprecation_reasons": null, "last_updated": null, "origins": null, "warnings": null, "structure": {"@module": "pymatgen.core.structure", "@class": "Structure", "charge": 0, "lattice": {"matrix": [[3.21327499, -0.0, -1.03860687], [0.0, 4.3325022, -0.0], [-0.00469201, 0.0, 5.47545152]], "pbc": [true, true, true], "a": 3.3769572682772724, "b": 4.3325022, "c": 5.475453530332273, "alpha": 90.0, "beta": 107.96116364144854, "gamma": 90.0, "volume": 76.20550017000421}, "properties": {}, "sites": [{"species": [{"element": "Zr", "occu": 1}], "abc": [0.85918187, 0.25, 0.71836374], "properties": {"magmom": -0.0}, "label": "Zr", "xyz": [2.757417044880714, 1.08312555, 3.0410136393344382]}, {"species": [{"element": "Zr", "occu": 1}], "abc": [0.14081813, 0.75, 0.28163626], "properties": {"magmom": -0.0}, "label": "Zr", "xyz": [0.4511659351192861, 3.2493766500000003, 1.3958310106655623]}, {"species": [{"element": "Pd", "occu": 1}], "abc": [0.58924352, 0.25, 0.17848504], "properties": {"magmom": 0.0}, "label": "Pd", "xyz": [1.8925640122430345, 1.08312555, 0.3652938155902785]}, {"species": [{"element": "Pd", "occu": 1}], "abc": [0.41075648000000003, 0.75, 0.82151496], "properties": {"magmom": 0.0}, "label": "Pd", "xyz": [1.3160189677569656, 3.2493766500000003, 4.071550834409721]}]}, "task_ids": null, "uncorrected_energy_per_atom": null, "energy_per_atom": -23.5482233225, "formation_energy_per_atom": -0.6931005650000011, "energy_above_hull": 0.0, "is_stable": true, "equilibrium_reaction_energy_per_atom": null, "decomposes_to": null, "xas": null, "grain_boundaries": null, "band_gap": 0.0, "cbm": null, "vbm": null, "efermi": 5.05100656, "is_gap_direct": null, "is_metal": null, "es_source_calc_id": null, "bandstructure": null, "dos": null, "dos_energy_up": null, "dos_energy_down": null, "is_magnetic": null, "ordering": null, "total_magnetization": 3e-07, "total_magnetization_normalized_vol": null, "total_magnetization_normalized_formula_units": null, "num_magnetic_sites": null, "num_unique_magnetic_sites": null, "types_of_magnetic_species": null, "bulk_modulus": null, "shear_modulus": null, "universal_anisotropy": null, "homogeneous_poisson": null, "e_total": null, "e_ionic": null, "e_electronic": null, "n": null, "e_ij_max": null, "weighted_surface_energy_EV_PER_ANG2": null, "weighted_surface_energy": null, "weighted_work_function": null, "surface_anisotropy": null, "shape_factor": null, "has_reconstructed": null, "possible_species": null, "has_props": null, "theoretical": null, "database_IDs": null, "fields_not_requested": ["builder_meta", "nsites", "elements", "nelements", "composition", "composition_reduced", "chemsys", "symmetry", "property_name", "deprecated", "deprecation_reasons", "last_updated", "origins", "warnings", "task_ids", "uncorrected_energy_per_atom", "equilibrium_reaction_energy_per_atom", "decomposes_to", "xas", "grain_boundaries", "cbm", "vbm", "is_gap_direct", "is_metal", "es_source_calc_id", "bandstructure", "dos", "dos_energy_up", "dos_energy_down", "is_magnetic", "ordering", "total_magnetization_normalized_vol", "total_magnetization_normalized_formula_units", "num_magnetic_sites", "num_unique_magnetic_sites", "types_of_magnetic_species", "bulk_modulus", "shear_modulus", "universal_anisotropy", "homogeneous_poisson", "e_total", "e_ionic", "e_electronic", "n", "e_ij_max", "weighted_surface_energy_EV_PER_ANG2", "weighted_surface_energy", "weighted_work_function", "surface_anisotropy", "shape_factor", "has_reconstructed", "possible_species", "has_props", "theoretical", "database_IDs"]}