{
  "builder_meta": null,
  "nsites": null,
  "elements": null,
  "nelements": null,
  "composition": null,
  "composition_reduced": null,
  "formula_pretty": "ZrPd3",
  "formula_anonymous": "AB3",
  "chemsys": null,
  "volume": 256.6506679453874,
  "density": 10.62338506532587,
  "density_atomic": 16.040666746586712,
  "symmetry": null,
  "property_name": null,
  "material_id": "mp-30842",
  "deprecated": null,
  "deprecation_reasons": null,
  "last_updated": null,
  "origins": null,
  "warnings": null,
  "structure": {
    "@module": "pymatgen.core.structure",
    "@class": "Structure",
    "charge": 0,
    "lattice": {
      "matrix": [
        [5.65168429, 2.7660000000000003e-5, 0.0],
        [-2.82581858, 4.8945158200000005, -0.0],
        [-0.0, -0.0, 9.27798234]
      ],
      "pbc": [true, true, true],
      "a": 5.651684290067686,
      "b": 5.651684329410436,
      "c": 9.27798234,
      "alpha": 90.0,
      "beta": 90.0,
      "gamma": 119.99944350206844,
      "volume": 256.65066794538745
    },
    "properties": {},
    "sites": [
      {
        "species": [{ "element": "Zr", "occu": 1 }],
        "abc": [0.666666, 0.333333999999999, 0.75],
        "properties": { "magmom": -0.0 },
        "label": "Zr",
        "xyz": [2.825844348331423, 1.6315269763254352, 6.958486754999999]
      },
      {
        "species": [{ "element": "Zr", "occu": 1 }],
        "abc": [0.333333999999999, 0.666666, 0.25],
        "properties": { "magmom": -0.0 },
        "label": "Zr",
        "xyz": [2.1361668574693127e-5, 3.26301650367456, 2.319495585]
      },
      {
        "species": [{ "element": "Zr", "occu": 1 }],
        "abc": [0.0, 0.0, 0.5],
        "properties": { "magmom": 0.0 },
        "label": "Zr",
        "xyz": [0.0, 0.0, 4.63899117]
      },
      {
        "species": [{ "element": "Zr", "occu": 1 }],
        "abc": [-0.0, -0.0, -0.0],
        "properties": { "magmom": 0.0 },
        "label": "Zr",
        "xyz": [0.0, 0.0, 0.0]
      },
      {
        "species": [{ "element": "Pd", "occu": 1 }],
        "abc": [0.5, 0.5, -0.0],
        "properties": { "magmom": -0.0 },
        "label": "Pd",
        "xyz": [1.4129328550000002, 2.44727174, 0.0]
      },
      {
        "species": [{ "element": "Pd", "occu": 1 }],
        "abc": [0.5, 0.0, 0.5],
        "properties": { "magmom": -0.0 },
        "label": "Pd",
        "xyz": [2.825842145, 1.3830000000000001e-5, 4.63899117]
      },
      {
        "species": [{ "element": "Pd", "occu": 1 }],
        "abc": [0.83025473, 0.66050946, 0.250001],
        "properties": { "magmom": 0.0 },
        "label": "Pd",
        "xyz": [2.825857709905425, 3.232896966075489, 2.3195048629823396]
      },
      {
        "species": [{ "element": "Pd", "occu": 1 }],
        "abc": [0.16974527, 0.83025473, 0.749999],
        "properties": { "magmom": 0.0 },
        "label": "Pd",
        "xyz": [-1.3868025664060752, 4.063699605768998, 6.958477477017659]
      },
      {
        "species": [{ "element": "Pd", "occu": 1 }],
        "abc": [0.66050946, 0.83025473, 0.749999],
        "properties": { "magmom": 0.0 },
        "label": "Pd",
        "xyz": [1.3868416963115, 4.063713180306493, 6.958477477017659]
      },
      {
        "species": [{ "element": "Pd", "occu": 1 }],
        "abc": [0.33949054, 0.16974527, 0.250001],
        "properties": { "magmom": 0.0 },
        "label": "Pd",
        "xyz": [1.4390240136885, 0.8308302996935079, 2.3195048629823396]
      },
      {
        "species": [{ "element": "Pd", "occu": 1 }],
        "abc": [0.83025473, 0.16974527, 0.250001],
        "properties": { "magmom": 0.0 },
        "label": "Pd",
        "xyz": [4.212668276406076, 0.8308438742310033, 2.3195048629823396]
      },
      {
        "species": [{ "element": "Pd", "occu": 1 }],
        "abc": [0.16974527, 0.33949054, 0.749999],
        "properties": { "magmom": 0.0 },
        "label": "Pd",
        "xyz": [8.00009457513351e-6, 1.6616465139245111, 6.958477477017659]
      },
      {
        "species": [{ "element": "Pd", "occu": 1 }],
        "abc": [-0.0, 0.5, -0.0],
        "properties": { "magmom": -0.0 },
        "label": "Pd",
        "xyz": [-1.41290929, 2.4472579100000003, 0.0]
      },
      {
        "species": [{ "element": "Pd", "occu": 1 }],
        "abc": [0.0, 0.5, 0.5],
        "properties": { "magmom": -0.0 },
        "label": "Pd",
        "xyz": [-1.41290929, 2.4472579100000003, 4.63899117]
      },
      {
        "species": [{ "element": "Pd", "occu": 1 }],
        "abc": [0.5, 0.5, 0.5],
        "properties": { "magmom": -0.0 },
        "label": "Pd",
        "xyz": [1.4129328550000002, 2.44727174, 4.63899117]
      },
      {
        "species": [{ "element": "Pd", "occu": 1 }],
        "abc": [0.5, -0.0, -0.0],
        "properties": { "magmom": -0.0 },
        "label": "Pd",
        "xyz": [2.825842145, 1.3830000000000001e-5, 0.0]
      }
    ]
  },
  "task_ids": null,
  "uncorrected_energy_per_atom": null,
  "energy_per_atom": -23.75929017625,
  "formation_energy_per_atom": -0.851501992500001,
  "energy_above_hull": 0.0,
  "is_stable": true,
  "equilibrium_reaction_energy_per_atom": null,
  "decomposes_to": null,
  "xas": null,
  "grain_boundaries": null,
  "band_gap": 0.0,
  "cbm": null,
  "vbm": null,
  "efermi": 5.66954208,
  "is_gap_direct": null,
  "is_metal": null,
  "es_source_calc_id": null,
  "bandstructure": null,
  "dos": null,
  "dos_energy_up": null,
  "dos_energy_down": null,
  "is_magnetic": null,
  "ordering": null,
  "total_magnetization": 0.0,
  "total_magnetization_normalized_vol": null,
  "total_magnetization_normalized_formula_units": null,
  "num_magnetic_sites": null,
  "num_unique_magnetic_sites": null,
  "types_of_magnetic_species": null,
  "bulk_modulus": null,
  "shear_modulus": null,
  "universal_anisotropy": null,
  "homogeneous_poisson": null,
  "e_total": null,
  "e_ionic": null,
  "e_electronic": null,
  "n": null,
  "e_ij_max": null,
  "weighted_surface_energy_EV_PER_ANG2": null,
  "weighted_surface_energy": null,
  "weighted_work_function": null,
  "surface_anisotropy": null,
  "shape_factor": null,
  "has_reconstructed": null,
  "possible_species": null,
  "has_props": null,
  "theoretical": null,
  "database_IDs": null,
  "fields_not_requested": [
    "builder_meta",
    "nsites",
    "elements",
    "nelements",
    "composition",
    "composition_reduced",
    "chemsys",
    "symmetry",
    "property_name",
    "deprecated",
    "deprecation_reasons",
    "last_updated",
    "origins",
    "warnings",
    "task_ids",
    "uncorrected_energy_per_atom",
    "equilibrium_reaction_energy_per_atom",
    "decomposes_to",
    "xas",
    "grain_boundaries",
    "cbm",
    "vbm",
    "is_gap_direct",
    "is_metal",
    "es_source_calc_id",
    "bandstructure",
    "dos",
    "dos_energy_up",
    "dos_energy_down",
    "is_magnetic",
    "ordering",
    "total_magnetization_normalized_vol",
    "total_magnetization_normalized_formula_units",
    "num_magnetic_sites",
    "num_unique_magnetic_sites",
    "types_of_magnetic_species",
    "bulk_modulus",
    "shear_modulus",
    "universal_anisotropy",
    "homogeneous_poisson",
    "e_total",
    "e_ionic",
    "e_electronic",
    "n",
    "e_ij_max",
    "weighted_surface_energy_EV_PER_ANG2",
    "weighted_surface_energy",
    "weighted_work_function",
    "surface_anisotropy",
    "shape_factor",
    "has_reconstructed",
    "possible_species",
    "has_props",
    "theoretical",
    "database_IDs"
  ]
}
