{
  "builder_meta": null,
  "nsites": null,
  "elements": null,
  "nelements": null,
  "composition": null,
  "composition_reduced": null,
  "formula_pretty": "ZrPt8",
  "formula_anonymous": "AB8",
  "chemsys": null,
  "volume": 141.80050611687938,
  "density": 19.344344509598002,
  "density_atomic": 15.755611790764375,
  "symmetry": null,
  "property_name": null,
  "material_id": "mp-1205768",
  "deprecated": null,
  "deprecation_reasons": null,
  "last_updated": null,
  "origins": null,
  "warnings": null,
  "structure": {
    "@module": "pymatgen.core.structure",
    "@class": "Structure",
    "charge": 0,
    "lattice": {
      "matrix": [
        [-0.0, 0.0, 3.97084059],
        [-4.22554437, 4.22554437, 1.9854208],
        [-4.22554437, -4.22554437, 1.9854208]
      ],
      "pbc": [true, true, true],
      "a": 3.97084059,
      "b": 6.29701089396787,
      "c": 6.29701089396787,
      "alpha": 84.29472197765236,
      "beta": 71.6213308676149,
      "gamma": 71.6213308676149,
      "volume": 141.80050611687938
    },
    "properties": {},
    "sites": [
      {
        "species": [{ "element": "Zr", "occu": 1 }],
        "abc": [0.0, -0.0, -0.0],
        "properties": { "magmom": 0.0 },
        "label": "Zr",
        "xyz": [0.0, 0.0, 0.0]
      },
      {
        "species": [{ "element": "Pt", "occu": 1 }],
        "abc": [0.33212565, 0.6678743500000001, 0.6678743500000001],
        "properties": { "magmom": -0.0 },
        "label": "Pt",
        "xyz": [-5.644265399019819, 0.0, 3.9708412645530933]
      },
      {
        "species": [{ "element": "Pt", "occu": 1 }],
        "abc": [0.6678743500000001, 0.33212565, 0.33212565],
        "properties": { "magmom": -0.0 },
        "label": "Pt",
        "xyz": [-2.8068233409801806, 0.0, 3.970840925446907]
      },
      {
        "species": [{ "element": "Pt", "occu": 1 }],
        "abc": [0.0, 0.33212565, 0.6678743500000001],
        "properties": { "magmom": -0.0 },
        "label": "Pt",
        "xyz": [-4.22554437, -1.4187210290198191, 1.9854208]
      },
      {
        "species": [{ "element": "Pt", "occu": 1 }],
        "abc": [0.0, 0.6678743500000001, 0.33212565],
        "properties": { "magmom": -0.0 },
        "label": "Pt",
        "xyz": [-4.22554437, 1.4187210290198191, 1.9854208]
      },
      {
        "species": [{ "element": "Pt", "occu": 1 }],
        "abc": [0.33496818, -0.0, 0.33006265],
        "properties": { "magmom": -0.0 },
        "label": "Pt",
        "xyz": [-1.3946943724547805, -1.3946943724547805, 1.9854184961155463]
      },
      {
        "species": [{ "element": "Pt", "occu": 1 }],
        "abc": [0.66503182, 0.0, 0.66993735],
        "properties": { "magmom": -0.0 },
        "label": "Pt",
        "xyz": [-2.830849997545219, -2.830849997545219, 3.9708428938844538]
      },
      {
        "species": [{ "element": "Pt", "occu": 1 }],
        "abc": [0.66503182, 0.66993735, 0.0],
        "properties": { "magmom": -0.0 },
        "label": "Pt",
        "xyz": [-2.830849997545219, 2.830849997545219, 3.9708428938844538]
      },
      {
        "species": [{ "element": "Pt", "occu": 1 }],
        "abc": [0.33496818, 0.33006265, -0.0],
        "properties": { "magmom": -0.0 },
        "label": "Pt",
        "xyz": [-1.3946943724547805, 1.3946943724547805, 1.9854184961155463]
      }
    ]
  },
  "task_ids": null,
  "uncorrected_energy_per_atom": null,
  "energy_per_atom": -48.85325875,
  "formation_energy_per_atom": -0.5586446272222231,
  "energy_above_hull": 0.0,
  "is_stable": true,
  "equilibrium_reaction_energy_per_atom": null,
  "decomposes_to": null,
  "xas": null,
  "grain_boundaries": null,
  "band_gap": 0.0,
  "cbm": null,
  "vbm": null,
  "efermi": 6.95353191,
  "is_gap_direct": null,
  "is_metal": null,
  "es_source_calc_id": null,
  "bandstructure": null,
  "dos": null,
  "dos_energy_up": null,
  "dos_energy_down": null,
  "is_magnetic": null,
  "ordering": null,
  "total_magnetization": 1.8e-6,
  "total_magnetization_normalized_vol": null,
  "total_magnetization_normalized_formula_units": null,
  "num_magnetic_sites": null,
  "num_unique_magnetic_sites": null,
  "types_of_magnetic_species": null,
  "bulk_modulus": null,
  "shear_modulus": null,
  "universal_anisotropy": null,
  "homogeneous_poisson": null,
  "e_total": null,
  "e_ionic": null,
  "e_electronic": null,
  "n": null,
  "e_ij_max": null,
  "weighted_surface_energy_EV_PER_ANG2": null,
  "weighted_surface_energy": null,
  "weighted_work_function": null,
  "surface_anisotropy": null,
  "shape_factor": null,
  "has_reconstructed": null,
  "possible_species": null,
  "has_props": null,
  "theoretical": null,
  "database_IDs": null,
  "fields_not_requested": [
    "builder_meta",
    "nsites",
    "elements",
    "nelements",
    "composition",
    "composition_reduced",
    "chemsys",
    "symmetry",
    "property_name",
    "deprecated",
    "deprecation_reasons",
    "last_updated",
    "origins",
    "warnings",
    "task_ids",
    "uncorrected_energy_per_atom",
    "equilibrium_reaction_energy_per_atom",
    "decomposes_to",
    "xas",
    "grain_boundaries",
    "cbm",
    "vbm",
    "is_gap_direct",
    "is_metal",
    "es_source_calc_id",
    "bandstructure",
    "dos",
    "dos_energy_up",
    "dos_energy_down",
    "is_magnetic",
    "ordering",
    "total_magnetization_normalized_vol",
    "total_magnetization_normalized_formula_units",
    "num_magnetic_sites",
    "num_unique_magnetic_sites",
    "types_of_magnetic_species",
    "bulk_modulus",
    "shear_modulus",
    "universal_anisotropy",
    "homogeneous_poisson",
    "e_total",
    "e_ionic",
    "e_electronic",
    "n",
    "e_ij_max",
    "weighted_surface_energy_EV_PER_ANG2",
    "weighted_surface_energy",
    "weighted_work_function",
    "surface_anisotropy",
    "shape_factor",
    "has_reconstructed",
    "possible_species",
    "has_props",
    "theoretical",
    "database_IDs"
  ]
}
