{
  "builder_meta": null,
  "nsites": null,
  "elements": null,
  "nelements": null,
  "composition": null,
  "composition_reduced": null,
  "formula_pretty": "ZrPt3",
  "formula_anonymous": "AB3",
  "chemsys": null,
  "volume": 261.05347801383505,
  "density": 17.21202619729539,
  "density_atomic": 16.31584237586469,
  "symmetry": null,
  "property_name": null,
  "material_id": "mp-1188129",
  "deprecated": null,
  "deprecation_reasons": null,
  "last_updated": null,
  "origins": null,
  "warnings": null,
  "structure": {
    "@module": "pymatgen.core.structure",
    "@class": "Structure",
    "charge": 0,
    "lattice": {
      "matrix": [
        [-2.84661215, -4.93049083, 1e-8],
        [-2.84661215, 4.93049083, -1e-8],
        [0.0, 1e-8, -9.299959]
      ],
      "pbc": [true, true, true],
      "a": 5.693236386910499,
      "b": 5.693236386910499,
      "c": 9.299959,
      "alpha": 89.99999984600699,
      "beta": 90.00000015399301,
      "gamma": 120.00014045847117,
      "volume": 261.05347801383505
    },
    "properties": {},
    "sites": [
      {
        "species": [{ "element": "Zr", "occu": 1 }],
        "abc": [0.0, 0.0, 0.5],
        "properties": { "magmom": 0.0 },
        "label": "Zr",
        "xyz": [0.0, 5e-9, -4.6499795]
      },
      {
        "species": [{ "element": "Zr", "occu": 1 }],
        "abc": [0.0, 0.0, -0.0],
        "properties": { "magmom": 0.0 },
        "label": "Zr",
        "xyz": [0.0, 0.0, 0.0]
      },
      {
        "species": [{ "element": "Zr", "occu": 1 }],
        "abc": [0.66667074, 0.33332926, 0.74999716],
        "properties": { "magmom": 0.0 },
        "label": "Zr",
        "xyz": [-2.8466121500000003, -1.6435371028986572, -6.974942834783025]
      },
      {
        "species": [{ "element": "Zr", "occu": 1 }],
        "abc": [0.33332926, 0.66667074, 0.25000284],
        "properties": { "magmom": 0.0 },
        "label": "Zr",
        "xyz": [-2.8466121500000003, 1.6435371128986571, -2.325016165216975]
      },
      {
        "species": [{ "element": "Pt", "occu": 1 }],
        "abc": [0.5, 0.0, 0.5],
        "properties": { "magmom": 0.0 },
        "label": "Pt",
        "xyz": [-1.423306075, -2.46524541, -4.649979494999999]
      },
      {
        "species": [{ "element": "Pt", "occu": 1 }],
        "abc": [0.5, 0.5, 0.5],
        "properties": { "magmom": -0.0 },
        "label": "Pt",
        "xyz": [-2.84661215, 5e-9, -4.6499795]
      },
      {
        "species": [{ "element": "Pt", "occu": 1 }],
        "abc": [0.0, 0.5, 0.5],
        "properties": { "magmom": 0.0 },
        "label": "Pt",
        "xyz": [-1.423306075, 2.46524542, -4.649979505]
      },
      {
        "species": [{ "element": "Pt", "occu": 1 }],
        "abc": [0.5, 0.0, -0.0],
        "properties": { "magmom": -0.0 },
        "label": "Pt",
        "xyz": [-1.423306075, -2.465245415, 5e-9]
      },
      {
        "species": [{ "element": "Pt", "occu": 1 }],
        "abc": [0.5, 0.5, -0.0],
        "properties": { "magmom": -0.0 },
        "label": "Pt",
        "xyz": [-2.84661215, 0.0, 0.0]
      },
      {
        "species": [{ "element": "Pt", "occu": 1 }],
        "abc": [0.0, 0.5, -0.0],
        "properties": { "magmom": -0.0 },
        "label": "Pt",
        "xyz": [-1.423306075, 2.465245415, -5e-9]
      },
      {
        "species": [{ "element": "Pt", "occu": 1 }],
        "abc": [0.17014111, 0.82985889, 0.7500200100000001],
        "properties": { "magmom": -0.0 },
        "label": "Pt",
        "xyz": [-2.84661215, 3.252732472178158, -6.975155348776768]
      },
      {
        "species": [{ "element": "Pt", "occu": 1 }],
        "abc": [0.65973128, 0.82985662, 0.7500200100000001],
        "properties": { "magmom": -0.0 },
        "label": "Pt",
        "xyz": [-4.240279014632986, 0.838801436320833, -6.975155343880844]
      },
      {
        "species": [{ "element": "Pt", "occu": 1 }],
        "abc": [0.17014338, 0.34026872, 0.7500200100000001],
        "properties": { "magmom": -0.0 },
        "label": "Pt",
        "xyz": [-1.452945285367015, 0.8388014363208324, -6.975155343880844]
      },
      {
        "species": [{ "element": "Pt", "occu": 1 }],
        "abc": [0.82985889, 0.17014111, 0.24997999],
        "properties": { "magmom": -0.0 },
        "label": "Pt",
        "xyz": [-2.84661215, -3.252732462178158, -2.324803651223232]
      },
      {
        "species": [{ "element": "Pt", "occu": 1 }],
        "abc": [0.34026872, 0.17014338, 0.24997999],
        "properties": { "magmom": -0.0 },
        "label": "Pt",
        "xyz": [-1.452945285367015, -0.8388014263208323, -2.3248036561191565]
      },
      {
        "species": [{ "element": "Pt", "occu": 1 }],
        "abc": [0.82985662, 0.65973128, 0.24997999],
        "properties": { "magmom": -0.0 },
        "label": "Pt",
        "xyz": [-4.240279014632986, -0.838801426320833, -2.3248036561191565]
      }
    ]
  },
  "task_ids": null,
  "uncorrected_energy_per_atom": null,
  "energy_per_atom": -45.442229629375,
  "formation_energy_per_atom": -1.138993978125,
  "energy_above_hull": 0.0,
  "is_stable": true,
  "equilibrium_reaction_energy_per_atom": null,
  "decomposes_to": null,
  "xas": null,
  "grain_boundaries": null,
  "band_gap": 0.0,
  "cbm": null,
  "vbm": null,
  "efermi": 7.26982675,
  "is_gap_direct": null,
  "is_metal": null,
  "es_source_calc_id": null,
  "bandstructure": null,
  "dos": null,
  "dos_energy_up": null,
  "dos_energy_down": null,
  "is_magnetic": null,
  "ordering": null,
  "total_magnetization": 1e-7,
  "total_magnetization_normalized_vol": null,
  "total_magnetization_normalized_formula_units": null,
  "num_magnetic_sites": null,
  "num_unique_magnetic_sites": null,
  "types_of_magnetic_species": null,
  "bulk_modulus": null,
  "shear_modulus": null,
  "universal_anisotropy": null,
  "homogeneous_poisson": null,
  "e_total": null,
  "e_ionic": null,
  "e_electronic": null,
  "n": null,
  "e_ij_max": null,
  "weighted_surface_energy_EV_PER_ANG2": null,
  "weighted_surface_energy": null,
  "weighted_work_function": null,
  "surface_anisotropy": null,
  "shape_factor": null,
  "has_reconstructed": null,
  "possible_species": null,
  "has_props": null,
  "theoretical": null,
  "database_IDs": null,
  "fields_not_requested": [
    "builder_meta",
    "nsites",
    "elements",
    "nelements",
    "composition",
    "composition_reduced",
    "chemsys",
    "symmetry",
    "property_name",
    "deprecated",
    "deprecation_reasons",
    "last_updated",
    "origins",
    "warnings",
    "task_ids",
    "uncorrected_energy_per_atom",
    "equilibrium_reaction_energy_per_atom",
    "decomposes_to",
    "xas",
    "grain_boundaries",
    "cbm",
    "vbm",
    "is_gap_direct",
    "is_metal",
    "es_source_calc_id",
    "bandstructure",
    "dos",
    "dos_energy_up",
    "dos_energy_down",
    "is_magnetic",
    "ordering",
    "total_magnetization_normalized_vol",
    "total_magnetization_normalized_formula_units",
    "num_magnetic_sites",
    "num_unique_magnetic_sites",
    "types_of_magnetic_species",
    "bulk_modulus",
    "shear_modulus",
    "universal_anisotropy",
    "homogeneous_poisson",
    "e_total",
    "e_ionic",
    "e_electronic",
    "n",
    "e_ij_max",
    "weighted_surface_energy_EV_PER_ANG2",
    "weighted_surface_energy",
    "weighted_work_function",
    "surface_anisotropy",
    "shape_factor",
    "has_reconstructed",
    "possible_species",
    "has_props",
    "theoretical",
    "database_IDs"
  ]
}
