{
  "builder_meta": null,
  "nsites": null,
  "elements": null,
  "nelements": null,
  "composition": null,
  "composition_reduced": null,
  "formula_pretty": "ZrPt",
  "formula_anonymous": "AB",
  "chemsys": null,
  "volume": 76.50559477055259,
  "density": 12.428518999321772,
  "density_atomic": 19.126398692638148,
  "symmetry": null,
  "property_name": null,
  "material_id": "mp-1065995",
  "deprecated": null,
  "deprecation_reasons": null,
  "last_updated": null,
  "origins": null,
  "warnings": null,
  "structure": {
    "@module": "pymatgen.core.structure",
    "@class": "Structure",
    "charge": 0,
    "lattice": {
      "matrix": [
        [-3.43332512, -1e-8, -0.0],
        [-0.0, -0.0, -4.2824315],
        [1.71666154, -5.20340751, -0.0]
      ],
      "pbc": [true, true, true],
      "a": 3.43332512,
      "b": 4.2824315,
      "c": 5.479267885223314,
      "alpha": 90.0,
      "beta": 108.25829274868123,
      "gamma": 90.0,
      "volume": 76.50559477055259
    },
    "properties": {},
    "sites": [
      {
        "species": [{ "element": "Zr", "occu": 1 }],
        "abc": [0.8587508500000001, 0.75, 0.71750069],
        "properties": { "magmom": -0.0 },
        "label": "Zr",
        "xyz": [-1.7166650256798899, -3.7334484873636904, -3.211823625]
      },
      {
        "species": [{ "element": "Zr", "occu": 1 }],
        "abc": [0.14124915, 0.25, 0.28249931],
        "properties": { "magmom": -0.0 },
        "label": "Zr",
        "xyz": [1.4456798894668665e-6, -1.4699590326363094, -1.070607875]
      },
      {
        "species": [{ "element": "Pt", "occu": 1 }],
        "abc": [0.59226539, 0.75, 0.18453077],
        "properties": { "magmom": 0.0 },
        "label": "Pt",
        "xyz": [-1.716662765388011, -0.9601888003667367, -3.211823625]
      },
      {
        "species": [{ "element": "Pt", "occu": 1 }],
        "abc": [0.40773461, 0.25, 0.81546923],
        "properties": { "magmom": 0.0 },
        "label": "Pt",
        "xyz": [-8.146119889751446e-7, -4.243218719633264, -1.070607875]
      }
    ]
  },
  "task_ids": null,
  "uncorrected_energy_per_atom": null,
  "energy_per_atom": -38.3502933225,
  "formation_energy_per_atom": -1.231538919999998,
  "energy_above_hull": 0.0,
  "is_stable": true,
  "equilibrium_reaction_energy_per_atom": null,
  "decomposes_to": null,
  "xas": null,
  "grain_boundaries": null,
  "band_gap": 0.0,
  "cbm": null,
  "vbm": null,
  "efermi": 6.0453168,
  "is_gap_direct": null,
  "is_metal": null,
  "es_source_calc_id": null,
  "bandstructure": null,
  "dos": null,
  "dos_energy_up": null,
  "dos_energy_down": null,
  "is_magnetic": null,
  "ordering": null,
  "total_magnetization": 0.0,
  "total_magnetization_normalized_vol": null,
  "total_magnetization_normalized_formula_units": null,
  "num_magnetic_sites": null,
  "num_unique_magnetic_sites": null,
  "types_of_magnetic_species": null,
  "bulk_modulus": null,
  "shear_modulus": null,
  "universal_anisotropy": null,
  "homogeneous_poisson": null,
  "e_total": null,
  "e_ionic": null,
  "e_electronic": null,
  "n": null,
  "e_ij_max": null,
  "weighted_surface_energy_EV_PER_ANG2": null,
  "weighted_surface_energy": null,
  "weighted_work_function": null,
  "surface_anisotropy": null,
  "shape_factor": null,
  "has_reconstructed": null,
  "possible_species": null,
  "has_props": null,
  "theoretical": null,
  "database_IDs": null,
  "fields_not_requested": [
    "builder_meta",
    "nsites",
    "elements",
    "nelements",
    "composition",
    "composition_reduced",
    "chemsys",
    "symmetry",
    "property_name",
    "deprecated",
    "deprecation_reasons",
    "last_updated",
    "origins",
    "warnings",
    "task_ids",
    "uncorrected_energy_per_atom",
    "equilibrium_reaction_energy_per_atom",
    "decomposes_to",
    "xas",
    "grain_boundaries",
    "cbm",
    "vbm",
    "is_gap_direct",
    "is_metal",
    "es_source_calc_id",
    "bandstructure",
    "dos",
    "dos_energy_up",
    "dos_energy_down",
    "is_magnetic",
    "ordering",
    "total_magnetization_normalized_vol",
    "total_magnetization_normalized_formula_units",
    "num_magnetic_sites",
    "num_unique_magnetic_sites",
    "types_of_magnetic_species",
    "bulk_modulus",
    "shear_modulus",
    "universal_anisotropy",
    "homogeneous_poisson",
    "e_total",
    "e_ionic",
    "e_electronic",
    "n",
    "e_ij_max",
    "weighted_surface_energy_EV_PER_ANG2",
    "weighted_surface_energy",
    "weighted_work_function",
    "surface_anisotropy",
    "shape_factor",
    "has_reconstructed",
    "possible_species",
    "has_props",
    "theoretical",
    "database_IDs"
  ]
}
