{
  "builder_meta": null,
  "nsites": null,
  "elements": null,
  "nelements": null,
  "composition": null,
  "composition_reduced": null,
  "formula_pretty": "ZrRh",
  "formula_anonymous": "AB",
  "chemsys": null,
  "volume": 144.99665632235155,
  "density": 8.89288420590516,
  "density_atomic": 18.124582040293944,
  "symmetry": null,
  "property_name": null,
  "material_id": "mp-669917",
  "deprecated": null,
  "deprecation_reasons": null,
  "last_updated": null,
  "origins": null,
  "warnings": null,
  "structure": {
    "@module": "pymatgen.core.structure",
    "@class": "Structure",
    "charge": 0,
    "lattice": {
      "matrix": [
        [4.47044155, -0.0, 0.0],
        [-0.0, 5.26584998, 0.0],
        [0.0, 0.0, 6.15940958]
      ],
      "pbc": [true, true, true],
      "a": 4.47044155,
      "b": 5.26584998,
      "c": 6.15940958,
      "alpha": 90.0,
      "beta": 90.0,
      "gamma": 90.0,
      "volume": 144.99665632235155
    },
    "properties": {},
    "sites": [
      {
        "species": [{ "element": "Zr", "occu": 1 }],
        "abc": [0.75, 0.85851959, 0.8230554],
        "properties": { "magmom": 0.0 },
        "label": "Zr",
        "xyz": [3.3528311625000002, 4.520835365831108, 5.069535315630732]
      },
      {
        "species": [{ "element": "Zr", "occu": 1 }],
        "abc": [0.25, 0.35851959, 0.6769446],
        "properties": { "magmom": 0.0 },
        "label": "Zr",
        "xyz": [1.1176103875, 1.887910375831108, 4.169579054369268]
      },
      {
        "species": [{ "element": "Zr", "occu": 1 }],
        "abc": [0.75, 0.64148041, 0.3230554],
        "properties": { "magmom": 0.0 },
        "label": "Zr",
        "xyz": [3.3528311625000002, 3.3779396041688914, 1.989830525630732]
      },
      {
        "species": [{ "element": "Zr", "occu": 1 }],
        "abc": [0.25, 0.14148041, 0.176944599999999],
        "properties": { "magmom": 0.0 },
        "label": "Zr",
        "xyz": [1.1176103875, 0.7450146141688917, 1.0898742643692618]
      },
      {
        "species": [{ "element": "Rh", "occu": 1 }],
        "abc": [0.75, 0.17003167, 0.45401299],
        "properties": { "magmom": -0.0 },
        "label": "Rh",
        "xyz": [3.3528311625000002, 0.8953612660688665, 2.7964519600504443]
      },
      {
        "species": [{ "element": "Rh", "occu": 1 }],
        "abc": [0.25, 0.82996833, 0.54598701],
        "properties": { "magmom": -0.0 },
        "label": "Rh",
        "xyz": [1.1176103875, 4.370488713931133, 3.3629576199495563]
      },
      {
        "species": [{ "element": "Rh", "occu": 1 }],
        "abc": [0.25, 0.67003167, 0.04598701],
        "properties": { "magmom": -0.0 },
        "label": "Rh",
        "xyz": [1.1176103875, 3.528286256068866, 0.2832528299495558]
      },
      {
        "species": [{ "element": "Rh", "occu": 1 }],
        "abc": [0.75, 0.32996833000000003, 0.9540129900000001],
        "properties": { "magmom": -0.0 },
        "label": "Rh",
        "xyz": [3.3528311625000002, 1.7375637239311335, 5.876156750050445]
      }
    ]
  },
  "task_ids": null,
  "uncorrected_energy_per_atom": null,
  "energy_per_atom": -24.328295275,
  "formation_energy_per_atom": -0.8852850074999981,
  "energy_above_hull": 0.0,
  "is_stable": true,
  "equilibrium_reaction_energy_per_atom": null,
  "decomposes_to": null,
  "xas": null,
  "grain_boundaries": null,
  "band_gap": 0.0,
  "cbm": null,
  "vbm": null,
  "efermi": 5.45436303,
  "is_gap_direct": null,
  "is_metal": null,
  "es_source_calc_id": null,
  "bandstructure": null,
  "dos": null,
  "dos_energy_up": null,
  "dos_energy_down": null,
  "is_magnetic": null,
  "ordering": null,
  "total_magnetization": 1e-7,
  "total_magnetization_normalized_vol": null,
  "total_magnetization_normalized_formula_units": null,
  "num_magnetic_sites": null,
  "num_unique_magnetic_sites": null,
  "types_of_magnetic_species": null,
  "bulk_modulus": null,
  "shear_modulus": null,
  "universal_anisotropy": null,
  "homogeneous_poisson": null,
  "e_total": null,
  "e_ionic": null,
  "e_electronic": null,
  "n": null,
  "e_ij_max": null,
  "weighted_surface_energy_EV_PER_ANG2": null,
  "weighted_surface_energy": null,
  "weighted_work_function": null,
  "surface_anisotropy": null,
  "shape_factor": null,
  "has_reconstructed": null,
  "possible_species": null,
  "has_props": null,
  "theoretical": null,
  "database_IDs": null,
  "fields_not_requested": [
    "builder_meta",
    "nsites",
    "elements",
    "nelements",
    "composition",
    "composition_reduced",
    "chemsys",
    "symmetry",
    "property_name",
    "deprecated",
    "deprecation_reasons",
    "last_updated",
    "origins",
    "warnings",
    "task_ids",
    "uncorrected_energy_per_atom",
    "equilibrium_reaction_energy_per_atom",
    "decomposes_to",
    "xas",
    "grain_boundaries",
    "cbm",
    "vbm",
    "is_gap_direct",
    "is_metal",
    "es_source_calc_id",
    "bandstructure",
    "dos",
    "dos_energy_up",
    "dos_energy_down",
    "is_magnetic",
    "ordering",
    "total_magnetization_normalized_vol",
    "total_magnetization_normalized_formula_units",
    "num_magnetic_sites",
    "num_unique_magnetic_sites",
    "types_of_magnetic_species",
    "bulk_modulus",
    "shear_modulus",
    "universal_anisotropy",
    "homogeneous_poisson",
    "e_total",
    "e_ionic",
    "e_electronic",
    "n",
    "e_ij_max",
    "weighted_surface_energy_EV_PER_ANG2",
    "weighted_surface_energy",
    "weighted_work_function",
    "surface_anisotropy",
    "shape_factor",
    "has_reconstructed",
    "possible_species",
    "has_props",
    "theoretical",
    "database_IDs"
  ]
}
