{
  "builder_meta": null,
  "nsites": null,
  "elements": null,
  "nelements": null,
  "composition": null,
  "composition_reduced": null,
  "formula_pretty": "ZrRu2",
  "formula_anonymous": "AB2",
  "chemsys": null,
  "volume": 196.6638265718455,
  "density": 9.90812375057858,
  "density_atomic": 16.38865221432046,
  "symmetry": null,
  "property_name": null,
  "material_id": "mp-569979",
  "deprecated": null,
  "deprecation_reasons": null,
  "last_updated": null,
  "origins": null,
  "warnings": null,
  "structure": {
    "@module": "pymatgen.core.structure",
    "@class": "Structure",
    "charge": 0,
    "lattice": {
      "matrix": [
        [5.1456014, 0.0, 0.0],
        [-2.5728007, 4.45622211, 0.0],
        [0.0, -0.0, 8.57672559]
      ],
      "pbc": [true, true, true],
      "a": 5.1456014,
      "b": 5.145601902165901,
      "c": 8.57672559,
      "alpha": 90.0,
      "beta": 90.0,
      "gamma": 119.99999677170634,
      "volume": 196.6638265718455
    },
    "properties": {},
    "sites": [
      {
        "species": [{ "element": "Zr", "occu": 1 }],
        "abc": [0.666667, 0.333333, 0.93237223],
        "properties": { "magmom": -0.0 },
        "label": "Zr",
        "xyz": [2.5728032728007, 1.48540588459263, 7.996700764446366]
      },
      {
        "species": [{ "element": "Zr", "occu": 1 }],
        "abc": [0.333333, 0.666667, 0.06762777],
        "properties": { "magmom": -0.0 },
        "label": "Zr",
        "xyz": [-2.5728007000402897e-6, 2.97081622540737, 0.5800248255536343]
      },
      {
        "species": [{ "element": "Zr", "occu": 1 }],
        "abc": [0.333333, 0.666667, 0.43237223],
        "properties": { "magmom": -0.0 },
        "label": "Zr",
        "xyz": [-2.5728007000402897e-6, 2.97081622540737, 3.708337969446366]
      },
      {
        "species": [{ "element": "Zr", "occu": 1 }],
        "abc": [0.666667, 0.333333, 0.56762777],
        "properties": { "magmom": -0.0 },
        "label": "Zr",
        "xyz": [2.5728032728007, 1.48540588459263, 4.8683876205536345]
      },
      {
        "species": [{ "element": "Ru", "occu": 1 }],
        "abc": [0.17187279, 0.34374658, 0.75],
        "properties": { "magmom": 0.001 },
        "label": "Ru",
        "xyz": [-2.5728007000402897e-6, 1.5318111100328837, 6.4325441925]
      },
      {
        "species": [{ "element": "Ru", "occu": 1 }],
        "abc": [0.17187279, 0.82812721, 0.75],
        "properties": { "magmom": 0.001 },
        "label": "Ru",
        "xyz": [-1.2462173967311412, 3.6903187830946127, 6.4325441925]
      },
      {
        "species": [{ "element": "Ru", "occu": 1 }],
        "abc": [0.34374658, 0.17187279, 0.25],
        "properties": { "magmom": 0.001 },
        "label": "Ru",
        "xyz": [1.3265884488702593, 0.7659033269053869, 2.1441813975]
      },
      {
        "species": [{ "element": "Ru", "occu": 1 }],
        "abc": [0.82812721, 0.65625342, 0.25],
        "properties": { "magmom": 0.001 },
        "label": "Ru",
        "xyz": [2.5728032728007006, 2.9244109999671157, 2.1441813975]
      },
      {
        "species": [{ "element": "Ru", "occu": 1 }],
        "abc": [0.0, 0.0, -0.0],
        "properties": { "magmom": -0.0 },
        "label": "Ru",
        "xyz": [0.0, 0.0, 0.0]
      },
      {
        "species": [{ "element": "Ru", "occu": 1 }],
        "abc": [0.65625342, 0.82812721, 0.75],
        "properties": { "magmom": 0.001 },
        "label": "Ru",
        "xyz": [1.2462122511297409, 3.6903187830946127, 6.4325441925]
      },
      {
        "species": [{ "element": "Ru", "occu": 1 }],
        "abc": [0.82812721, 0.17187279, 0.25],
        "properties": { "magmom": 0.001 },
        "label": "Ru",
        "xyz": [3.8190180967311416, 0.7659033269053869, 2.1441813975]
      },
      {
        "species": [{ "element": "Ru", "occu": 1 }],
        "abc": [0.0, 0.0, 0.5],
        "properties": { "magmom": -0.0 },
        "label": "Ru",
        "xyz": [0.0, 0.0, 4.288362795]
      }
    ]
  },
  "task_ids": null,
  "uncorrected_energy_per_atom": null,
  "energy_per_atom": -24.94398363666667,
  "formation_energy_per_atom": -0.41102947166667003,
  "energy_above_hull": 0.08155004833333,
  "is_stable": false,
  "equilibrium_reaction_energy_per_atom": null,
  "decomposes_to": null,
  "xas": null,
  "grain_boundaries": null,
  "band_gap": 0.0,
  "cbm": null,
  "vbm": null,
  "efermi": 6.49738636,
  "is_gap_direct": null,
  "is_metal": null,
  "es_source_calc_id": null,
  "bandstructure": null,
  "dos": null,
  "dos_energy_up": null,
  "dos_energy_down": null,
  "is_magnetic": null,
  "ordering": null,
  "total_magnetization": 0.0017185999999990002,
  "total_magnetization_normalized_vol": null,
  "total_magnetization_normalized_formula_units": null,
  "num_magnetic_sites": null,
  "num_unique_magnetic_sites": null,
  "types_of_magnetic_species": null,
  "bulk_modulus": null,
  "shear_modulus": null,
  "universal_anisotropy": null,
  "homogeneous_poisson": null,
  "e_total": null,
  "e_ionic": null,
  "e_electronic": null,
  "n": null,
  "e_ij_max": null,
  "weighted_surface_energy_EV_PER_ANG2": null,
  "weighted_surface_energy": null,
  "weighted_work_function": null,
  "surface_anisotropy": null,
  "shape_factor": null,
  "has_reconstructed": null,
  "possible_species": null,
  "has_props": null,
  "theoretical": null,
  "database_IDs": null,
  "fields_not_requested": [
    "builder_meta",
    "nsites",
    "elements",
    "nelements",
    "composition",
    "composition_reduced",
    "chemsys",
    "symmetry",
    "property_name",
    "deprecated",
    "deprecation_reasons",
    "last_updated",
    "origins",
    "warnings",
    "task_ids",
    "uncorrected_energy_per_atom",
    "equilibrium_reaction_energy_per_atom",
    "decomposes_to",
    "xas",
    "grain_boundaries",
    "cbm",
    "vbm",
    "is_gap_direct",
    "is_metal",
    "es_source_calc_id",
    "bandstructure",
    "dos",
    "dos_energy_up",
    "dos_energy_down",
    "is_magnetic",
    "ordering",
    "total_magnetization_normalized_vol",
    "total_magnetization_normalized_formula_units",
    "num_magnetic_sites",
    "num_unique_magnetic_sites",
    "types_of_magnetic_species",
    "bulk_modulus",
    "shear_modulus",
    "universal_anisotropy",
    "homogeneous_poisson",
    "e_total",
    "e_ionic",
    "e_electronic",
    "n",
    "e_ij_max",
    "weighted_surface_energy_EV_PER_ANG2",
    "weighted_surface_energy",
    "weighted_work_function",
    "surface_anisotropy",
    "shape_factor",
    "has_reconstructed",
    "possible_species",
    "has_props",
    "theoretical",
    "database_IDs"
  ]
}
