{
  "builder_meta": null,
  "nsites": null,
  "elements": null,
  "nelements": null,
  "composition": null,
  "composition_reduced": null,
  "formula_pretty": "ZrS3",
  "formula_anonymous": "AB3",
  "chemsys": null,
  "volume": 172.4735477620155,
  "density": 3.608861478892194,
  "density_atomic": 21.559193470251937,
  "symmetry": null,
  "property_name": null,
  "material_id": "mp-9921",
  "deprecated": null,
  "deprecation_reasons": null,
  "last_updated": null,
  "origins": null,
  "warnings": null,
  "structure": {
    "@module": "pymatgen.core.structure",
    "@class": "Structure",
    "charge": 0,
    "lattice": {
      "matrix": [
        [3.65162466, 0.0, 0.0],
        [0.0, 5.13581838, -0.66337692],
        [0.0, -0.01002825, 9.19788284]
      ],
      "pbc": [true, true, true],
      "a": 3.65162466,
      "b": 5.1784842734466725,
      "c": 9.197888306788931,
      "alpha": 97.42242662781797,
      "beta": 90.0,
      "gamma": 90.0,
      "volume": 172.4735477620155
    },
    "properties": {},
    "sites": [
      {
        "species": [{ "element": "Zr", "occu": 1 }],
        "abc": [0.25, 0.28475845, 0.65178673],
        "properties": { "magmom": 0.0 },
        "label": "Zr",
        "xyz": [0.912906165, 1.4559314010951885, 5.80615579570174]
      },
      {
        "species": [{ "element": "Zr", "occu": 1 }],
        "abc": [0.75, 0.71524155, 0.34821327],
        "properties": { "magmom": 0.0 },
        "label": "Zr",
        "xyz": [2.738718495, 3.6698587289048112, 2.728350124298261]
      },
      {
        "species": [{ "element": "S", "occu": 1 }],
        "abc": [0.25, 0.8742643800000001, 0.17590559],
        "properties": { "magmom": -0.0 },
        "label": "S",
        "xyz": [0.912906165, 4.488299046550387, 1.0379921960509662]
      },
      {
        "species": [{ "element": "S", "occu": 1 }],
        "abc": [0.75, 0.12573562, 0.82409441],
        "properties": { "magmom": -0.0 },
        "label": "S",
        "xyz": [2.738718495, 0.637491083449613, 7.496513723949034]
      },
      {
        "species": [{ "element": "S", "occu": 1 }],
        "abc": [0.75, 0.23786358, 0.44720625],
        "properties": { "magmom": 0.0 },
        "label": "S",
        "xyz": [2.738718495, 1.2171394500200379, 3.9555574837351766]
      },
      {
        "species": [{ "element": "S", "occu": 1 }],
        "abc": [0.25, 0.76213642, 0.55279375],
        "properties": { "magmom": 0.0 },
        "label": "S",
        "xyz": [0.912906165, 3.9086506799799623, 4.578948436264824]
      },
      {
        "species": [{ "element": "S", "occu": 1 }],
        "abc": [0.75, 0.52338434, 0.82381262],
        "properties": { "magmom": -0.0 },
        "label": "S",
        "xyz": [2.738718495, 2.679745514269654, 7.230130869428009]
      },
      {
        "species": [{ "element": "S", "occu": 1 }],
        "abc": [0.25, 0.47661566, 0.17618738],
        "properties": { "magmom": -0.0 },
        "label": "S",
        "xyz": [0.912906165, 2.446044615730346, 1.304375050571992]
      }
    ]
  },
  "task_ids": null,
  "uncorrected_energy_per_atom": null,
  "energy_per_atom": -6.8147069575,
  "formation_energy_per_atom": -1.574012124374999,
  "energy_above_hull": 0.0,
  "is_stable": true,
  "equilibrium_reaction_energy_per_atom": null,
  "decomposes_to": null,
  "xas": null,
  "grain_boundaries": null,
  "band_gap": 1.113299999999999,
  "cbm": null,
  "vbm": null,
  "efermi": 2.98805215,
  "is_gap_direct": null,
  "is_metal": null,
  "es_source_calc_id": null,
  "bandstructure": null,
  "dos": null,
  "dos_energy_up": null,
  "dos_energy_down": null,
  "is_magnetic": null,
  "ordering": null,
  "total_magnetization": 0.0,
  "total_magnetization_normalized_vol": null,
  "total_magnetization_normalized_formula_units": null,
  "num_magnetic_sites": null,
  "num_unique_magnetic_sites": null,
  "types_of_magnetic_species": null,
  "bulk_modulus": null,
  "shear_modulus": null,
  "universal_anisotropy": null,
  "homogeneous_poisson": null,
  "e_total": null,
  "e_ionic": null,
  "e_electronic": null,
  "n": null,
  "e_ij_max": null,
  "weighted_surface_energy_EV_PER_ANG2": null,
  "weighted_surface_energy": null,
  "weighted_work_function": null,
  "surface_anisotropy": null,
  "shape_factor": null,
  "has_reconstructed": null,
  "possible_species": null,
  "has_props": null,
  "theoretical": null,
  "database_IDs": null,
  "fields_not_requested": [
    "builder_meta",
    "nsites",
    "elements",
    "nelements",
    "composition",
    "composition_reduced",
    "chemsys",
    "symmetry",
    "property_name",
    "deprecated",
    "deprecation_reasons",
    "last_updated",
    "origins",
    "warnings",
    "task_ids",
    "uncorrected_energy_per_atom",
    "equilibrium_reaction_energy_per_atom",
    "decomposes_to",
    "xas",
    "grain_boundaries",
    "cbm",
    "vbm",
    "is_gap_direct",
    "is_metal",
    "es_source_calc_id",
    "bandstructure",
    "dos",
    "dos_energy_up",
    "dos_energy_down",
    "is_magnetic",
    "ordering",
    "total_magnetization_normalized_vol",
    "total_magnetization_normalized_formula_units",
    "num_magnetic_sites",
    "num_unique_magnetic_sites",
    "types_of_magnetic_species",
    "bulk_modulus",
    "shear_modulus",
    "universal_anisotropy",
    "homogeneous_poisson",
    "e_total",
    "e_ionic",
    "e_electronic",
    "n",
    "e_ij_max",
    "weighted_surface_energy_EV_PER_ANG2",
    "weighted_surface_energy",
    "weighted_work_function",
    "surface_anisotropy",
    "shape_factor",
    "has_reconstructed",
    "possible_species",
    "has_props",
    "theoretical",
    "database_IDs"
  ]
}
