{
  "builder_meta": null,
  "nsites": null,
  "elements": null,
  "nelements": null,
  "composition": null,
  "composition_reduced": null,
  "formula_pretty": "ZrSb",
  "formula_anonymous": "AB",
  "chemsys": null,
  "volume": 285.1896869859369,
  "density": 7.440695130988539,
  "density_atomic": 23.76580724882807,
  "symmetry": null,
  "property_name": null,
  "material_id": "mp-10638",
  "deprecated": null,
  "deprecation_reasons": null,
  "last_updated": null,
  "origins": null,
  "warnings": null,
  "structure": {
    "@module": "pymatgen.core.structure",
    "@class": "Structure",
    "charge": 0,
    "lattice": {
      "matrix": [
        [3.84417023, 0.0, -0.0],
        [-1.922084599999999, 5.24681118, -0.0],
        [0.0, -0.0, 14.13955593]
      ],
      "pbc": [true, true, true],
      "a": 3.84417023,
      "b": 5.587793550958209,
      "c": 14.13955593,
      "alpha": 90.0,
      "beta": 90.0,
      "gamma": 110.11949309984044,
      "volume": 285.1896869859369
    },
    "properties": {},
    "sites": [
      {
        "species": [{ "element": "Zr", "occu": 1 }],
        "abc": [0.37787984, 0.75575769, 0.75],
        "properties": { "magmom": -0.0 },
        "label": "Zr",
        "xyz": [4.214164590177205e-6, 3.9653178972629743, 10.6046669475]
      },
      {
        "species": [{ "element": "Zr", "occu": 1 }],
        "abc": [0.62212016, 0.24424231000000002, 0.25],
        "properties": { "magmom": -0.0 },
        "label": "Zr",
        "xyz": [1.9220814158354114, 1.2814932827370258, 3.5348889825]
      },
      {
        "species": [{ "element": "Zr", "occu": 1 }],
        "abc": [0.07199093, 0.14398386, 0.8924967500000001],
        "properties": { "magmom": -0.0 },
        "label": "Zr",
        "xyz": [-3.7700185419597965e-6, 0.7554561263875548, 12.619507713968229]
      },
      {
        "species": [{ "element": "Zr", "occu": 1 }],
        "abc": [0.92800907, 0.85601614, 0.10750325000000001],
        "properties": { "magmom": -0.0 },
        "label": "Zr",
        "xyz": [1.9220894000185431, 4.491355053612446, 1.5200482160317725]
      },
      {
        "species": [{ "element": "Zr", "occu": 1 }],
        "abc": [0.92800907, 0.85601614, 0.39249675],
        "properties": { "magmom": -0.0 },
        "label": "Zr",
        "xyz": [1.9220894000185431, 4.491355053612446, 5.549729748968228]
      },
      {
        "species": [{ "element": "Zr", "occu": 1 }],
        "abc": [0.07199093, 0.14398386, 0.60750325],
        "properties": { "magmom": -0.0 },
        "label": "Zr",
        "xyz": [-3.7700185419597965e-6, 0.7554561263875548, 8.589826181031773]
      },
      {
        "species": [{ "element": "Sb", "occu": 1 }],
        "abc": [0.66729722, 0.33459445, 0.75],
        "properties": { "magmom": 0.0 },
        "label": "Sb",
        "xyz": [1.9220852680952911, 1.7555539010259509, 10.6046669475]
      },
      {
        "species": [{ "element": "Sb", "occu": 1 }],
        "abc": [0.33270278000000003, 0.66540555, 0.25],
        "properties": { "magmom": 0.0 },
        "label": "Sb",
        "xyz": [3.619047101999229e-7, 3.491257278974049, 3.5348889825]
      },
      {
        "species": [{ "element": "Sb", "occu": 1 }],
        "abc": [0.64141965, 0.282839299999999, 0.45098405],
        "properties": { "magmom": 0.0 },
        "label": "Sb",
        "xyz": [1.9220852606622416, 1.4840044013833689, 6.376714198512917]
      },
      {
        "species": [{ "element": "Sb", "occu": 1 }],
        "abc": [0.35858035, 0.7171607, 0.54901595],
        "properties": { "magmom": 0.0 },
        "label": "Sb",
        "xyz": [3.693377612634663e-7, 3.7628067786166257, 7.762841731487084]
      },
      {
        "species": [{ "element": "Sb", "occu": 1 }],
        "abc": [0.35858035, 0.7171607, 0.95098405],
        "properties": { "magmom": 0.0 },
        "label": "Sb",
        "xyz": [3.693377612634663e-7, 3.7628067786166257, 13.446492163512916]
      },
      {
        "species": [{ "element": "Sb", "occu": 1 }],
        "abc": [0.64141965, 0.282839299999999, 0.04901595],
        "properties": { "magmom": 0.0 },
        "label": "Sb",
        "xyz": [1.9220852606622416, 1.4840044013833689, 0.6930637664870836]
      }
    ]
  },
  "task_ids": null,
  "uncorrected_energy_per_atom": null,
  "energy_per_atom": -25.037862987500002,
  "formation_energy_per_atom": -0.8098091699999981,
  "energy_above_hull": 0.0,
  "is_stable": true,
  "equilibrium_reaction_energy_per_atom": null,
  "decomposes_to": null,
  "xas": null,
  "grain_boundaries": null,
  "band_gap": 0.0,
  "cbm": null,
  "vbm": null,
  "efermi": 6.77992531,
  "is_gap_direct": null,
  "is_metal": null,
  "es_source_calc_id": null,
  "bandstructure": null,
  "dos": null,
  "dos_energy_up": null,
  "dos_energy_down": null,
  "is_magnetic": null,
  "ordering": null,
  "total_magnetization": 0.0003048,
  "total_magnetization_normalized_vol": null,
  "total_magnetization_normalized_formula_units": null,
  "num_magnetic_sites": null,
  "num_unique_magnetic_sites": null,
  "types_of_magnetic_species": null,
  "bulk_modulus": null,
  "shear_modulus": null,
  "universal_anisotropy": null,
  "homogeneous_poisson": null,
  "e_total": null,
  "e_ionic": null,
  "e_electronic": null,
  "n": null,
  "e_ij_max": null,
  "weighted_surface_energy_EV_PER_ANG2": null,
  "weighted_surface_energy": null,
  "weighted_work_function": null,
  "surface_anisotropy": null,
  "shape_factor": null,
  "has_reconstructed": null,
  "possible_species": null,
  "has_props": null,
  "theoretical": null,
  "database_IDs": null,
  "fields_not_requested": [
    "builder_meta",
    "nsites",
    "elements",
    "nelements",
    "composition",
    "composition_reduced",
    "chemsys",
    "symmetry",
    "property_name",
    "deprecated",
    "deprecation_reasons",
    "last_updated",
    "origins",
    "warnings",
    "task_ids",
    "uncorrected_energy_per_atom",
    "equilibrium_reaction_energy_per_atom",
    "decomposes_to",
    "xas",
    "grain_boundaries",
    "cbm",
    "vbm",
    "is_gap_direct",
    "is_metal",
    "es_source_calc_id",
    "bandstructure",
    "dos",
    "dos_energy_up",
    "dos_energy_down",
    "is_magnetic",
    "ordering",
    "total_magnetization_normalized_vol",
    "total_magnetization_normalized_formula_units",
    "num_magnetic_sites",
    "num_unique_magnetic_sites",
    "types_of_magnetic_species",
    "bulk_modulus",
    "shear_modulus",
    "universal_anisotropy",
    "homogeneous_poisson",
    "e_total",
    "e_ionic",
    "e_electronic",
    "n",
    "e_ij_max",
    "weighted_surface_energy_EV_PER_ANG2",
    "weighted_surface_energy",
    "weighted_work_function",
    "surface_anisotropy",
    "shape_factor",
    "has_reconstructed",
    "possible_species",
    "has_props",
    "theoretical",
    "database_IDs"
  ]
}
