{"builder_meta": null, "nsites": null, "elements": null, "nelements": null, "composition": null, "composition_reduced": null, "formula_pretty": "ZrSb2", "formula_anonymous": "AB2", "chemsys": null, "volume": 595.1689652261662, "density": 7.471565512139544, "density_atomic": 24.79870688442359, "symmetry": null, "property_name": null, "material_id": "mp-979", "deprecated": null, "deprecation_reasons": null, "last_updated": null, "origins": null, "warnings": null, "structure": {"@module": "pymatgen.core.structure", "@class": "Structure", "charge": 0, "lattice": {"matrix": [[3.934029149999999, 0.0, 0.0], [0.0, 10.05032662, 0.0], [0.0, -0.0, 15.05298149]], "pbc": [true, true, true], "a": 3.934029149999999, "b": 10.05032662, "c": 15.05298149, "alpha": 90.0, "beta": 90.0, "gamma": 90.0, "volume": 595.168965226166}, "properties": {}, "sites": [{"species": [{"element": "Zr", "occu": 1}], "abc": [0.5, 0.66895404, 0.99302553], "properties": {"magmom": -0.0}, "label": "Zr", "xyz": [1.9670145749999994, 6.723206595768545, 14.94799492218744]}, {"species": [{"element": "Zr", "occu": 1}], "abc": [0.5, 0.33104596000000003, 0.00697447], "properties": {"magmom": -0.0}, "label": "Zr", "xyz": [1.9670145749999994, 3.3271200242314554, 0.1049865678125603]}, {"species": [{"element": "Zr", "occu": 1}], "abc": [0.0, 0.16895404, 0.5069744700000001], "properties": {"magmom": -0.0}, "label": "Zr", "xyz": [0.0, 1.6980432857685448, 7.631477312812562]}, {"species": [{"element": "Zr", "occu": 1}], "abc": [-0.0, 0.83104596, 0.49302553], "properties": {"magmom": -0.0}, "label": "Zr", "xyz": [0.0, 8.352283334231455, 7.4215041771874395]}, {"species": [{"element": "Zr", "occu": 1}], "abc": [0.0, 0.97989476, 0.74890132], "properties": {"magmom": -0.0}, "label": "Zr", "xyz": [0.0, 9.84826239122651, 11.273197707796568]}, {"species": [{"element": "Zr", "occu": 1}], "abc": [-0.0, 0.02010524, 0.25109868], "properties": {"magmom": -0.0}, "label": "Zr", "xyz": [0.0, 0.20206422877348879, 3.7797837822034337]}, {"species": [{"element": "Zr", "occu": 1}], "abc": [0.5, 0.47989476000000003, 0.75109868], "properties": {"magmom": -0.0}, "label": "Zr", "xyz": [1.9670145749999994, 4.823099081226512, 11.306274527203433]}, {"species": [{"element": "Zr", "occu": 1}], "abc": [0.5, 0.52010524, 0.24890132], "properties": {"magmom": -0.0}, "label": "Zr", "xyz": [1.9670145749999994, 5.227227538773489, 3.746706962796567]}, {"species": [{"element": "Sb", "occu": 1}], "abc": [0.0, 0.88349731, 0.94179344], "properties": {"magmom": 0.0}, "label": "Sb", "xyz": [0.0, 8.879436533391392, 14.176799219723426]}, {"species": [{"element": "Sb", "occu": 1}], "abc": [0.0, 0.11650269, 0.058206560000000004], "properties": {"magmom": 0.0}, "label": "Sb", "xyz": [0.0, 1.1708900866086078, 0.8761822702765745]}, {"species": [{"element": "Sb", "occu": 1}], "abc": [0.5, 0.38349731000000004, 0.55820656], "properties": {"magmom": 0.0}, "label": "Sb", "xyz": [1.9670145749999994, 3.8542732233913926, 8.402673015276575]}, {"species": [{"element": "Sb", "occu": 1}], "abc": [0.5, 0.61650269, 0.44179344], "properties": {"magmom": 0.0}, "label": "Sb", "xyz": [1.9670145749999994, 6.196053396608608, 6.650308474723426]}, {"species": [{"element": "Sb", "occu": 1}], "abc": [0.0, 0.66279129, 0.65910162], "properties": {"magmom": 0.0}, "label": "Sb", "xyz": [0.0, 6.66126894539114, 9.921444485889015]}, {"species": [{"element": "Sb", "occu": 1}], "abc": [0.0, 0.33720871, 0.34089838], "properties": {"magmom": 0.0}, "label": "Sb", "xyz": [0.0, 3.3890576746088605, 5.131537004110986]}, {"species": [{"element": "Sb", "occu": 1}], "abc": [0.5, 0.16279129, 0.8408983800000001], "properties": {"magmom": 0.0}, "label": "Sb", "xyz": [1.9670145749999994, 1.6361056353911398, 12.658027749110987]}, {"species": [{"element": "Sb", "occu": 1}], "abc": [0.5, 0.83720871, 0.15910162], "properties": {"magmom": 0.0}, "label": "Sb", "xyz": [1.9670145749999994, 8.41422098460886, 2.394953740889014]}, {"species": [{"element": "Sb", "occu": 1}], "abc": [0.5, 0.77131318, 0.80211589], "properties": {"magmom": -0.0}, "label": "Sb", "xyz": [1.9670145749999994, 7.751949385310852, 12.074235645004878]}, {"species": [{"element": "Sb", "occu": 1}], "abc": [0.5, 0.22868682, 0.19788411], "properties": {"magmom": -0.0}, "label": "Sb", "xyz": [1.9670145749999994, 2.2983772346891485, 2.978745844995124]}, {"species": [{"element": "Sb", "occu": 1}], "abc": [-0.0, 0.27131318, 0.6978841100000001], "properties": {"magmom": -0.0}, "label": "Sb", "xyz": [0.0, 2.7267860753108515, 10.505236589995125]}, {"species": [{"element": "Sb", "occu": 1}], "abc": [-0.0, 0.7286868200000001, 0.30211589], "properties": {"magmom": -0.0}, "label": "Sb", "xyz": [0.0, 7.323540544689149, 4.547744900004877]}, {"species": [{"element": "Sb", "occu": 1}], "abc": [0.5, 0.9880450900000001, 0.60244193], "properties": {"magmom": 0.0}, "label": "Sb", "xyz": [1.9670145749999994, 9.930175869787297, 9.068547221089876]}, {"species": [{"element": "Sb", "occu": 1}], "abc": [0.5, 0.011954910000000001, 0.39755807], "properties": {"magmom": 0.0}, "label": "Sb", "xyz": [1.9670145749999994, 0.1201507502127042, 5.984434268910125]}, {"species": [{"element": "Sb", "occu": 1}], "abc": [-0.0, 0.48804509, 0.89755807], "properties": {"magmom": 0.0}, "label": "Sb", "xyz": [0.0, 4.905012559787296, 13.510925013910125]}, {"species": [{"element": "Sb", "occu": 1}], "abc": [0.0, 0.51195491, 0.10244193], "properties": {"magmom": 0.0}, "label": "Sb", "xyz": [0.0, 5.145314060212705, 1.5420564760898758]}]}, "task_ids": null, "uncorrected_energy_per_atom": null, "energy_per_atom": -25.352334917916664, "formation_energy_per_atom": -0.631527129583332, "energy_above_hull": 0.0, "is_stable": true, "equilibrium_reaction_energy_per_atom": null, "decomposes_to": null, "xas": null, "grain_boundaries": null, "band_gap": 0.0, "cbm": null, "vbm": null, "efermi": 7.61738155, "is_gap_direct": null, "is_metal": null, "es_source_calc_id": null, "bandstructure": null, "dos": null, "dos_energy_up": null, "dos_energy_down": null, "is_magnetic": null, "ordering": null, "total_magnetization": 2e-07, "total_magnetization_normalized_vol": null, "total_magnetization_normalized_formula_units": null, "num_magnetic_sites": null, "num_unique_magnetic_sites": null, "types_of_magnetic_species": null, "bulk_modulus": null, "shear_modulus": null, "universal_anisotropy": null, "homogeneous_poisson": null, "e_total": null, "e_ionic": null, "e_electronic": null, "n": null, "e_ij_max": null, "weighted_surface_energy_EV_PER_ANG2": null, "weighted_surface_energy": null, "weighted_work_function": null, "surface_anisotropy": null, "shape_factor": null, "has_reconstructed": null, "possible_species": null, "has_props": null, "theoretical": null, "database_IDs": null, "fields_not_requested": ["builder_meta", "nsites", "elements", "nelements", "composition", "composition_reduced", "chemsys", "symmetry", "property_name", "deprecated", "deprecation_reasons", "last_updated", "origins", "warnings", "task_ids", "uncorrected_energy_per_atom", "equilibrium_reaction_energy_per_atom", "decomposes_to", "xas", "grain_boundaries", "cbm", "vbm", "is_gap_direct", "is_metal", "es_source_calc_id", "bandstructure", "dos", "dos_energy_up", "dos_energy_down", "is_magnetic", "ordering", "total_magnetization_normalized_vol", "total_magnetization_normalized_formula_units", "num_magnetic_sites", "num_unique_magnetic_sites", "types_of_magnetic_species", "bulk_modulus", "shear_modulus", "universal_anisotropy", "homogeneous_poisson", "e_total", "e_ionic", "e_electronic", "n", "e_ij_max", "weighted_surface_energy_EV_PER_ANG2", "weighted_surface_energy", "weighted_work_function", "surface_anisotropy", "shape_factor", "has_reconstructed", "possible_species", "has_props", "theoretical", "database_IDs"]}