{"builder_meta": null, "nsites": null, "elements": null, "nelements": null, "composition": null, "composition_reduced": null, "formula_pretty": "ZrSc2", "formula_anonymous": "AB2", "chemsys": null, "volume": 145.90903190345824, "density": 4.122885447033837, "density_atomic": 24.318171983909707, "symmetry": null, "property_name": null, "material_id": "mp-1077791", "deprecated": null, "deprecation_reasons": null, "last_updated": null, "origins": null, "warnings": null, "structure": {"@module": "pymatgen.core.structure", "@class": "Structure", "charge": 0, "lattice": {"matrix": [[1e-08, 3.29017602, 0.0], [5.7995209899999995, -1.645087489999999, 1.3701837700000001], [-0.01657999, -0.0, -7.65056198]], "pbc": [true, true, true], "a": 3.29017602, "b": 6.182083801338872, "c": 7.65057994572241, "alpha": 102.92470383714421, "beta": 90.00000000037738, "gamma": 105.4326614729333, "volume": 145.9090319034582}, "properties": {}, "sites": [{"species": [{"element": "Zr", "occu": 1}], "abc": [0.47830712000000003, 0.95661423, 0.19159084], "properties": {"magmom": -0.053}, "label": "Zr", "xyz": [5.544727736789467, 5.138902807733103e-07, -0.155040304123216]}, {"species": [{"element": "Zr", "occu": 1}], "abc": [0.52169288, 0.043385770000000004, 0.8084091600000001], "properties": {"magmom": -0.053}, "label": "Zr", "xyz": [0.23821327321053265, 1.6450880161097206, -6.125337905876784]}, {"species": [{"element": "Sc", "occu": 1}], "abc": [0.80756108, 0.61512115, 0.86199284], "properties": {"magmom": 0.169}, "label": "Sc", "xyz": [3.5531161962262776, 1.6450899914018888, -5.751900632422488]}, {"species": [{"element": "Sc", "occu": 1}], "abc": [0.19243892, 0.38487885, 0.13800716], "properties": {"magmom": 0.169}, "label": "Sc", "xyz": [2.229824813773722, -1.4614018877256996e-06, -0.5284775775775122]}, {"species": [{"element": "Sc", "occu": 1}], "abc": [0.866308699999999, 0.7326174, 0.47028704], "properties": {"magmom": 0.215}, "label": "Sc", "xyz": [4.241032643181983, 1.6450883909610456, -2.594139676811141]}, {"species": [{"element": "Sc", "occu": 1}], "abc": [0.133691299999999, 0.267382599999999, 0.52971296], "properties": {"magmom": 0.215}, "label": "Sc", "xyz": [1.541908366818011, 1.3903895063061e-07, -3.68623853318886]}]}, "task_ids": null, "uncorrected_energy_per_atom": null, "energy_per_atom": -15.185654356666667, "formation_energy_per_atom": -0.0033988183333350003, "energy_above_hull": 0.0034562811111090003, "is_stable": false, "equilibrium_reaction_energy_per_atom": null, "decomposes_to": null, "xas": null, "grain_boundaries": null, "band_gap": 0.0, "cbm": null, "vbm": null, "efermi": 3.91637662, "is_gap_direct": null, "is_metal": null, "es_source_calc_id": null, "bandstructure": null, "dos": null, "dos_energy_up": null, "dos_energy_down": null, "is_magnetic": null, "ordering": null, "total_magnetization": 1.1992638, "total_magnetization_normalized_vol": null, "total_magnetization_normalized_formula_units": null, "num_magnetic_sites": null, "num_unique_magnetic_sites": null, "types_of_magnetic_species": null, "bulk_modulus": null, "shear_modulus": null, "universal_anisotropy": null, "homogeneous_poisson": null, "e_total": null, "e_ionic": null, "e_electronic": null, "n": null, "e_ij_max": null, "weighted_surface_energy_EV_PER_ANG2": null, "weighted_surface_energy": null, "weighted_work_function": null, "surface_anisotropy": null, "shape_factor": null, "has_reconstructed": null, "possible_species": null, "has_props": null, "theoretical": null, "database_IDs": null, "fields_not_requested": ["builder_meta", "nsites", "elements", "nelements", "composition", "composition_reduced", "chemsys", "symmetry", "property_name", "deprecated", "deprecation_reasons", "last_updated", "origins", "warnings", "task_ids", "uncorrected_energy_per_atom", "equilibrium_reaction_energy_per_atom", "decomposes_to", "xas", "grain_boundaries", "cbm", "vbm", "is_gap_direct", "is_metal", "es_source_calc_id", "bandstructure", "dos", "dos_energy_up", "dos_energy_down", "is_magnetic", "ordering", "total_magnetization_normalized_vol", "total_magnetization_normalized_formula_units", "num_magnetic_sites", "num_unique_magnetic_sites", "types_of_magnetic_species", "bulk_modulus", "shear_modulus", "universal_anisotropy", "homogeneous_poisson", "e_total", "e_ionic", "e_electronic", "n", "e_ij_max", "weighted_surface_energy_EV_PER_ANG2", "weighted_surface_energy", "weighted_work_function", "surface_anisotropy", "shape_factor", "has_reconstructed", "possible_species", "has_props", "theoretical", "database_IDs"]}