{"builder_meta": null, "nsites": null, "elements": null, "nelements": null, "composition": null, "composition_reduced": null, "formula_pretty": "ZrSc", "formula_anonymous": "AB", "chemsys": null, "volume": 48.11274984875491, "density": 4.700044472058005, "density_atomic": 24.056374924377455, "symmetry": null, "property_name": null, "material_id": "mp-1215201", "deprecated": null, "deprecation_reasons": null, "last_updated": null, "origins": null, "warnings": null, "structure": {"@module": "pymatgen.core.structure", "@class": "Structure", "charge": 0, "lattice": {"matrix": [[1.64141996, -2.843029409999999, 0.0], [1.64141996, 2.843029409999999, 0.0], [0.0, 0.0, 5.15500536]], "pbc": [true, true, true], "a": 3.2828456727679636, "b": 3.2828456727679636, "c": 5.15500536, "alpha": 90.0, "beta": 90.0, "gamma": 120.00011593598713, "volume": 48.112749848754895}, "properties": {}, "sites": [{"species": [{"element": "Zr", "occu": 1}], "abc": [0.99999998, 2e-08, -0.0], "properties": {"magmom": 0.004}, "label": "Zr", "xyz": [1.64141996, -2.8430292962788224, 0.0]}, {"species": [{"element": "Sc", "occu": 1}], "abc": [0.33333302, 0.66666698, 0.5], "properties": {"magmom": 0.026000000000000002}, "label": "Sc", "xyz": [1.64141996, 0.9476782516317633, 2.57750268]}]}, "task_ids": null, "uncorrected_energy_per_atom": null, "energy_per_atom": -17.048447835, "formation_energy_per_atom": 0.025691794999996003, "energy_above_hull": 0.035974444166665, "is_stable": false, "equilibrium_reaction_energy_per_atom": null, "decomposes_to": null, "xas": null, "grain_boundaries": null, "band_gap": 0.0, "cbm": null, "vbm": null, "efermi": 4.07882426, "is_gap_direct": null, "is_metal": null, "es_source_calc_id": null, "bandstructure": null, "dos": null, "dos_energy_up": null, "dos_energy_down": null, "is_magnetic": null, "ordering": null, "total_magnetization": 0.0582983, "total_magnetization_normalized_vol": null, "total_magnetization_normalized_formula_units": null, "num_magnetic_sites": null, "num_unique_magnetic_sites": null, "types_of_magnetic_species": null, "bulk_modulus": null, "shear_modulus": null, "universal_anisotropy": null, "homogeneous_poisson": null, "e_total": null, "e_ionic": null, "e_electronic": null, "n": null, "e_ij_max": null, "weighted_surface_energy_EV_PER_ANG2": null, "weighted_surface_energy": null, "weighted_work_function": null, "surface_anisotropy": null, "shape_factor": null, "has_reconstructed": null, "possible_species": null, "has_props": null, "theoretical": null, "database_IDs": null, "fields_not_requested": ["builder_meta", "nsites", "elements", "nelements", "composition", "composition_reduced", "chemsys", "symmetry", "property_name", "deprecated", "deprecation_reasons", "last_updated", "origins", "warnings", "task_ids", "uncorrected_energy_per_atom", "equilibrium_reaction_energy_per_atom", "decomposes_to", "xas", "grain_boundaries", "cbm", "vbm", "is_gap_direct", "is_metal", "es_source_calc_id", "bandstructure", "dos", "dos_energy_up", "dos_energy_down", "is_magnetic", "ordering", "total_magnetization_normalized_vol", "total_magnetization_normalized_formula_units", "num_magnetic_sites", "num_unique_magnetic_sites", "types_of_magnetic_species", "bulk_modulus", "shear_modulus", "universal_anisotropy", "homogeneous_poisson", "e_total", "e_ionic", "e_electronic", "n", "e_ij_max", "weighted_surface_energy_EV_PER_ANG2", "weighted_surface_energy", "weighted_work_function", "surface_anisotropy", "shape_factor", "has_reconstructed", "possible_species", "has_props", "theoretical", "database_IDs"]}