{
  "builder_meta": null,
  "nsites": null,
  "elements": null,
  "nelements": null,
  "composition": null,
  "composition_reduced": null,
  "formula_pretty": "ZrSe3",
  "formula_anonymous": "AB3",
  "chemsys": null,
  "volume": 199.4116018231838,
  "density": 5.464371229421456,
  "density_atomic": 24.926450227897973,
  "symmetry": null,
  "property_name": null,
  "material_id": "mp-1683",
  "deprecated": null,
  "deprecation_reasons": null,
  "last_updated": null,
  "origins": null,
  "warnings": null,
  "structure": {
    "@module": "pymatgen.core.structure",
    "@class": "Structure",
    "charge": 0,
    "lattice": {
      "matrix": [
        [3.77994874, 0.0, 0.0],
        [0.0, 5.43219527, -0.72503873],
        [0.0, -0.00080795, 9.71167099]
      ],
      "pbc": [true, true, true],
      "a": 3.77994874,
      "b": 5.48036737923749,
      "c": 9.711671023608181,
      "alpha": 97.60714111611556,
      "beta": 90.0,
      "gamma": 90.0,
      "volume": 199.4116018231838
    },
    "properties": {},
    "sites": [
      {
        "species": [{ "element": "Zr", "occu": 1 }],
        "abc": [0.75, 0.28554667, 0.65320919],
        "properties": { "magmom": 0.0 },
        "label": "Zr",
        "xyz": [2.834961555, 1.5506175097731905, 6.136720345951868]
      },
      {
        "species": [{ "element": "Zr", "occu": 1 }],
        "abc": [0.25, 0.71445333, 0.34679081],
        "properties": { "magmom": 0.0 },
        "label": "Zr",
        "xyz": [0.944987185, 3.88076981022681, 2.849911914048131]
      },
      {
        "species": [{ "element": "Se", "occu": 1 }],
        "abc": [0.25, 0.11356421, 0.82422037],
        "properties": { "magmom": 0.0 },
        "label": "Se",
        "xyz": [0.944987185, 0.6162370355553453, 7.922218606104213]
      },
      {
        "species": [{ "element": "Se", "occu": 1 }],
        "abc": [0.75, 0.8864357900000001, 0.17577963],
        "properties": { "magmom": 0.0 },
        "label": "Se",
        "xyz": [2.834961555, 4.815150284444655, 1.064413653895787]
      },
      {
        "species": [{ "element": "Se", "occu": 1 }],
        "abc": [0.25, 0.54086716, 0.82161737],
        "properties": { "magmom": -0.0 },
        "label": "Se",
        "xyz": [0.944987185, 2.937432202496242, 7.58712793832399]
      },
      {
        "species": [{ "element": "Se", "occu": 1 }],
        "abc": [0.75, 0.45913284, 0.17838263000000001],
        "properties": { "magmom": -0.0 },
        "label": "Se",
        "xyz": [2.834961555, 2.4939551175037584, 1.3995043216760106]
      },
      {
        "species": [{ "element": "Se", "occu": 1 }],
        "abc": [0.25, 0.23775297, 0.44726858],
        "properties": { "magmom": 0.0 },
        "label": "Se",
        "xyz": [0.944987185, 1.2911591884132412, 4.171345181701966]
      },
      {
        "species": [{ "element": "Se", "occu": 1 }],
        "abc": [0.75, 0.76224703, 0.55273142],
        "properties": { "magmom": 0.0 },
        "label": "Se",
        "xyz": [2.834961555, 4.14022813158676, 4.8152870782980335]
      }
    ]
  },
  "task_ids": null,
  "uncorrected_energy_per_atom": null,
  "energy_per_atom": -17.6578893825,
  "formation_energy_per_atom": -1.236771233046873,
  "energy_above_hull": 0.0,
  "is_stable": true,
  "equilibrium_reaction_energy_per_atom": null,
  "decomposes_to": null,
  "xas": null,
  "grain_boundaries": null,
  "band_gap": 0.39790000000000003,
  "cbm": null,
  "vbm": null,
  "efermi": 3.04578164,
  "is_gap_direct": null,
  "is_metal": null,
  "es_source_calc_id": null,
  "bandstructure": null,
  "dos": null,
  "dos_energy_up": null,
  "dos_energy_down": null,
  "is_magnetic": null,
  "ordering": null,
  "total_magnetization": 0.0,
  "total_magnetization_normalized_vol": null,
  "total_magnetization_normalized_formula_units": null,
  "num_magnetic_sites": null,
  "num_unique_magnetic_sites": null,
  "types_of_magnetic_species": null,
  "bulk_modulus": null,
  "shear_modulus": null,
  "universal_anisotropy": null,
  "homogeneous_poisson": null,
  "e_total": null,
  "e_ionic": null,
  "e_electronic": null,
  "n": null,
  "e_ij_max": null,
  "weighted_surface_energy_EV_PER_ANG2": null,
  "weighted_surface_energy": null,
  "weighted_work_function": null,
  "surface_anisotropy": null,
  "shape_factor": null,
  "has_reconstructed": null,
  "possible_species": null,
  "has_props": null,
  "theoretical": null,
  "database_IDs": null,
  "fields_not_requested": [
    "builder_meta",
    "nsites",
    "elements",
    "nelements",
    "composition",
    "composition_reduced",
    "chemsys",
    "symmetry",
    "property_name",
    "deprecated",
    "deprecation_reasons",
    "last_updated",
    "origins",
    "warnings",
    "task_ids",
    "uncorrected_energy_per_atom",
    "equilibrium_reaction_energy_per_atom",
    "decomposes_to",
    "xas",
    "grain_boundaries",
    "cbm",
    "vbm",
    "is_gap_direct",
    "is_metal",
    "es_source_calc_id",
    "bandstructure",
    "dos",
    "dos_energy_up",
    "dos_energy_down",
    "is_magnetic",
    "ordering",
    "total_magnetization_normalized_vol",
    "total_magnetization_normalized_formula_units",
    "num_magnetic_sites",
    "num_unique_magnetic_sites",
    "types_of_magnetic_species",
    "bulk_modulus",
    "shear_modulus",
    "universal_anisotropy",
    "homogeneous_poisson",
    "e_total",
    "e_ionic",
    "e_electronic",
    "n",
    "e_ij_max",
    "weighted_surface_energy_EV_PER_ANG2",
    "weighted_surface_energy",
    "weighted_work_function",
    "surface_anisotropy",
    "shape_factor",
    "has_reconstructed",
    "possible_species",
    "has_props",
    "theoretical",
    "database_IDs"
  ]
}
