{
  "builder_meta": null,
  "nsites": null,
  "elements": null,
  "nelements": null,
  "composition": null,
  "composition_reduced": null,
  "formula_pretty": "ZrSi2",
  "formula_anonymous": "AB2",
  "chemsys": null,
  "volume": 100.60594015713828,
  "density": 4.865620366734198,
  "density_atomic": 16.76765669285638,
  "symmetry": null,
  "property_name": null,
  "material_id": "mp-1515",
  "deprecated": null,
  "deprecation_reasons": null,
  "last_updated": null,
  "origins": null,
  "warnings": null,
  "structure": {
    "@module": "pymatgen.core.structure",
    "@class": "Structure",
    "charge": 0,
    "lattice": {
      "matrix": [
        [3.67325121, 0.0, -0.0],
        [0.0, 3.569590299999999, -0.9088900000000001],
        [-0.0, 0.04991124, 7.66010471]
      ],
      "pbc": [true, true, true],
      "a": 3.67325121,
      "b": 3.6834842122580196,
      "c": 7.66026731257092,
      "alpha": 103.91180169802173,
      "beta": 90.0,
      "gamma": 90.0,
      "volume": 100.60594015713824
    },
    "properties": {},
    "sites": [
      {
        "species": [{ "element": "Zr", "occu": 1 }],
        "abc": [0.75, 0.10591187, 0.21182374],
        "properties": { "magmom": 0.0 },
        "label": "Zr",
        "xyz": [2.7549384075, 0.3886343693316985, 1.5263297889395153]
      },
      {
        "species": [{ "element": "Zr", "occu": 1 }],
        "abc": [0.25, 0.89408813, 0.78817626],
        "properties": { "magmom": 0.0 },
        "label": "Zr",
        "xyz": [0.9183128025, 3.2308671706683003, 5.224884921060484]
      },
      {
        "species": [{ "element": "Si", "occu": 1 }],
        "abc": [0.25, 0.55146092, 0.10292284],
        "properties": { "magmom": 0.0 },
        "label": "Si",
        "xyz": [0.9183128025, 1.9736265574297969, 0.2871824158717763]
      },
      {
        "species": [{ "element": "Si", "occu": 1 }],
        "abc": [0.75, 0.44853908000000003, 0.89707716],
        "properties": { "magmom": 0.0 },
        "label": "Si",
        "xyz": [2.7549384075, 1.645874982570202, 6.4640322941282236]
      },
      {
        "species": [{ "element": "Si", "occu": 1 }],
        "abc": [0.75, 0.7497504700000001, 0.49950195000000003],
        "properties": { "magmom": 0.0 },
        "label": "Si",
        "xyz": [2.7549384075, 2.7012327668393583, 3.1447965351708844]
      },
      {
        "species": [{ "element": "Si", "occu": 1 }],
        "abc": [0.25, 0.25024953, 0.50049805],
        "properties": { "magmom": 0.0 },
        "label": "Si",
        "xyz": [0.9183128025, 0.9182687731606407, 3.6064181748291158]
      }
    ]
  },
  "task_ids": null,
  "uncorrected_energy_per_atom": null,
  "energy_per_atom": -14.0896099,
  "formation_energy_per_atom": -0.6571695349999991,
  "energy_above_hull": 0.0,
  "is_stable": true,
  "equilibrium_reaction_energy_per_atom": null,
  "decomposes_to": null,
  "xas": null,
  "grain_boundaries": null,
  "band_gap": 0.0,
  "cbm": null,
  "vbm": null,
  "efermi": 7.91485625,
  "is_gap_direct": null,
  "is_metal": null,
  "es_source_calc_id": null,
  "bandstructure": null,
  "dos": null,
  "dos_energy_up": null,
  "dos_energy_down": null,
  "is_magnetic": null,
  "ordering": null,
  "total_magnetization": 0.0,
  "total_magnetization_normalized_vol": null,
  "total_magnetization_normalized_formula_units": null,
  "num_magnetic_sites": null,
  "num_unique_magnetic_sites": null,
  "types_of_magnetic_species": null,
  "bulk_modulus": null,
  "shear_modulus": null,
  "universal_anisotropy": null,
  "homogeneous_poisson": null,
  "e_total": null,
  "e_ionic": null,
  "e_electronic": null,
  "n": null,
  "e_ij_max": null,
  "weighted_surface_energy_EV_PER_ANG2": null,
  "weighted_surface_energy": null,
  "weighted_work_function": null,
  "surface_anisotropy": null,
  "shape_factor": null,
  "has_reconstructed": null,
  "possible_species": null,
  "has_props": null,
  "theoretical": null,
  "database_IDs": null,
  "fields_not_requested": [
    "builder_meta",
    "nsites",
    "elements",
    "nelements",
    "composition",
    "composition_reduced",
    "chemsys",
    "symmetry",
    "property_name",
    "deprecated",
    "deprecation_reasons",
    "last_updated",
    "origins",
    "warnings",
    "task_ids",
    "uncorrected_energy_per_atom",
    "equilibrium_reaction_energy_per_atom",
    "decomposes_to",
    "xas",
    "grain_boundaries",
    "cbm",
    "vbm",
    "is_gap_direct",
    "is_metal",
    "es_source_calc_id",
    "bandstructure",
    "dos",
    "dos_energy_up",
    "dos_energy_down",
    "is_magnetic",
    "ordering",
    "total_magnetization_normalized_vol",
    "total_magnetization_normalized_formula_units",
    "num_magnetic_sites",
    "num_unique_magnetic_sites",
    "types_of_magnetic_species",
    "bulk_modulus",
    "shear_modulus",
    "universal_anisotropy",
    "homogeneous_poisson",
    "e_total",
    "e_ionic",
    "e_electronic",
    "n",
    "e_ij_max",
    "weighted_surface_energy_EV_PER_ANG2",
    "weighted_surface_energy",
    "weighted_work_function",
    "surface_anisotropy",
    "shape_factor",
    "has_reconstructed",
    "possible_species",
    "has_props",
    "theoretical",
    "database_IDs"
  ]
}
