{"builder_meta": null, "nsites": null, "elements": null, "nelements": null, "composition": null, "composition_reduced": null, "formula_pretty": "ZrSi", "formula_anonymous": "AB", "chemsys": null, "volume": 70.46834914033322, "density": 5.622895617207469, "density_atomic": 17.617087285083304, "symmetry": null, "property_name": null, "material_id": "mp-11322", "deprecated": null, "deprecation_reasons": null, "last_updated": null, "origins": null, "warnings": null, "structure": {"@module": "pymatgen.core.structure", "@class": "Structure", "charge": 0, "lattice": {"matrix": [[3.75684459, 0.0, -0.0], [0.0, 3.52594787, -1.33827394], [-0.0, 0.00190953, 5.31907126]], "pbc": [true, true, true], "a": 3.75684459, "b": 3.7713771384523, "c": 5.3190716027576475, "alpha": 110.76369489350218, "beta": 90.0, "gamma": 90.0, "volume": 70.46834914033322}, "properties": {}, "sites": [{"species": [{"element": "Zr", "occu": 1}], "abc": [0.25, 0.35485143, 0.70970186], "properties": {"magmom": 0.0}, "label": "Zr", "xyz": [0.9392111475, 1.2525428407676802, 3.3000663453538097]}, {"species": [{"element": "Zr", "occu": 1}], "abc": [0.75, 0.64514857, 0.29029814], "properties": {"magmom": 0.0}, "label": "Zr", "xyz": [2.8176334425, 2.2753145592323203, 0.6807309746461904]}, {"species": [{"element": "Si", "occu": 1}], "abc": [0.25, 0.07815004, 0.15630008], "properties": {"magmom": -0.0}, "label": "Si", "xyz": [0.9392111475, 0.2758514267701772, 0.7267851015217434]}, {"species": [{"element": "Si", "occu": 1}], "abc": [0.75, 0.92184996, 0.84369992], "properties": {"magmom": -0.0}, "label": "Si", "xyz": [2.8176334425, 3.2520059732298225, 3.254012218478257]}]}, "task_ids": null, "uncorrected_energy_per_atom": null, "energy_per_atom": -16.7457848125, "formation_energy_per_atom": -0.9840065624999991, "energy_above_hull": 0.0, "is_stable": true, "equilibrium_reaction_energy_per_atom": null, "decomposes_to": null, "xas": null, "grain_boundaries": null, "band_gap": 0.0, "cbm": null, "vbm": null, "efermi": 7.03939761, "is_gap_direct": null, "is_metal": null, "es_source_calc_id": null, "bandstructure": null, "dos": null, "dos_energy_up": null, "dos_energy_down": null, "is_magnetic": null, "ordering": null, "total_magnetization": 6e-07, "total_magnetization_normalized_vol": null, "total_magnetization_normalized_formula_units": null, "num_magnetic_sites": null, "num_unique_magnetic_sites": null, "types_of_magnetic_species": null, "bulk_modulus": null, "shear_modulus": null, "universal_anisotropy": null, "homogeneous_poisson": null, "e_total": null, "e_ionic": null, "e_electronic": null, "n": null, "e_ij_max": null, "weighted_surface_energy_EV_PER_ANG2": null, "weighted_surface_energy": null, "weighted_work_function": null, "surface_anisotropy": null, "shape_factor": null, "has_reconstructed": null, "possible_species": null, "has_props": null, "theoretical": null, "database_IDs": null, "fields_not_requested": ["builder_meta", "nsites", "elements", "nelements", "composition", "composition_reduced", "chemsys", "symmetry", "property_name", "deprecated", "deprecation_reasons", "last_updated", "origins", "warnings", "task_ids", "uncorrected_energy_per_atom", "equilibrium_reaction_energy_per_atom", "decomposes_to", "xas", "grain_boundaries", "cbm", "vbm", "is_gap_direct", "is_metal", "es_source_calc_id", "bandstructure", "dos", "dos_energy_up", "dos_energy_down", "is_magnetic", "ordering", "total_magnetization_normalized_vol", "total_magnetization_normalized_formula_units", "num_magnetic_sites", "num_unique_magnetic_sites", "types_of_magnetic_species", "bulk_modulus", "shear_modulus", "universal_anisotropy", "homogeneous_poisson", "e_total", "e_ionic", "e_electronic", "n", "e_ij_max", "weighted_surface_energy_EV_PER_ANG2", "weighted_surface_energy", "weighted_work_function", "surface_anisotropy", "shape_factor", "has_reconstructed", "possible_species", "has_props", "theoretical", "database_IDs"]}