{"builder_meta": null, "nsites": null, "elements": null, "nelements": null, "composition": null, "composition_reduced": null, "formula_pretty": "ZrSn", "formula_anonymous": "AB", "chemsys": null, "volume": 182.42447863017557, "density": 7.643790154156218, "density_atomic": 22.803059828771946, "symmetry": null, "property_name": null, "material_id": "mp-1094260", "deprecated": null, "deprecation_reasons": null, "last_updated": null, "origins": null, "warnings": null, "structure": {"@module": "pymatgen.core.structure", "@class": "Structure", "charge": 0, "lattice": {"matrix": [[5.263281, 0.0, 0.0], [0.0, 5.8034859999999995, 0.0], [0.0, 0.0, 5.972245]], "pbc": [true, true, true], "a": 5.263281, "b": 5.8034859999999995, "c": 5.972245, "alpha": 90.0, "beta": 90.0, "gamma": 90.0, "volume": 182.42447863017554}, "properties": {}, "sites": [{"species": [{"element": "Zr", "occu": 1}], "abc": [0.25, 0.104932, 0.875136999999999], "properties": {"magmom": 0.0}, "label": "Zr", "xyz": [1.31582025, 0.608971392952, 5.226532572564994]}, {"species": [{"element": "Zr", "occu": 1}], "abc": [0.25, 0.604932, 0.624863], "properties": {"magmom": -0.0}, "label": "Zr", "xyz": [1.31582025, 3.510714392952, 3.7318349274349996]}, {"species": [{"element": "Zr", "occu": 1}], "abc": [0.75, 0.395068, 0.375137], "properties": {"magmom": -0.001}, "label": "Zr", "xyz": [3.9474607500000003, 2.2927716070479995, 2.240410072565]}, {"species": [{"element": "Zr", "occu": 1}], "abc": [0.75, 0.895068, 0.12486299999999902], "properties": {"magmom": -0.0}, "label": "Zr", "xyz": [3.9474607500000003, 5.194514607047999, 0.7457124274349941]}, {"species": [{"element": "Sn", "occu": 1}], "abc": [0.25, 0.106248, 0.375013], "properties": {"magmom": -0.0}, "label": "Sn", "xyz": [1.31582025, 0.616608780528, 2.239669514185]}, {"species": [{"element": "Sn", "occu": 1}], "abc": [0.25, 0.606248, 0.124987], "properties": {"magmom": 0.0}, "label": "Sn", "xyz": [1.31582025, 3.5183517805279996, 0.746452985815]}, {"species": [{"element": "Sn", "occu": 1}], "abc": [0.75, 0.393752, 0.875012999999999], "properties": {"magmom": -0.0}, "label": "Sn", "xyz": [3.9474607500000003, 2.285134219472, 5.225792014184995]}, {"species": [{"element": "Sn", "occu": 1}], "abc": [0.75, 0.893752, 0.624987], "properties": {"magmom": -0.0}, "label": "Sn", "xyz": [3.9474607500000003, 5.186877219472, 3.732575485815]}]}, "task_ids": null, "uncorrected_energy_per_atom": null, "energy_per_atom": -24.196802632083333, "formation_energy_per_atom": -0.44881478958333404, "energy_above_hull": 0.15332876458333503, "is_stable": false, "equilibrium_reaction_energy_per_atom": null, "decomposes_to": null, "xas": null, "grain_boundaries": null, "band_gap": 0.0, "cbm": null, "vbm": null, "efermi": 7.5085729, "is_gap_direct": null, "is_metal": null, "es_source_calc_id": null, "bandstructure": null, "dos": null, "dos_energy_up": null, "dos_energy_down": null, "is_magnetic": null, "ordering": null, "total_magnetization": 0.0016512999999990002, "total_magnetization_normalized_vol": null, "total_magnetization_normalized_formula_units": null, "num_magnetic_sites": null, "num_unique_magnetic_sites": null, "types_of_magnetic_species": null, "bulk_modulus": null, "shear_modulus": null, "universal_anisotropy": null, "homogeneous_poisson": null, "e_total": null, "e_ionic": null, "e_electronic": null, "n": null, "e_ij_max": null, "weighted_surface_energy_EV_PER_ANG2": null, "weighted_surface_energy": null, "weighted_work_function": null, "surface_anisotropy": null, "shape_factor": null, "has_reconstructed": null, "possible_species": null, "has_props": null, "theoretical": null, "database_IDs": null, "fields_not_requested": ["builder_meta", "nsites", "elements", "nelements", "composition", "composition_reduced", "chemsys", "symmetry", "property_name", "deprecated", "deprecation_reasons", "last_updated", "origins", "warnings", "task_ids", "uncorrected_energy_per_atom", "equilibrium_reaction_energy_per_atom", "decomposes_to", "xas", "grain_boundaries", "cbm", "vbm", "is_gap_direct", "is_metal", "es_source_calc_id", "bandstructure", "dos", "dos_energy_up", "dos_energy_down", "is_magnetic", "ordering", "total_magnetization_normalized_vol", "total_magnetization_normalized_formula_units", "num_magnetic_sites", "num_unique_magnetic_sites", "types_of_magnetic_species", "bulk_modulus", "shear_modulus", "universal_anisotropy", "homogeneous_poisson", "e_total", "e_ionic", "e_electronic", "n", "e_ij_max", "weighted_surface_energy_EV_PER_ANG2", "weighted_surface_energy", "weighted_work_function", "surface_anisotropy", "shape_factor", "has_reconstructed", "possible_species", "has_props", "theoretical", "database_IDs"]}