{"builder_meta": null, "nsites": null, "elements": null, "nelements": null, "composition": null, "composition_reduced": null, "formula_pretty": "ZrSn2", "formula_anonymous": "AB2", "chemsys": null, "volume": 137.00283988198353, "density": 7.966640713050733, "density_atomic": 22.833806646997257, "symmetry": null, "property_name": null, "material_id": "mp-755328", "deprecated": null, "deprecation_reasons": null, "last_updated": null, "origins": null, "warnings": null, "structure": {"@module": "pymatgen.core.structure", "@class": "Structure", "charge": 0, "lattice": {"matrix": [[0.0, -2.85244732, -4.97110963], [4.83090615, -2.85244732, -0.0], [-4.83090615, -2.85244732, 0.0]], "pbc": [true, true, true], "a": 5.731351207774125, "b": 5.6101791364878, "c": 5.6101791364878, "alpha": 118.87986466430853, "beta": 75.34209742598509, "gamma": 75.34209742598509, "volume": 137.00283988198353}, "properties": {}, "sites": [{"species": [{"element": "Zr", "occu": 1}], "abc": [0.5, 0.25, 0.75], "properties": {"magmom": 0.0}, "label": "Zr", "xyz": [-2.4154530749999994, -4.27867098, -2.485554815]}, {"species": [{"element": "Zr", "occu": 1}], "abc": [-0.0, -0.0, 0.0], "properties": {"magmom": 0.0}, "label": "Zr", "xyz": [0.0, 0.0, 0.0]}, {"species": [{"element": "Sn", "occu": 1}], "abc": [0.0, 0.33075491, 0.66924509], "properties": {"magmom": -0.0}, "label": "Sn", "xyz": [-1.6352142922766069, -2.85244732, 0.0]}, {"species": [{"element": "Sn", "occu": 1}], "abc": [0.5, 0.58075491, 0.41924509], "properties": {"magmom": -0.0}, "label": "Sn", "xyz": [0.7802387827233934, -4.27867098, -2.485554815]}, {"species": [{"element": "Sn", "occu": 1}], "abc": [-0.0, 0.66924509, 0.33075491], "properties": {"magmom": -0.0}, "label": "Sn", "xyz": [1.6352142922766069, -2.85244732, 0.0]}, {"species": [{"element": "Sn", "occu": 1}], "abc": [0.5, 0.91924509, 0.08075491], "properties": {"magmom": -0.0}, "label": "Sn", "xyz": [4.050667367276607, -4.278670979999999, -2.485554815]}]}, "task_ids": null, "uncorrected_energy_per_atom": null, "energy_per_atom": -24.518281081666668, "formation_energy_per_atom": -0.43756126, "energy_above_hull": 0.0, "is_stable": true, "equilibrium_reaction_energy_per_atom": null, "decomposes_to": null, "xas": null, "grain_boundaries": null, "band_gap": 0.0, "cbm": null, "vbm": null, "efermi": 8.25123317, "is_gap_direct": null, "is_metal": null, "es_source_calc_id": null, "bandstructure": null, "dos": null, "dos_energy_up": null, "dos_energy_down": null, "is_magnetic": null, "ordering": null, "total_magnetization": 6e-07, "total_magnetization_normalized_vol": null, "total_magnetization_normalized_formula_units": null, "num_magnetic_sites": null, "num_unique_magnetic_sites": null, "types_of_magnetic_species": null, "bulk_modulus": null, "shear_modulus": null, "universal_anisotropy": null, "homogeneous_poisson": null, "e_total": null, "e_ionic": null, "e_electronic": null, "n": null, "e_ij_max": null, "weighted_surface_energy_EV_PER_ANG2": null, "weighted_surface_energy": null, "weighted_work_function": null, "surface_anisotropy": null, "shape_factor": null, "has_reconstructed": null, "possible_species": null, "has_props": null, "theoretical": null, "database_IDs": null, "fields_not_requested": ["builder_meta", "nsites", "elements", "nelements", "composition", "composition_reduced", "chemsys", "symmetry", "property_name", "deprecated", "deprecation_reasons", "last_updated", "origins", "warnings", "task_ids", "uncorrected_energy_per_atom", "equilibrium_reaction_energy_per_atom", "decomposes_to", "xas", "grain_boundaries", "cbm", "vbm", "is_gap_direct", "is_metal", "es_source_calc_id", "bandstructure", "dos", "dos_energy_up", "dos_energy_down", "is_magnetic", "ordering", "total_magnetization_normalized_vol", "total_magnetization_normalized_formula_units", "num_magnetic_sites", "num_unique_magnetic_sites", "types_of_magnetic_species", "bulk_modulus", "shear_modulus", "universal_anisotropy", "homogeneous_poisson", "e_total", "e_ionic", "e_electronic", "n", "e_ij_max", "weighted_surface_energy_EV_PER_ANG2", "weighted_surface_energy", "weighted_work_function", "surface_anisotropy", "shape_factor", "has_reconstructed", "possible_species", "has_props", "theoretical", "database_IDs"]}