{"builder_meta": null, "nsites": null, "elements": null, "nelements": null, "composition": null, "composition_reduced": null, "formula_pretty": "ZrTc2", "formula_anonymous": "AB2", "chemsys": null, "volume": 204.25352839377024, "density": 9.340287565473758, "density_atomic": 17.02112736614752, "symmetry": null, "property_name": null, "material_id": "mp-1095545", "deprecated": null, "deprecation_reasons": null, "last_updated": null, "origins": null, "warnings": null, "structure": {"@module": "pymatgen.core.structure", "@class": "Structure", "charge": 0, "lattice": {"matrix": [[-2.6021981, -4.51394247, -0.0], [-2.6021981, 4.51394247, 0.0], [0.0, -0.0, -8.69447167]], "pbc": [true, true, true], "a": 5.210289010612877, "b": 5.210289010612877, "c": 8.69447167, "alpha": 90.0, "beta": 90.0, "gamma": 120.07481193025001, "volume": 204.25352839377024}, "properties": {}, "sites": [{"species": [{"element": "Zr", "occu": 1}], "abc": [0.6665669, 0.3334331, 0.5623264], "properties": {"magmom": 0.0}, "label": "Zr", "xyz": [-2.6021981, -1.503746808012486, -4.889130954093088]}, {"species": [{"element": "Zr", "occu": 1}], "abc": [0.3334331, 0.6665669, 0.4376736], "properties": {"magmom": 0.0}, "label": "Zr", "xyz": [-2.6021981, 1.503746808012486, -3.805340715906912]}, {"species": [{"element": "Zr", "occu": 1}], "abc": [0.3334331, 0.6665669, 0.0623264], "properties": {"magmom": 0.0}, "label": "Zr", "xyz": [-2.6021981, 1.503746808012486, -0.541895119093088]}, {"species": [{"element": "Zr", "occu": 1}], "abc": [0.6665669, 0.3334331, 0.9376736], "properties": {"magmom": 0.0}, "label": "Zr", "xyz": [-2.6021981, -1.503746808012486, -8.152576550906913]}, {"species": [{"element": "Tc", "occu": 1}], "abc": [0.0, 0.0, 0.5], "properties": {"magmom": -0.0}, "label": "Tc", "xyz": [0.0, 0.0, -4.347235835]}, {"species": [{"element": "Tc", "occu": 1}], "abc": [0.0, 0.0, 0.0], "properties": {"magmom": -0.0}, "label": "Tc", "xyz": [0.0, 0.0, 0.0]}, {"species": [{"element": "Tc", "occu": 1}], "abc": [0.1717245, 0.34363574, 0.75], "properties": {"magmom": -0.0}, "label": "Tc", "xyz": [-1.3410694373435441, 0.7759974473063629, -6.520853752500001]}, {"species": [{"element": "Tc", "occu": 1}], "abc": [0.17183464, 0.8281653600000001, 0.75], "properties": {"magmom": -0.0}, "label": "Tc", "xyz": [-2.6021981, 2.962639111373679, -6.520853752500001]}, {"species": [{"element": "Tc", "occu": 1}], "abc": [0.65636426, 0.828275499999999, 0.75], "properties": {"magmom": -0.0}, "label": "Tc", "xyz": [-3.8633267626564534, 0.7759974473063584, -6.520853752500001]}, {"species": [{"element": "Tc", "occu": 1}], "abc": [0.828275499999999, 0.65636426, 0.25], "properties": {"magmom": -0.0}, "label": "Tc", "xyz": [-3.8633267626564534, -0.7759974473063584, -2.1736179175]}, {"species": [{"element": "Tc", "occu": 1}], "abc": [0.8281653600000001, 0.17183464, 0.25], "properties": {"magmom": -0.0}, "label": "Tc", "xyz": [-2.6021981, -2.962639111373679, -2.1736179175]}, {"species": [{"element": "Tc", "occu": 1}], "abc": [0.34363574, 0.1717245, 0.25], "properties": {"magmom": -0.0}, "label": "Tc", "xyz": [-1.3410694373435441, -0.7759974473063629, -2.1736179175]}]}, "task_ids": null, "uncorrected_energy_per_atom": null, "energy_per_atom": -25.255307268333336, "formation_energy_per_atom": -0.36226860000000205, "energy_above_hull": 0.0, "is_stable": true, "equilibrium_reaction_energy_per_atom": null, "decomposes_to": null, "xas": null, "grain_boundaries": null, "band_gap": 0.0, "cbm": null, "vbm": null, "efermi": 6.76843079, "is_gap_direct": null, "is_metal": null, "es_source_calc_id": null, "bandstructure": null, "dos": null, "dos_energy_up": null, "dos_energy_down": null, "is_magnetic": null, "ordering": null, "total_magnetization": 7.810000000000001e-05, "total_magnetization_normalized_vol": null, "total_magnetization_normalized_formula_units": null, "num_magnetic_sites": null, "num_unique_magnetic_sites": null, "types_of_magnetic_species": null, "bulk_modulus": null, "shear_modulus": null, "universal_anisotropy": null, "homogeneous_poisson": null, "e_total": null, "e_ionic": null, "e_electronic": null, "n": null, "e_ij_max": null, "weighted_surface_energy_EV_PER_ANG2": null, "weighted_surface_energy": null, "weighted_work_function": null, "surface_anisotropy": null, "shape_factor": null, "has_reconstructed": null, "possible_species": null, "has_props": null, "theoretical": null, "database_IDs": null, "fields_not_requested": ["builder_meta", "nsites", "elements", "nelements", "composition", "composition_reduced", "chemsys", "symmetry", "property_name", "deprecated", "deprecation_reasons", "last_updated", "origins", "warnings", "task_ids", "uncorrected_energy_per_atom", "equilibrium_reaction_energy_per_atom", "decomposes_to", "xas", "grain_boundaries", "cbm", "vbm", "is_gap_direct", "is_metal", "es_source_calc_id", "bandstructure", "dos", "dos_energy_up", "dos_energy_down", "is_magnetic", "ordering", "total_magnetization_normalized_vol", "total_magnetization_normalized_formula_units", "num_magnetic_sites", "num_unique_magnetic_sites", "types_of_magnetic_species", "bulk_modulus", "shear_modulus", "universal_anisotropy", "homogeneous_poisson", "e_total", "e_ionic", "e_electronic", "n", "e_ij_max", "weighted_surface_energy_EV_PER_ANG2", "weighted_surface_energy", "weighted_work_function", "surface_anisotropy", "shape_factor", "has_reconstructed", "possible_species", "has_props", "theoretical", "database_IDs"]}