{
  "builder_meta": null,
  "nsites": null,
  "elements": null,
  "nelements": null,
  "composition": null,
  "composition_reduced": null,
  "formula_pretty": "ZrTe2",
  "formula_anonymous": "AB2",
  "chemsys": null,
  "volume": 97.2407635539497,
  "density": 5.915734971462726,
  "density_atomic": 32.41358785131657,
  "symmetry": null,
  "property_name": null,
  "material_id": "mp-1018107",
  "deprecated": null,
  "deprecation_reasons": null,
  "last_updated": null,
  "origins": null,
  "warnings": null,
  "structure": {
    "@module": "pymatgen.core.structure",
    "@class": "Structure",
    "charge": 0,
    "lattice": {
      "matrix": [
        [4.01125651, -0.00112735, 0.0014198400000000001],
        [-2.00660373, 3.47470445, -0.00022663000000000002],
        [0.00247865, 0.00099707, 6.97783363]
      ],
      "pbc": [true, true, true],
      "a": 4.011256919704973,
      "b": 4.012484217471873,
      "c": 6.977834141466347,
      "alpha": 90.0063244357768,
      "beta": 89.9593691921592,
      "gamma": 120.02206476959674,
      "volume": 97.2407635539497
    },
    "properties": {},
    "sites": [
      {
        "species": [{ "element": "Zr", "occu": 1 }],
        "abc": [0.0, -0.0, -0.0],
        "properties": { "magmom": 0.0 },
        "label": "Zr",
        "xyz": [0.0, 0.0, 0.0]
      },
      {
        "species": [{ "element": "Te", "occu": 1 }],
        "abc": [0.6665541700000001, 0.33333759, 0.74681189],
        "properties": { "magmom": 0.0 },
        "label": "Te",
        "xyz": [2.0066943875280847, 1.1582427912128883, 5.2119999773005725]
      },
      {
        "species": [{ "element": "Te", "occu": 1 }],
        "abc": [0.33344583, 0.66666241, 0.25318811],
        "properties": { "magmom": 0.0 },
        "label": "Te",
        "xyz": [0.00043704247191522544, 2.3163313787871114, 1.7670268626994283]
      }
    ]
  },
  "task_ids": null,
  "uncorrected_energy_per_atom": null,
  "energy_per_atom": -25.59655481333333,
  "formation_energy_per_atom": -1.0684746383333321,
  "energy_above_hull": 0.0,
  "is_stable": true,
  "equilibrium_reaction_energy_per_atom": null,
  "decomposes_to": null,
  "xas": null,
  "grain_boundaries": null,
  "band_gap": 0.0,
  "cbm": null,
  "vbm": null,
  "efermi": 4.93572726,
  "is_gap_direct": null,
  "is_metal": null,
  "es_source_calc_id": null,
  "bandstructure": null,
  "dos": null,
  "dos_energy_up": null,
  "dos_energy_down": null,
  "is_magnetic": null,
  "ordering": null,
  "total_magnetization": 0.0,
  "total_magnetization_normalized_vol": null,
  "total_magnetization_normalized_formula_units": null,
  "num_magnetic_sites": null,
  "num_unique_magnetic_sites": null,
  "types_of_magnetic_species": null,
  "bulk_modulus": null,
  "shear_modulus": null,
  "universal_anisotropy": null,
  "homogeneous_poisson": null,
  "e_total": null,
  "e_ionic": null,
  "e_electronic": null,
  "n": null,
  "e_ij_max": null,
  "weighted_surface_energy_EV_PER_ANG2": null,
  "weighted_surface_energy": null,
  "weighted_work_function": null,
  "surface_anisotropy": null,
  "shape_factor": null,
  "has_reconstructed": null,
  "possible_species": null,
  "has_props": null,
  "theoretical": null,
  "database_IDs": null,
  "fields_not_requested": [
    "builder_meta",
    "nsites",
    "elements",
    "nelements",
    "composition",
    "composition_reduced",
    "chemsys",
    "symmetry",
    "property_name",
    "deprecated",
    "deprecation_reasons",
    "last_updated",
    "origins",
    "warnings",
    "task_ids",
    "uncorrected_energy_per_atom",
    "equilibrium_reaction_energy_per_atom",
    "decomposes_to",
    "xas",
    "grain_boundaries",
    "cbm",
    "vbm",
    "is_gap_direct",
    "is_metal",
    "es_source_calc_id",
    "bandstructure",
    "dos",
    "dos_energy_up",
    "dos_energy_down",
    "is_magnetic",
    "ordering",
    "total_magnetization_normalized_vol",
    "total_magnetization_normalized_formula_units",
    "num_magnetic_sites",
    "num_unique_magnetic_sites",
    "types_of_magnetic_species",
    "bulk_modulus",
    "shear_modulus",
    "universal_anisotropy",
    "homogeneous_poisson",
    "e_total",
    "e_ionic",
    "e_electronic",
    "n",
    "e_ij_max",
    "weighted_surface_energy_EV_PER_ANG2",
    "weighted_surface_energy",
    "weighted_work_function",
    "surface_anisotropy",
    "shape_factor",
    "has_reconstructed",
    "possible_species",
    "has_props",
    "theoretical",
    "database_IDs"
  ]
}
