{
  "builder_meta": null,
  "nsites": null,
  "elements": null,
  "nelements": null,
  "composition": null,
  "composition_reduced": null,
  "formula_pretty": "ZrTe3",
  "formula_anonymous": "AB3",
  "chemsys": null,
  "volume": 248.52349808557454,
  "density": 6.334494537292908,
  "density_atomic": 31.065437260696818,
  "symmetry": null,
  "property_name": null,
  "material_id": "mp-2089",
  "deprecated": null,
  "deprecation_reasons": null,
  "last_updated": null,
  "origins": null,
  "warnings": null,
  "structure": {
    "@module": "pymatgen.core.structure",
    "@class": "Structure",
    "charge": 0,
    "lattice": {
      "matrix": [
        [4.01694208, 0.0, 0.0],
        [0.0, 5.95521046, -0.00084125],
        [0.0, 1.36095667, 10.38883233]
      ],
      "pbc": [true, true, true],
      "a": 4.01694208,
      "b": 5.955210519418686,
      "c": 10.477597064139788,
      "alpha": 82.54473882224646,
      "beta": 90.0,
      "gamma": 90.0,
      "volume": 248.52349808557454
    },
    "properties": {},
    "sites": [
      {
        "species": [{ "element": "Zr", "occu": 1 }],
        "abc": [0.25, 0.7140185800000001, 0.65950813],
        "properties": { "magmom": 0.0 },
        "label": "Zr",
        "xyz": [1.00423552, 5.149692904693074, 6.850918714711417]
      },
      {
        "species": [{ "element": "Zr", "occu": 1 }],
        "abc": [0.75, 0.28598142, 0.34049187000000003],
        "properties": { "magmom": 0.0 },
        "label": "Zr",
        "xyz": [3.01270656, 2.166474225306926, 3.5370723652885823]
      },
      {
        "species": [{ "element": "Te", "occu": 1 }],
        "abc": [0.75, 0.441780299999999, 0.82145643],
        "properties": { "magmom": 0.0 },
        "label": "Te",
        "xyz": [3.01270656, 3.74886127110482, 8.533601469993007]
      },
      {
        "species": [{ "element": "Te", "occu": 1 }],
        "abc": [0.75, 0.76252433, 0.4489682],
        "properties": { "magmom": 0.0 },
        "label": "Te",
        "xyz": [3.01270656, 5.152019132428386, 4.6636138777092935]
      },
      {
        "species": [{ "element": "Te", "occu": 1 }],
        "abc": [0.25, 0.5582197, 0.17854357],
        "properties": { "magmom": 0.0 },
        "label": "Te",
        "xyz": [1.00423552, 3.567305858895174, 1.8543896100069932]
      },
      {
        "species": [{ "element": "Te", "occu": 1 }],
        "abc": [0.25, 0.09635657, 0.17164224],
        "properties": { "magmom": -0.0 },
        "label": "Te",
        "xyz": [1.00423552, 0.807421304935463, 1.7830813921411066]
      },
      {
        "species": [{ "element": "Te", "occu": 1 }],
        "abc": [0.75, 0.90364343, 0.82835776],
        "properties": { "magmom": -0.0 },
        "label": "Te",
        "xyz": [3.01270656, 6.508745825064537, 8.604909687858894]
      },
      {
        "species": [{ "element": "Te", "occu": 1 }],
        "abc": [0.25, 0.23747567, 0.5510318],
        "properties": { "magmom": 0.0 },
        "label": "Te",
        "xyz": [1.00423552, 2.1641479975716145, 5.724377202290706]
      }
    ]
  },
  "task_ids": null,
  "uncorrected_energy_per_atom": null,
  "energy_per_atom": -25.5736296775,
  "formation_energy_per_atom": -0.8232634687500031,
  "energy_above_hull": 0.0028008974999940003,
  "is_stable": false,
  "equilibrium_reaction_energy_per_atom": null,
  "decomposes_to": null,
  "xas": null,
  "grain_boundaries": null,
  "band_gap": 0.0,
  "cbm": null,
  "vbm": null,
  "efermi": 5.38627769,
  "is_gap_direct": null,
  "is_metal": null,
  "es_source_calc_id": null,
  "bandstructure": null,
  "dos": null,
  "dos_energy_up": null,
  "dos_energy_down": null,
  "is_magnetic": null,
  "ordering": null,
  "total_magnetization": 0.0,
  "total_magnetization_normalized_vol": null,
  "total_magnetization_normalized_formula_units": null,
  "num_magnetic_sites": null,
  "num_unique_magnetic_sites": null,
  "types_of_magnetic_species": null,
  "bulk_modulus": null,
  "shear_modulus": null,
  "universal_anisotropy": null,
  "homogeneous_poisson": null,
  "e_total": null,
  "e_ionic": null,
  "e_electronic": null,
  "n": null,
  "e_ij_max": null,
  "weighted_surface_energy_EV_PER_ANG2": null,
  "weighted_surface_energy": null,
  "weighted_work_function": null,
  "surface_anisotropy": null,
  "shape_factor": null,
  "has_reconstructed": null,
  "possible_species": null,
  "has_props": null,
  "theoretical": null,
  "database_IDs": null,
  "fields_not_requested": [
    "builder_meta",
    "nsites",
    "elements",
    "nelements",
    "composition",
    "composition_reduced",
    "chemsys",
    "symmetry",
    "property_name",
    "deprecated",
    "deprecation_reasons",
    "last_updated",
    "origins",
    "warnings",
    "task_ids",
    "uncorrected_energy_per_atom",
    "equilibrium_reaction_energy_per_atom",
    "decomposes_to",
    "xas",
    "grain_boundaries",
    "cbm",
    "vbm",
    "is_gap_direct",
    "is_metal",
    "es_source_calc_id",
    "bandstructure",
    "dos",
    "dos_energy_up",
    "dos_energy_down",
    "is_magnetic",
    "ordering",
    "total_magnetization_normalized_vol",
    "total_magnetization_normalized_formula_units",
    "num_magnetic_sites",
    "num_unique_magnetic_sites",
    "types_of_magnetic_species",
    "bulk_modulus",
    "shear_modulus",
    "universal_anisotropy",
    "homogeneous_poisson",
    "e_total",
    "e_ionic",
    "e_electronic",
    "n",
    "e_ij_max",
    "weighted_surface_energy_EV_PER_ANG2",
    "weighted_surface_energy",
    "weighted_work_function",
    "surface_anisotropy",
    "shape_factor",
    "has_reconstructed",
    "possible_species",
    "has_props",
    "theoretical",
    "database_IDs"
  ]
}
