{"builder_meta": null, "nsites": null, "elements": null, "nelements": null, "composition": null, "composition_reduced": null, "formula_pretty": "ZrTe5", "formula_anonymous": "AB5", "chemsys": null, "volume": 428.62815700419884, "density": 5.6501418327982424, "density_atomic": 35.71901308368324, "symmetry": null, "property_name": null, "material_id": "mp-605", "deprecated": null, "deprecation_reasons": null, "last_updated": null, "origins": null, "warnings": null, "structure": {"@module": "pymatgen.core.structure", "@class": "Structure", "charge": 0, "lattice": {"matrix": [[4.04862539, -1e-08, 0.0], [-2.02431323, 7.6613345200000005, -0.0], [-0.0, 0.0, 13.81874737]], "pbc": [true, true, true], "a": 4.04862539, "b": 7.924259629801176, "c": 13.81874737, "alpha": 90.0, "beta": 90.0, "gamma": 104.80070853076268, "volume": 428.6281570041989}, "properties": {}, "sites": [{"species": [{"element": "Zr", "occu": 1}], "abc": [0.31623227, 0.63246355, 0.75], "properties": {"magmom": -0.0}, "label": "Zr", "xyz": [1.6657015686760701e-06, 4.8455148250944235, 10.364060527500001]}, {"species": [{"element": "Zr", "occu": 1}], "abc": [0.68376773, 0.36753645, 0.25], "properties": {"magmom": -0.0}, "label": "Zr", "xyz": [2.0243104942984314, 2.815819684905577, 3.4546868425]}, {"species": [{"element": "Te", "occu": 1}], "abc": [0.671704299999999, 0.34340761000000003, 0.75], "properties": {"magmom": -0.0}, "label": "Te", "xyz": [2.0243145153464925, 2.6309605702066547, 10.364060527500001]}, {"species": [{"element": "Te", "occu": 1}], "abc": [0.328295699999999, 0.65659239, 0.25], "properties": {"magmom": -0.0}, "label": "Te", "xyz": [-2.3553465007264407e-06, 5.030373939793346, 3.4546868425]}, {"species": [{"element": "Te", "occu": 1}], "abc": [0.92709674, 0.85419248, 0.84935971], "properties": {"magmom": 0.0}, "label": "Te", "xyz": [2.0243142623197175, 6.544254324477443, 11.737087258746463]}, {"species": [{"element": "Te", "occu": 1}], "abc": [0.07290326, 0.14580752, 0.15064029], "properties": {"magmom": 0.0}, "label": "Te", "xyz": [-2.102319718200185e-06, 1.1170801855225578, 2.0816601112535373]}, {"species": [{"element": "Te", "occu": 1}], "abc": [0.07290326, 0.14580752, 0.34935971], "properties": {"magmom": 0.0}, "label": "Te", "xyz": [-2.102319718200185e-06, 1.1170801855225578, 4.827713573746463]}, {"species": [{"element": "Te", "occu": 1}], "abc": [0.92709674, 0.85419248, 0.65064029], "properties": {"magmom": 0.0}, "label": "Te", "xyz": [2.0243142623197175, 6.544254324477443, 8.991033796253538]}, {"species": [{"element": "Te", "occu": 1}], "abc": [0.21368391, 0.42736881, 0.56520472], "properties": {"magmom": 0.0}, "label": "Te", "xyz": [-2.2327118814891023e-06, 3.274215414687482, 7.810421238011586]}, {"species": [{"element": "Te", "occu": 1}], "abc": [0.78631609, 0.57263119, 0.43479528], "properties": {"magmom": 0.0}, "label": "Te", "xyz": [2.024314392711881, 4.387119095312518, 6.008326131988414]}, {"species": [{"element": "Te", "occu": 1}], "abc": [0.78631609, 0.57263119, 0.06520472000000001], "properties": {"magmom": 0.0}, "label": "Te", "xyz": [2.024314392711881, 4.387119095312518, 0.9010475530115866]}, {"species": [{"element": "Te", "occu": 1}], "abc": [0.21368391, 0.42736881, 0.93479528], "properties": {"magmom": 0.0}, "label": "Te", "xyz": [-2.2327118814891023e-06, 3.274215414687482, 12.917699816988414]}]}, "task_ids": null, "uncorrected_energy_per_atom": null, "energy_per_atom": -25.556306336666665, "formation_energy_per_atom": -0.583654094166666, "energy_above_hull": 0.0, "is_stable": true, "equilibrium_reaction_energy_per_atom": null, "decomposes_to": null, "xas": null, "grain_boundaries": null, "band_gap": 0.019200000000000002, "cbm": null, "vbm": null, "efermi": 4.55240597, "is_gap_direct": null, "is_metal": null, "es_source_calc_id": null, "bandstructure": null, "dos": null, "dos_energy_up": null, "dos_energy_down": null, "is_magnetic": null, "ordering": null, "total_magnetization": 0.0, "total_magnetization_normalized_vol": null, "total_magnetization_normalized_formula_units": null, "num_magnetic_sites": null, "num_unique_magnetic_sites": null, "types_of_magnetic_species": null, "bulk_modulus": null, "shear_modulus": null, "universal_anisotropy": null, "homogeneous_poisson": null, "e_total": null, "e_ionic": null, "e_electronic": null, "n": null, "e_ij_max": null, "weighted_surface_energy_EV_PER_ANG2": null, "weighted_surface_energy": null, "weighted_work_function": null, "surface_anisotropy": null, "shape_factor": null, "has_reconstructed": null, "possible_species": null, "has_props": null, "theoretical": null, "database_IDs": null, "fields_not_requested": ["builder_meta", "nsites", "elements", "nelements", "composition", "composition_reduced", "chemsys", "symmetry", "property_name", "deprecated", "deprecation_reasons", "last_updated", "origins", "warnings", "task_ids", "uncorrected_energy_per_atom", "equilibrium_reaction_energy_per_atom", "decomposes_to", "xas", "grain_boundaries", "cbm", "vbm", "is_gap_direct", "is_metal", "es_source_calc_id", "bandstructure", "dos", "dos_energy_up", "dos_energy_down", "is_magnetic", "ordering", "total_magnetization_normalized_vol", "total_magnetization_normalized_formula_units", "num_magnetic_sites", "num_unique_magnetic_sites", "types_of_magnetic_species", "bulk_modulus", "shear_modulus", "universal_anisotropy", "homogeneous_poisson", "e_total", "e_ionic", "e_electronic", "n", "e_ij_max", "weighted_surface_energy_EV_PER_ANG2", "weighted_surface_energy", "weighted_work_function", "surface_anisotropy", "shape_factor", "has_reconstructed", "possible_species", "has_props", "theoretical", "database_IDs"]}