{"builder_meta": null, "nsites": null, "elements": null, "nelements": null, "composition": null, "composition_reduced": null, "formula_pretty": "ZrV2", "formula_anonymous": "AB2", "chemsys": null, "volume": 198.66819410619516, "density": 6.456226553557358, "density_atomic": 16.55568284218293, "symmetry": null, "property_name": null, "material_id": "mp-1103264", "deprecated": null, "deprecation_reasons": null, "last_updated": null, "origins": null, "warnings": null, "structure": {"@module": "pymatgen.core.structure", "@class": "Structure", "charge": 0, "lattice": {"matrix": [[5.208193, 0.0, 0.0], [-2.604097, 4.510428, 0.0], [0.0, 0.0, 8.45714]], "pbc": [true, true, true], "a": 5.208193, "b": 5.208193729940641, "c": 8.45714, "alpha": 90.0, "beta": 90.0, "gamma": 120.00000171527638, "volume": 198.66819410619516}, "properties": {}, "sites": [{"species": [{"element": "Zr", "occu": 1}], "abc": [0.333333, 0.666667, 0.435938999999999], "properties": {"magmom": 0.026000000000000002}, "label": "Zr", "xyz": [-2.93743000012725e-06, 3.006953503476, 3.6867971544599922]}, {"species": [{"element": "Zr", "occu": 1}], "abc": [0.666667, 0.333333, 0.564060999999999], "properties": {"magmom": 0.026000000000000002}, "label": "Zr", "xyz": [2.60409893743, 1.503474496524, 4.770342845539992]}, {"species": [{"element": "Zr", "occu": 1}], "abc": [0.666667, 0.333333, 0.935939], "properties": {"magmom": 0.026000000000000002}, "label": "Zr", "xyz": [2.60409893743, 1.503474496524, 7.91536715446]}, {"species": [{"element": "Zr", "occu": 1}], "abc": [0.333333, 0.666667, 0.06406099999999901], "properties": {"magmom": 0.026000000000000002}, "label": "Zr", "xyz": [-2.93743000012725e-06, 3.006953503476, 0.5417728455399916]}, {"species": [{"element": "V", "occu": 1}], "abc": [0.0, 0.0, 0.5], "properties": {"magmom": -0.017}, "label": "V", "xyz": [0.0, 0.0, 4.22857]}, {"species": [{"element": "V", "occu": 1}], "abc": [0.0, 0.0, 0.0], "properties": {"magmom": -0.017}, "label": "V", "xyz": [0.0, 0.0, 0.0]}, {"species": [{"element": "V", "occu": 1}], "abc": [0.8311700000000001, 0.16883, 0.25], "properties": {"magmom": 0.059000000000000004}, "label": "V", "xyz": [3.8892440793, 0.76149555924, 2.114285]}, {"species": [{"element": "V", "occu": 1}], "abc": [0.8311700000000001, 0.66234, 0.25], "properties": {"magmom": 0.059000000000000004}, "label": "V", "xyz": [2.60409616883, 2.9874368815200003, 2.114285]}, {"species": [{"element": "V", "occu": 1}], "abc": [0.33766, 0.16883, 0.25], "properties": {"magmom": 0.059000000000000004}, "label": "V", "xyz": [1.3189487518699998, 0.76149555924, 2.114285]}, {"species": [{"element": "V", "occu": 1}], "abc": [0.16883, 0.8311700000000001, 0.75], "properties": {"magmom": 0.059000000000000004}, "label": "V", "xyz": [-1.2851480793000003, 3.7489324407600004, 6.342855]}, {"species": [{"element": "V", "occu": 1}], "abc": [0.16883, 0.33766, 0.75], "properties": {"magmom": 0.059000000000000004}, "label": "V", "xyz": [-1.6883000009126903e-07, 1.52299111848, 6.342855]}, {"species": [{"element": "V", "occu": 1}], "abc": [0.66234, 0.8311700000000001, 0.75], "properties": {"magmom": 0.059000000000000004}, "label": "V", "xyz": [1.28514724813, 3.7489324407600004, 6.342855]}]}, "task_ids": null, "uncorrected_energy_per_atom": null, "energy_per_atom": -16.94374779416667, "formation_energy_per_atom": 0.032566660833329, "energy_above_hull": 0.032566660833332005, "is_stable": false, "equilibrium_reaction_energy_per_atom": null, "decomposes_to": null, "xas": null, "grain_boundaries": null, "band_gap": 0.0, "cbm": null, "vbm": null, "efermi": 4.95029849, "is_gap_direct": null, "is_metal": null, "es_source_calc_id": null, "bandstructure": null, "dos": null, "dos_energy_up": null, "dos_energy_down": null, "is_magnetic": null, "ordering": null, "total_magnetization": 0.6323789, "total_magnetization_normalized_vol": null, "total_magnetization_normalized_formula_units": null, "num_magnetic_sites": null, "num_unique_magnetic_sites": null, "types_of_magnetic_species": null, "bulk_modulus": null, "shear_modulus": null, "universal_anisotropy": null, "homogeneous_poisson": null, "e_total": null, "e_ionic": null, "e_electronic": null, "n": null, "e_ij_max": null, "weighted_surface_energy_EV_PER_ANG2": null, "weighted_surface_energy": null, "weighted_work_function": null, "surface_anisotropy": null, "shape_factor": null, "has_reconstructed": null, "possible_species": null, "has_props": null, "theoretical": null, "database_IDs": null, "fields_not_requested": ["builder_meta", "nsites", "elements", "nelements", "composition", "composition_reduced", "chemsys", "symmetry", "property_name", "deprecated", "deprecation_reasons", "last_updated", "origins", "warnings", "task_ids", "uncorrected_energy_per_atom", "equilibrium_reaction_energy_per_atom", "decomposes_to", "xas", "grain_boundaries", "cbm", "vbm", "is_gap_direct", "is_metal", "es_source_calc_id", "bandstructure", "dos", "dos_energy_up", "dos_energy_down", "is_magnetic", "ordering", "total_magnetization_normalized_vol", "total_magnetization_normalized_formula_units", "num_magnetic_sites", "num_unique_magnetic_sites", "types_of_magnetic_species", "bulk_modulus", "shear_modulus", "universal_anisotropy", "homogeneous_poisson", "e_total", "e_ionic", "e_electronic", "n", "e_ij_max", "weighted_surface_energy_EV_PER_ANG2", "weighted_surface_energy", "weighted_work_function", "surface_anisotropy", "shape_factor", "has_reconstructed", "possible_species", "has_props", "theoretical", "database_IDs"]}