{"builder_meta": null, "nsites": null, "elements": null, "nelements": null, "composition": null, "composition_reduced": null, "formula_pretty": "ZrZn2", "formula_anonymous": "AB2", "chemsys": null, "volume": 99.55349873010557, "density": 7.407261826640298, "density_atomic": 16.59224978835093, "symmetry": null, "property_name": null, "material_id": "mp-1401", "deprecated": null, "deprecation_reasons": null, "last_updated": null, "origins": null, "warnings": null, "structure": {"@module": "pymatgen.core.structure", "@class": "Structure", "charge": 0, "lattice": {"matrix": [[4.50527387, -1e-08, 2.60112291], [1.50175729, 4.24761214, 2.60112188], [1.04e-06, 0.0, 5.20224172]], "pbc": [true, true, true], "a": 5.202243077426472, "b": 5.20224171723674, "c": 5.202241720000104, "alpha": 59.99998319251524, "beta": 59.999971106456584, "gamma": 59.999993720472574, "volume": 99.55349873010557}, "properties": {}, "sites": [{"species": [{"element": "Zr", "occu": 1}], "abc": [0.875, 0.875, 0.875], "properties": {"magmom": 0.673}, "label": "Zr", "xyz": [5.256153175, 3.7166606137500002, 9.103925696249998]}, {"species": [{"element": "Zr", "occu": 1}], "abc": [0.125, 0.125, 0.125], "properties": {"magmom": 0.673}, "label": "Zr", "xyz": [0.750879025, 0.53095151625, 1.30056081375]}, {"species": [{"element": "Zn", "occu": 1}], "abc": [0.5, 0.5, 0.5], "properties": {"magmom": 0.0}, "label": "Zn", "xyz": [3.0035161, 2.123806065, 5.202243255]}, {"species": [{"element": "Zn", "occu": 1}], "abc": [0.5, 0.5, -0.0], "properties": {"magmom": 0.0}, "label": "Zn", "xyz": [3.00351558, 2.123806065, 2.601122395]}, {"species": [{"element": "Zn", "occu": 1}], "abc": [0.0, 0.5, 0.5], "properties": {"magmom": 0.0}, "label": "Zn", "xyz": [0.750879165, 2.12380607, 3.9016818]}, {"species": [{"element": "Zn", "occu": 1}], "abc": [0.5, 0.0, 0.5], "properties": {"magmom": 0.0}, "label": "Zn", "xyz": [2.252637455, -5e-09, 3.901682315]}]}, "task_ids": null, "uncorrected_energy_per_atom": null, "energy_per_atom": -13.892339921666666, "formation_energy_per_atom": -0.36867421666666605, "energy_above_hull": 0.0, "is_stable": true, "equilibrium_reaction_energy_per_atom": null, "decomposes_to": null, "xas": null, "grain_boundaries": null, "band_gap": 0.0, "cbm": null, "vbm": null, "efermi": 3.58751394, "is_gap_direct": null, "is_metal": null, "es_source_calc_id": null, "bandstructure": null, "dos": null, "dos_energy_up": null, "dos_energy_down": null, "is_magnetic": null, "ordering": null, "total_magnetization": 2.2070734, "total_magnetization_normalized_vol": null, "total_magnetization_normalized_formula_units": null, "num_magnetic_sites": null, "num_unique_magnetic_sites": null, "types_of_magnetic_species": null, "bulk_modulus": null, "shear_modulus": null, "universal_anisotropy": null, "homogeneous_poisson": null, "e_total": null, "e_ionic": null, "e_electronic": null, "n": null, "e_ij_max": null, "weighted_surface_energy_EV_PER_ANG2": null, "weighted_surface_energy": null, "weighted_work_function": null, "surface_anisotropy": null, "shape_factor": null, "has_reconstructed": null, "possible_species": null, "has_props": null, "theoretical": null, "database_IDs": null, "fields_not_requested": ["builder_meta", "nsites", "elements", "nelements", "composition", "composition_reduced", "chemsys", "symmetry", "property_name", "deprecated", "deprecation_reasons", "last_updated", "origins", "warnings", "task_ids", "uncorrected_energy_per_atom", "equilibrium_reaction_energy_per_atom", "decomposes_to", "xas", "grain_boundaries", "cbm", "vbm", "is_gap_direct", "is_metal", "es_source_calc_id", "bandstructure", "dos", "dos_energy_up", "dos_energy_down", "is_magnetic", "ordering", "total_magnetization_normalized_vol", "total_magnetization_normalized_formula_units", "num_magnetic_sites", "num_unique_magnetic_sites", "types_of_magnetic_species", "bulk_modulus", "shear_modulus", "universal_anisotropy", "homogeneous_poisson", "e_total", "e_ionic", "e_electronic", "n", "e_ij_max", "weighted_surface_energy_EV_PER_ANG2", "weighted_surface_energy", "weighted_work_function", "surface_anisotropy", "shape_factor", "has_reconstructed", "possible_species", "has_props", "theoretical", "database_IDs"]}