{
  "builder_meta": null,
  "nsites": null,
  "elements": null,
  "nelements": null,
  "composition": null,
  "composition_reduced": null,
  "formula_pretty": "ZrZn3",
  "formula_anonymous": "AB3",
  "chemsys": null,
  "volume": 128.23782788040813,
  "density": 7.444349660669212,
  "density_atomic": 16.029728485051017,
  "symmetry": null,
  "property_name": null,
  "material_id": "mp-864889",
  "deprecated": null,
  "deprecation_reasons": null,
  "last_updated": null,
  "origins": null,
  "warnings": null,
  "structure": {
    "@module": "pymatgen.core.structure",
    "@class": "Structure",
    "charge": 0,
    "lattice": {
      "matrix": [
        [5.84741273, -1e-8, 0.0],
        [-2.923707379999999, 5.06400821, -0.0],
        [-0.0, -0.0, 4.33069904]
      ],
      "pbc": [true, true, true],
      "a": 5.84741273,
      "b": 5.847413444833011,
      "c": 4.33069904,
      "alpha": 90.0,
      "beta": 90.0,
      "gamma": 120.00000753809076,
      "volume": 128.23782788040813
    },
    "properties": {},
    "sites": [
      {
        "species": [{ "element": "Zr", "occu": 1 }],
        "abc": [0.333333999999999, 0.666667, 0.749997999999999],
        "properties": { "magmom": 0.0 },
        "label": "Zr",
        "xyz": [2.2470393550300116e-6, 3.37600715800273, 3.2480156186019156]
      },
      {
        "species": [{ "element": "Zr", "occu": 1 }],
        "abc": [0.666666, 0.333331999999999, 0.249998],
        "properties": { "magmom": 0.0 },
        "label": "Zr",
        "xyz": [2.9237060266680235, 1.6879959779890552, 1.0826660986019199]
      },
      {
        "species": [{ "element": "Zn", "occu": 1 }],
        "abc": [0.15662697, 0.31325294, 0.249998],
        "properties": { "magmom": 0.0 },
        "label": "Zn",
        "xyz": [2.60575463140178e-6, 1.5863154584003676, 1.0826660986019199]
      },
      {
        "species": [{ "element": "Zn", "occu": 1 }],
        "abc": [0.68674506, 0.84337303, 0.249998],
        "properties": { "magmom": 0.0 },
        "label": "Zn",
        "xyz": [1.549905854204654, 4.270847941145125, 1.0826660986019199]
      },
      {
        "species": [{ "element": "Zn", "occu": 1 }],
        "abc": [0.15662797, 0.84337303, 0.249998],
        "properties": { "magmom": 0.0 },
        "label": "Zn",
        "xyz": [-1.5499075662519022, 4.270847946446296, 1.0826660986019199]
      },
      {
        "species": [{ "element": "Zn", "occu": 1 }],
        "abc": [0.84337303, 0.68674506, 0.749997999999999],
        "properties": { "magmom": 0.0 },
        "label": "Zn",
        "xyz": [2.9237085916601298, 3.4776826135832124, 3.2480156186019156]
      },
      {
        "species": [{ "element": "Zn", "occu": 1 }],
        "abc": [0.31325594, 0.15662797, 0.749997999999999],
        "properties": { "magmom": 0.0 },
        "label": "Zn",
        "xyz": [1.373802419500698, 0.7931653228630743, 3.2480156186019156]
      },
      {
        "species": [{ "element": "Zn", "occu": 1 }],
        "abc": [0.84337303, 0.15662797, 0.749997999999999],
        "properties": { "magmom": 0.0 },
        "label": "Zn",
        "xyz": [4.473615839957254, 0.7931653175619034, 3.2480156186019156]
      }
    ]
  },
  "task_ids": null,
  "uncorrected_energy_per_atom": null,
  "energy_per_atom": -12.68673748125,
  "formation_energy_per_atom": -0.316337551250002,
  "energy_above_hull": 0.0,
  "is_stable": true,
  "equilibrium_reaction_energy_per_atom": null,
  "decomposes_to": null,
  "xas": null,
  "grain_boundaries": null,
  "band_gap": 0.0,
  "cbm": null,
  "vbm": null,
  "efermi": 3.51317401,
  "is_gap_direct": null,
  "is_metal": null,
  "es_source_calc_id": null,
  "bandstructure": null,
  "dos": null,
  "dos_energy_up": null,
  "dos_energy_down": null,
  "is_magnetic": null,
  "ordering": null,
  "total_magnetization": 9.180000000000002e-5,
  "total_magnetization_normalized_vol": null,
  "total_magnetization_normalized_formula_units": null,
  "num_magnetic_sites": null,
  "num_unique_magnetic_sites": null,
  "types_of_magnetic_species": null,
  "bulk_modulus": null,
  "shear_modulus": null,
  "universal_anisotropy": null,
  "homogeneous_poisson": null,
  "e_total": null,
  "e_ionic": null,
  "e_electronic": null,
  "n": null,
  "e_ij_max": null,
  "weighted_surface_energy_EV_PER_ANG2": null,
  "weighted_surface_energy": null,
  "weighted_work_function": null,
  "surface_anisotropy": null,
  "shape_factor": null,
  "has_reconstructed": null,
  "possible_species": null,
  "has_props": null,
  "theoretical": null,
  "database_IDs": null,
  "fields_not_requested": [
    "builder_meta",
    "nsites",
    "elements",
    "nelements",
    "composition",
    "composition_reduced",
    "chemsys",
    "symmetry",
    "property_name",
    "deprecated",
    "deprecation_reasons",
    "last_updated",
    "origins",
    "warnings",
    "task_ids",
    "uncorrected_energy_per_atom",
    "equilibrium_reaction_energy_per_atom",
    "decomposes_to",
    "xas",
    "grain_boundaries",
    "cbm",
    "vbm",
    "is_gap_direct",
    "is_metal",
    "es_source_calc_id",
    "bandstructure",
    "dos",
    "dos_energy_up",
    "dos_energy_down",
    "is_magnetic",
    "ordering",
    "total_magnetization_normalized_vol",
    "total_magnetization_normalized_formula_units",
    "num_magnetic_sites",
    "num_unique_magnetic_sites",
    "types_of_magnetic_species",
    "bulk_modulus",
    "shear_modulus",
    "universal_anisotropy",
    "homogeneous_poisson",
    "e_total",
    "e_ionic",
    "e_electronic",
    "n",
    "e_ij_max",
    "weighted_surface_energy_EV_PER_ANG2",
    "weighted_surface_energy",
    "weighted_work_function",
    "surface_anisotropy",
    "shape_factor",
    "has_reconstructed",
    "possible_species",
    "has_props",
    "theoretical",
    "database_IDs"
  ]
}
